/*--------------------------------*- C++ -*----------------------------------*\
| =========                 |                                                 |
| \\      /  F ield         | foam-extend: Open Source CFD                    |
|  \\    /   O peration     | Version:     4.1                                |
|   \\  /    A nd           | Web:         http://www.foam-extend.org         |
|    \\/     M anipulation  |                                                 |
\*---------------------------------------------------------------------------*/
FoamFile
{
    version     2.0;
    format      ascii;
    class       surfaceScalarField;
    location    "0.6";
    object      phi;
}
// * * * * * * * * * * * * * * * * * * * * * * * * * * * * * * * * * * * * * //

dimensions      [0 3 -1 0 0 0 0];

internalField   nonuniform List<scalar> 
8438
(
-0.59744644
0.0016720591
-0.59918381
0.0017373759
-0.60095612
0.0017723071
-0.60277236
0.0018162413
-0.6046423
0.0018699348
-0.60657636
0.0019340656
-0.60858397
0.0020076041
-0.61067273
0.0020887611
-0.61284777
0.002175041
-0.61511102
0.0022632545
-0.61746054
0.002349515
-0.61988981
0.0024292732
-0.62238723
0.0024974202
-0.62493571
0.0025484783
-0.62751259
0.002576878
-0.63008991
0.0025773213
-0.63263499
0.0025450804
-0.63511129
0.002476298
-0.6374794
0.0023681164
-0.63969807
0.00221867
-0.64172508
0.0020270103
-0.6435181
0.0017930149
-0.64503547
0.0015173704
-0.64623716
0.0012016932
-0.647086
0.00084884222
-0.64754944
0.00046343424
-0.64760167
5.2226388e-05
-0.64722528
-0.00037638485
-0.64641527
-0.00081000898
-0.6451831
-0.0012321756
-0.64355763
-0.0016254701
-0.64158491
-0.001972719
-0.63932601
-0.0022588995
-0.63685297
-0.0024730411
-0.63424353
-0.002609438
-0.63157564
-0.0026678909
-0.62892259
-0.0026530475
-0.62634943
-0.0025731557
-0.62391084
-0.0024385932
-0.62165035
-0.002260488
-0.61960073
-0.0020496197
-0.61778507
-0.001815665
-0.6162183
-0.0015667638
-0.61490888
-0.0013094293
-0.61385986
-0.001049019
-0.61306946
-0.00079040087
-0.61253398
-0.00053547055
-0.61225859
-0.00027539595
-1.3638554e-05
-0.61123874
0.0031363243
-0.6126964
0.0031950361
-0.61418123
0.0032571384
-0.61570649
0.0033415076
-0.61728464
0.0034480863
-0.61892689
0.0035763099
-0.62064308
0.003723793
-0.62244118
0.0038868631
-0.62432666
0.0040605181
-0.62630178
0.0042383793
-0.62836493
0.0044126579
-0.63050986
0.0045742109
-0.63272518
0.0047127382
-0.63499387
0.0048171648
-0.6372932
0.0048762054
-0.63959499
0.0048791115
-0.64186621
0.0048163037
-0.6440699
0.0046799904
-0.64616622
0.0044644318
-0.64811346
0.0041659101
-0.649869
0.0037825496
-0.65139008
0.0033141011
-0.6526346
0.0027618844
-0.65356193
0.0021290221
-0.65413414
0.001421059
-0.65431768
0.00064696705
-0.65408579
-0.00017965953
-0.65342261
-0.0010395613
-0.65232499
-0.0019076304
-0.65080384
-0.0027533287
-0.6488872
-0.00354211
-0.6466208
-0.0042391143
-0.64406606
-0.0048136471
-0.64129582
-0.005243278
-0.63838886
-0.0055164014
-0.63542403
-0.0056327176
-0.63247526
-0.0056018209
-0.62960783
-0.00544058
-0.62687633
-0.0051700919
-0.62432396
-0.0048128568
-0.62198303
-0.0043905522
-0.61987617
-0.0039225267
-0.61801796
-0.0034249712
-0.61641661
-0.0029107797
-0.61507544
-0.0023901951
-0.61399469
-0.001871149
-0.61317387
-0.0013562874
-0.61260472
-0.00084455016
-0.00037355515
-0.61228365
0.004550481
-0.6136961
0.0046074834
-0.6151334
0.0046944346
-0.6166105
0.0048186085
-0.6181407
0.0049782908
-0.61973581
0.005171423
-0.62140617
0.005394152
-0.62316025
0.005640936
-0.62500406
0.0059043261
-0.62694049
0.0061748143
-0.62896857
0.0064407398
-0.6310827
0.0066883409
-0.63327199
0.0069020299
-0.63551979
0.0070649612
-0.63780349
0.007159903
-0.64009479
0.0071704132
-0.64236035
0.0070818616
-0.64456277
0.0068824118
-0.64666176
0.0065634259
-0.64861523
0.006119376
-0.65038018
0.0055474964
-0.65191345
0.0048473727
-0.65317235
0.0040207888
-0.65411538
0.0030720499
-0.65470325
0.0020089234
-0.65490051
0.00084422755
-0.65467799
-0.00040217898
-0.6540156
-0.0017019518
-0.65290586
-0.0030173637
-0.65135771
-0.0043014789
-0.64939904
-0.0055007869
-0.64707728
-0.0065608705
-0.64445728
-0.0074336509
-0.64161644
-0.0080841192
-0.63863835
-0.0084944908
-0.63560618
-0.0086648832
-0.6325971
-0.0086108973
-0.62967838
-0.0083593019
-0.62690534
-0.0079431357
-0.62432093
-0.0073972602
-0.62195655
-0.0067549326
-0.61983353
-0.0060455539
-0.61796499
-0.0052935111
-0.61635774
-0.0045180271
-0.61501417
-0.003733767
-0.61393443
-0.0029508893
-0.61311679
-0.0021739193
-0.61255276
-0.0014085833
-0.00068136686
-0.61264032
0.0059352605
-0.6140324
0.0059995679
-0.61544998
0.0061120124
-0.616908
0.0062766311
-0.61842024
0.0064905262
-0.61999919
0.0067503794
-0.62165598
0.0070509382
-0.62339991
0.0073848642
-0.62523791
0.0077423308
-0.62717383
0.0081107375
-0.62920762
0.0084745238
-0.63133446
0.0088151859
-0.63354404
0.0091116038
-0.63581987
0.0093407907
-0.63813907
0.0094791048
-0.64047259
0.0095039322
-0.64278593
0.0093952058
-0.64504035
0.0091368311
-0.64719418
0.0087172493
-0.64920403
0.0081292305
-0.65102578
0.0073692468
-0.65261516
0.0064367492
-0.65392819
0.0053338243
-0.6549217
0.0040655569
-0.65555409
0.0026413092
-0.65578684
0.0010769828
-0.65558696
-0.00060205554
-0.65493031
-0.0023586098
-0.65380568
-0.0041419878
-0.65221946
-0.0058877038
-0.65019921
-0.0075210338
-0.647795
-0.0089650779
-0.64507707
-0.010151585
-0.64213004
-0.011031146
-0.63904516
-0.011579375
-0.63591235
-0.011797689
-0.63281381
-0.011709437
-0.62981977
-0.011353346
-0.62698658
-0.010776321
-0.62435673
-0.010027111
-0.62196009
-0.0091515793
-0.6198159
-0.0081897376
-0.61793506
-0.0071743489
-0.61632227
-0.0061308229
-0.6149782
-0.0050778403
-0.61390141
-0.0040276727
-0.61308833
-0.0029870053
-0.61253355
-0.0019633626
-0.00096996326
-0.61306466
0.0072929874
-0.61443352
0.0073684244
-0.61582883
0.0075073229
-0.61726574
0.007713539
-0.6187585
0.0079832907
-0.62032041
0.0083122901
-0.62196353
0.0086940513
-0.62369825
0.0091195838
-0.62553272
0.0095768017
-0.62747206
0.010050079
-0.62951746
0.010519929
-0.63166523
0.010962948
-0.63390578
0.011352153
-0.63622289
0.011657901
-0.63859326
0.011849476
-0.64098673
0.011897405
-0.64336716
0.011775632
-0.64569385
0.011463521
-0.64792321
0.010946613
-0.65001018
0.010216198
-0.65190918
0.0092682481
-0.65357462
0.0081021916
-0.65496104
0.0067202445
-0.65602322
0.0051277344
-0.65671664
0.0033347313
-0.65699875
0.0013590947
-0.6568314
-0.00076940955
-0.65618466
-0.0030053514
-0.65504175
-0.0052849012
-0.65340498
-0.007524465
-0.65130113
-0.0096248838
-0.64878378
-0.011482432
-0.64593088
-0.013004485
-0.6428375
-0.014124524
-0.63960587
-0.014811007
-0.63633549
-0.015068067
-0.63311548
-0.014929448
-0.63001997
-0.014448861
-0.62710646
-0.01368983
-0.62441647
-0.012717098
-0.62197755
-0.011590501
-0.61980594
-0.010361348
-0.61790936
-0.0090709246
-0.61628962
-0.0077505644
-0.61494496
-0.006422503
-0.61387178
-0.0051008515
-0.61306515
-0.0037936333
-0.61252117
-0.0025073461
-0.00124633
-0.61360168
0.0086184746
-0.61494087
0.0087076159
-0.61630788
0.0088743276
-0.617718
0.009123662
-0.61918608
0.0094513654
-0.62072629
0.0098525027
-0.62235184
0.010319598
-0.62407448
0.010842229
-0.62590392
0.011406236
-0.62784692
0.011993087
-0.62990637
0.012579372
-0.63208003
0.013136611
-0.63435943
0.01363155
-0.63672873
0.014027208
-0.63916415
0.014284896
-0.64163406
0.014367313
-0.64410007
0.014241636
-0.64651886
0.013882315
-0.64884432
0.013272067
-0.65102922
0.0124011
-0.6530263
0.011265333
-0.65478853
0.0098644148
-0.6562688
0.0082005169
-0.65741958
0.0062785139
-0.65819281
0.0041079644
-0.65854081
0.0017070892
-0.65841864
-0.00089157437
-0.65778854
-0.0036354501
-0.65662577
-0.006447678
-0.65492653
-0.0092236974
-0.65271585
-0.011835563
-0.65005178
-0.01414651
-0.64702286
-0.016033398
-0.6437387
-0.017408684
-0.64031668
-0.018233026
-0.63686925
-0.018515496
-0.63349457
-0.018304131
-0.63027152
-0.017671914
-0.6272586
-0.016702743
-0.62449558
-0.015480123
-0.62200652
-0.014079558
-0.61980343
-0.012564437
-0.6178897
-0.010984664
-0.61626314
-0.0093771229
-0.61491858
-0.0077670595
-0.61384958
-0.0061698494
-0.61304954
-0.0045936747
-0.61251418
-0.0030427019
-0.0015155648
-0.61425449
0.0099079802
-0.61555807
0.010011203
-0.61689037
0.010206627
-0.61826739
0.010500683
-0.61970475
0.010888726
-0.6212177
0.011365448
-0.62282078
0.011922675
-0.62452739
0.012548845
-0.62634915
0.013227996
-0.62829495
0.013938882
-0.6303698
0.014654221
-0.63257347
0.015340286
-0.634899
0.015957074
-0.6373312
0.016459409
-0.63984572
0.016799419
-0.64240905
0.01693064
-0.6449798
0.01681239
-0.6475112
0.016413711
-0.64995382
0.01571469
-0.65225784
0.014705118
-0.65437412
0.013381615
-0.65625421
0.011744507
-0.6578495
0.0097958013
-0.65911005
0.007539062
-0.6599838
0.0049817202
-0.66041686
0.0021401465
-0.66035569
-0.00095274513
-0.65975207
-0.0042390735
-0.65857013
-0.0076296127
-0.65679699
-0.010996835
-0.65445425
-0.014178311
-0.6516053
-0.016995452
-0.64835303
-0.019285674
-0.64482689
-0.020934824
-0.64116482
-0.021895088
-0.63749637
-0.022183952
-0.63393108
-0.021869416
-0.63055331
-0.021049689
-0.62742204
-0.019834011
-0.62457405
-0.018328115
-0.62202845
-0.016625152
-0.61979153
-0.01480136
-0.61786102
-0.01291518
-0.61622966
-0.011008478
-0.61488796
-0.0091087565
-0.613826
-0.0072318097
-0.61303481
-0.0053848626
-0.61250836
-0.0035691602
-0.0017789708
-0.6150175
0.011153063
-0.61627823
0.011271935
-0.61756904
0.011497436
-0.61890635
0.011837995
-0.62030663
0.012288999
-0.6217863
0.012845118
-0.62336147
0.013497843
-0.62504748
0.014234862
-0.62685827
0.015038782
-0.62880532
0.015885937
-0.63089641
0.016745305
-0.6331339
0.017577783
-0.63551291
0.018336083
-0.63801929
0.018965784
-0.6406281
0.019408234
-0.64330342
0.019605957
-0.64599992
0.019508885
-0.64866619
0.019079985
-0.65124859
0.018297089
-0.65369414
0.017150664
-0.65595177
0.015639246
-0.65797189
0.013764631
-0.65970475
0.011528663
-0.66109827
0.0089325748
-0.66209612
0.0059795795
-0.66263719
0.0026812088
-0.66265725
-0.00093268061
-0.66209449
-0.0048018368
-0.66089777
-0.008826334
-0.65904071
-0.012853893
-0.65653865
-0.01668037
-0.65346112
-0.020072981
-0.64993015
-0.022816645
-0.64610238
-0.02476259
-0.64214344
-0.025854027
-0.63820509
-0.026122302
-0.63441088
-0.02566363
-0.63085095
-0.02460962
-0.62758364
-0.023101316
-0.62464087
-0.021270887
-0.62203474
-0.019231281
-0.61976391
-0.017072191
-0.61781889
-0.014860202
-0.61618612
-0.012641244
-0.6148509
-0.010443979
-0.61379924
-0.0082834667
-0.61301927
-0.0061648344
-0.61250256
-0.0040858745
-0.0020367277
-0.61589183
0.012350325
-0.61710372
0.012483828
-0.61834615
0.012739865
-0.61963666
0.01312851
-0.62099277
0.013645101
-0.62243223
0.014284584
-0.62397293
0.015038539
-0.62563245
0.01589439
-0.62742749
0.016833815
-0.62937272
0.017831169
-0.63147936
0.018851948
-0.6337532
0.019851618
-0.63619219
0.020775074
-0.63878379
0.021557383
-0.64150259
0.022127036
-0.64430962
0.022412986
-0.64715432
0.022353583
-0.64997915
0.021904815
-0.65272498
0.021042918
-0.65533509
0.019760773
-0.65775659
0.018060745
-0.65993935
0.015947392
-0.66183328
0.013422597
-0.66338481
0.010484103
-0.66453348
0.0071282475
-0.66521002
0.0033577526
-0.6653373
-0.00080540002
-0.66483597
-0.0053031673
-0.66363411
-0.010028193
-0.6616855
-0.014802502
-0.65899447
-0.019371405
-0.65563696
-0.02343049
-0.65176079
-0.026692819
-0.64755999
-0.028963387
-0.64323754
-0.030176476
-0.63897395
-0.030385896
-0.63490948
-0.029728095
-0.63113984
-0.028379259
-0.62772068
-0.026520475
-0.62467631
-0.024315265
-0.62200907
-0.021898516
-0.61970767
-0.019373593
-0.61775354
-0.016814326
-0.61612548
-0.014269309
-0.61480262
-0.011766841
-0.6137663
-0.009319782
-0.61300123
-0.0069299037
-0.6124963
-0.0045908085
-0.0022880776
-0.61687082
0.013487842
-0.61802515
0.013638152
-0.61921145
0.013926165
-0.62044752
0.014364579
-0.62175178
0.014949365
-0.62314342
0.015676221
-0.62464223
0.016537352
-0.62626838
0.017520541
-0.62804177
0.018607208
-0.62998096
0.019770352
-0.63210144
0.020972435
-0.63441341
0.022163589
-0.63691874
0.023280401
-0.63960735
0.024245993
-0.64245362
0.024973302
-0.64541475
0.025374122
-0.64843321
0.025372043
-0.65144316
0.024914757
-0.65437825
0.023978015
-0.65717733
0.022559849
-0.65978599
0.020669407
-0.66215463
0.018316026
-0.66423419
0.015502162
-0.6659709
0.012220814
-0.66730079
0.0084581325
-0.66814586
0.0042028266
-0.66841372
-0.00053754138
-0.66800275
-0.0057141378
-0.66681309
-0.011217854
-0.66476953
-0.016846056
-0.6618575
-0.02228344
-0.65815863
-0.027129356
-0.6538557
-0.030995757
-0.64919484
-0.033624241
-0.64442974
-0.03494158
-0.63977787
-0.035037765
-0.63539888
-0.034107082
-0.63139267
-0.032385465
-0.6278088
-0.030104351
-0.62465999
-0.027464073
-0.62193526
-0.024623248
-0.61961045
-0.021698399
-0.61765586
-0.018768919
-0.61604119
-0.015883978
-0.61473856
-0.013069472
-0.61372409
-0.010334247
-0.61297872
-0.0076752742
-0.61248853
-0.0050809998
-0.002531659
-0.6179535
0.014564907
-0.61904476
0.014729409
-0.62016769
0.015049098
-0.62134153
0.015538411
-0.62258581
0.016193648
-0.62392121
0.017011619
-0.62536961
0.017985753
-0.62695402
0.019104957
-0.62869808
0.020351262
-0.63062492
0.021697192
-0.63275537
0.023102885
-0.63510525
0.024513476
-0.63768178
0.025856929
-0.64047866
0.027042873
-0.64347063
0.027965269
-0.64661022
0.028513715
-0.64983049
0.028592311
-0.65305424
0.02813851
-0.65620559
0.027129362
-0.65921808
0.025572338
-0.66203653
0.02348786
-0.66461356
0.020893053
-0.66690331
0.017791913
-0.66885391
0.014171408
-0.67039926
0.010003483
-0.67145245
0.0052560219
-0.67190377
-8.6221535e-05
-0.67162346
-0.0059944446
-0.67047456
-0.012366755
-0.66833989
-0.018980731
-0.66517294
-0.025450393
-0.66105808
-0.031244209
-0.65622601
-0.035827829
-0.65099685
-0.038853404
-0.6456937
-0.040244732
-0.64058139
-0.040150066
-0.63584103
-0.038847445
-0.6315735
-0.036652996
-0.6278168
-0.033861052
-0.62456651
-0.030714359
-0.62179362
-0.027396142
-0.61945767
-0.024034353
-0.61751546
-0.020711128
-0.61592619
-0.01747324
-0.61465416
-0.014341502
-0.61366987
-0.011318539
-0.6129503
-0.0083948495
-0.61247874
-0.0055525595
-0.0027655959
-0.61913654
0.015564576
-0.62015387
0.015746739
-0.62120436
0.016099591
-0.62230689
0.016640935
-0.62348173
0.017368495
-0.62475097
0.018280852
-0.62613864
0.019373424
-0.62767086
0.020637185
-0.62937551
0.022055912
-0.63128118
0.023602859
-0.63341522
0.025236923
-0.63580069
0.026898949
-0.63845206
0.028508294
-0.64136881
0.029959629
-0.64452723
0.031123684
-0.64787423
0.031860721
-0.65133009
0.032048163
-0.65480173
0.031610157
-0.65820021
0.030527843
-0.66145267
0.028824794
-0.6645043
0.026539487
-0.66731242
0.023701173
-0.66983743
0.020316924
-0.67203255
0.016366535
-0.6738322
0.011803132
-0.6751411
0.0065649172
-0.67582892
0.00060160117
-0.67573293
-0.0060904305
-0.67466921
-0.013430482
-0.67245912
-0.021190818
-0.66900282
-0.028906693
-0.66437967
-0.035867363
-0.65888688
-0.041320618
-0.65295207
-0.044788213
-0.64699443
-0.046202371
-0.64133903
-0.045805462
-0.63618884
-0.043997635
-0.63163943
-0.041202409
-0.62770883
-0.037791654
-0.62436774
-0.034055445
-0.62156318
-0.030200704
-0.61923436
-0.026363173
-0.61732214
-0.022623344
-0.61577389
-0.019021491
-0.61454545
-0.015569942
-0.61360151
-0.012262484
-0.61291511
-0.009081249
-0.61246692
-0.0060007437
-0.0029875707
-0.62040979
0.016490595
-0.6213488
0.016685753
-0.62231956
0.017070352
-0.62334252
0.017663896
-0.62443892
0.018464888
-0.62563217
0.019474103
-0.6269485
0.020689759
-0.62841733
0.022106017
-0.63007123
0.023709805
-0.6319451
0.025476735
-0.63407422
0.027366038
-0.63649077
0.029315497
-0.63921892
0.031236448
-0.64226683
0.033007543
-0.64561438
0.034471233
-0.64920198
0.035448322
-0.65293226
0.035778434
-0.65668955
0.035367448
-0.66036672
0.034205019
-0.66388323
0.032341305
-0.66718691
0.029843157
-0.67024378
0.026758048
-0.67302503
0.023098177
-0.67549378
0.018835284
-0.67758924
0.013898593
-0.67920984
0.0081855131
-0.68020316
0.0015949214
-0.68036667
-0.0059269213
-0.67945581
-0.014341341
-0.67720568
-0.023440953
-0.67342851
-0.032683857
-0.66818115
-0.041114721
-0.66185421
-0.04764756
-0.65503611
-0.051606317
-0.64828039
-0.052958089
-0.64198782
-0.052098032
-0.63638003
-0.04960542
-0.63153589
-0.046046555
-0.62744077
-0.041886769
-0.62403005
-0.037466165
-0.62121945
-0.033011309
-0.61892334
-0.028659276
-0.61706424
-0.024482448
-0.61557659
-0.020509143
-0.61440751
-0.016739023
-0.61351597
-0.013154017
-0.61287138
-0.0097258381
-0.61245211
-0.0064200216
-0.0031948772
-0.62177699
0.017319977
-0.62262449
0.017533256
-0.62350511
0.017950965
-0.6244379
0.018596688
-0.62544427
0.019471253
-0.62654864
0.020578479
-0.62777927
0.021920392
-0.62916893
0.023495677
-0.6307553
0.025296167
-0.63258055
0.027301989
-0.63468949
0.029474981
-0.63712582
0.03175183
-0.63992673
0.03403735
-0.64311336
0.036194174
-0.64667316
0.03803104
-0.65053987
0.039315026
-0.65459184
0.039830407
-0.65868084
0.039456448
-0.66267395
0.03819813
-0.66648128
0.036148627
-0.67005679
0.033418669
-0.6733807
0.030081962
-0.67644043
0.026157909
-0.67921488
0.021609734
-0.6816543
0.016338007
-0.68365484
0.010186057
-0.68504127
0.0029813492
-0.68556481
-0.0054033776
-0.68490674
-0.014999407
-0.68268339
-0.025664305
-0.67856384
-0.036803414
-0.67254483
-0.047133729
-0.66514855
-0.05504384
-0.65721271
-0.059542154
-0.64948031
-0.060690492
-0.64244511
-0.059133228
-0.63633682
-0.055713715
-0.63119801
-0.051185363
-0.6269628
-0.046121978
-0.62351743
-0.040911537
-0.62073765
-0.035791088
-0.61850832
-0.030888604
-0.6167315
-0.026259263
-0.6153282
-0.021912451
-0.61423701
-0.017830207
-0.61341174
-0.013979284
-0.61281873
-0.010318854
-0.61243456
-0.0068041901
-0.0033844875
-0.62320482
0.018061698
-0.62395771
0.018286149
-0.62474088
0.018734139
-0.62557481
0.019430617
-0.62648123
0.020377676
-0.6274854
0.021582647
-0.62861739
0.023052386
-0.62991331
0.024791592
-0.63141623
0.026799087
-0.63317652
0.029062276
-0.6352503
0.031548766
-0.63769555
0.034197075
-0.6405664
0.036908203
-0.64390294
0.039530719
-0.64770671
0.041834805
-0.65190556
0.043513875
-0.65634363
0.044268482
-0.66082391
0.043936727
-0.66517535
0.042549569
-0.66929617
0.040269446
-0.67315255
0.037275046
-0.67674748
0.03367689
-0.68009256
0.029502995
-0.68319135
0.024708517
-0.68601588
0.019162544
-0.68846864
0.012638817
-0.69035287
0.0048655747
-0.69136737
-0.0043888747
-0.6911057
-0.015261076
-0.68902572
-0.027744293
-0.6845666
-0.041262534
-0.67758706
-0.054113269
-0.66879219
-0.063838702
-0.65942306
-0.068911289
-0.65049069
-0.069622856
-0.64259848
-0.067025439
-0.63595912
-0.062353078
-0.63054657
-0.056597914
-0.62621694
-0.050451608
-0.62278982
-0.04433866
-0.62009132
-0.038489585
-0.61797243
-0.033007496
-0.61631352
-0.027918167
-0.61502246
-0.023203514
-0.61403029
-0.018822374
-0.61328671
-0.014722868
-0.61275595
-0.010849616
-0.6124136
-0.0071465348
-0.0035531385
-0.62472812
0.018686925
-0.6253719
0.018929933
-0.62604717
0.019409407
-0.62677147
0.020154918
-0.62756557
0.021171776
-0.62845474
0.022471818
-0.62947027
0.024067916
-0.63065113
0.025972444
-0.63204565
0.02819361
-0.63371294
0.030729563
-0.63572223
0.033558058
-0.63814891
0.036623756
-0.64106887
0.039828165
-0.64454932
0.043011173
-0.64861733
0.045902807
-0.65319966
0.048096209
-0.65809316
0.049161982
-0.66302791
0.048871482
-0.66777716
0.047298811
-0.67222569
0.044717977
-0.67636379
0.041413151
-0.68023093
0.037544028
-0.68387206
0.033144127
-0.6873239
0.02816035
-0.6905927
0.022431344
-0.69359802
0.015644143
-0.69612306
0.0073906124
-0.69780781
-0.0027041196
-0.69814768
-0.014921206
-0.69640511
-0.029486866
-0.69166195
-0.046005699
-0.68348178
-0.062293431
-0.67281046
-0.074510028
-0.66157479
-0.080146959
-0.65116314
-0.080034501
-0.64229767
-0.075890908
-0.63512179
-0.069528966
-0.62948881
-0.062230889
-0.62513976
-0.054800658
-0.62180643
-0.047671989
-0.61925554
-0.041040475
-0.61730114
-0.034961899
-0.61580221
-0.029417093
-0.6146551
-0.024350626
-0.61378522
-0.019692257
-0.61313988
-0.015368204
-0.61268264
-0.011306862
-0.61238911
-0.0074400602
-0.0036974482
-0.62625637
0.019209375
-0.62678881
0.019462368
-0.62734834
0.019968937
-0.62795304
0.020759617
-0.62862275
0.021841484
-0.6293823
0.023231374
-0.63026372
0.024949331
-0.63130846
0.027017188
-0.63257007
0.029455223
-0.63411704
0.032276531
-0.63603393
0.035474943
-0.63841762
0.039007452
-0.6413716
0.042782139
-0.64500081
0.046640385
-0.64937646
0.050278463
-0.65443618
0.053155927
-0.65991025
0.054636049
-0.66541475
0.054375976
-0.67063637
0.052520431
-0.67544127
0.049522879
-0.67986082
0.045832707
-0.68398893
0.041672135
-0.68791213
0.037067328
-0.6917081
0.031956322
-0.6954381
0.02616134
-0.6990643
0.019270342
-0.70236416
0.010690478
-0.70492233
-0.00014595628
-0.7061312
-0.01371233
-0.70503488
-0.030583194
-0.70017227
-0.0508683
-0.69049921
-0.071966489
-0.67722853
-0.087780715
-0.66351989
-0.093855593
-0.6512821
-0.092272299
-0.6413416
-0.085831403
-0.63367
-0.077200563
-0.62791886
-0.06798203
-0.62366486
-0.059054662
-0.62052855
-0.050808299
-0.61820931
-0.043359714
-0.616484
-0.03668721
-0.61519299
-0.030708103
-0.61422456
-0.025319056
-0.61350162
-0.020415194
-0.61297163
-0.015898193
-0.61259929
-0.0116792
-0.61236157
-0.0076777881
-0.003814064
-0.62788239
0.019594924
-0.62828909
0.019869075
-0.62872409
0.020403932
-0.62920043
0.021235958
-0.62973526
0.022376316
-0.63035181
0.023847921
-0.63108161
0.025679131
-0.63196732
0.027902904
-0.6330663
0.030554196
-0.63445537
0.033665601
-0.63623504
0.037254617
-0.63852706
0.04129947
-0.64146764
0.045722721
-0.64521047
0.050383217
-0.64989902
0.05496701
-0.65550934
0.058766247
-0.6616805
0.060807215
-0.66784826
0.060543738
-0.67356779
0.058239957
-0.67868455
0.05463964
-0.6833091
0.050457255
-0.68762738
0.045990417
-0.69178372
0.041223663
-0.69590588
0.036078489
-0.70014151
0.030396966
-0.70453174
0.023660579
-0.70886032
0.015019051
-0.71261838
0.0036121118
-0.71509424
-0.011236474
-0.71514148
-0.030535956
-0.71053882
-0.055470961
-0.69906167
-0.083443632
-0.68205366
-0.10478873
-0.66501383
-0.11089542
-0.65052991
-0.10675622
-0.63946073
-0.096900584
-0.63141471
-0.085246586
-0.62571944
-0.073677295
-0.62172632
-0.06304779
-0.61892258
-0.053612038
-0.61693751
-0.045344778
-0.61551553
-0.038109195
-0.61448483
-0.031738801
-0.61373147
-0.026072417
-0.61318041
-0.020966249
-0.61278256
-0.016296046
-0.61250607
-0.011955694
-0.61233073
-0.007853127
-0.003899842
-0.62933551
0.019855532
-0.62961315
0.020146712
-0.62991402
0.020704801
-0.63024907
0.021571009
-0.63063211
0.022759353
-0.63108351
0.024299322
-0.63163288
0.026228505
-0.63232258
0.028592599
-0.63321233
0.031443945
-0.6343864
0.034839671
-0.63596262
0.038830837
-0.63809374
0.043430594
-0.64095768
0.048586658
-0.64477016
0.054195697
-0.64979032
0.059987176
-0.65609537
0.06507129
-0.66320598
0.067917832
-0.6702605
0.067598254
-0.67660849
0.064587948
-0.68206529
0.060096436
-0.68688198
0.055273951
-0.69138769
0.050496125
-0.6957871
0.045623069
-0.7002318
0.040523193
-0.70497813
0.035143298
-0.71018957
0.028872014
-0.71568806
0.020517543
-0.72087597
0.0088000245
-0.72496474
-0.007147699
-0.72679611
-0.02870459
-0.72322861
-0.059038464
-0.70979447
-0.096877769
-0.68723172
-0.12735147
-0.66565239
-0.13247476
-0.64843938
-0.12396923
-0.63629929
-0.10904067
-0.62813429
-0.093411589
-0.62277085
-0.079040737
-0.61926832
-0.066550316
-0.61696785
-0.055912505
-0.6154366
-0.046876027
-0.61439922
-0.039146579
-0.61368315
-0.032454874
-0.61318084
-0.026574722
-0.61282536
-0.021321734
-0.61257506
-0.016546341
-0.61240418
-0.012126575
-0.61229701
-0.007960299
-0.0039520504
-0.63048923
0.019953079
-0.63061756
0.020275043
-0.63076729
0.020854533
-0.63094279
0.021746508
-0.63115307
0.022969634
-0.63141468
0.024560932
-0.63175406
0.026567886
-0.63221157
0.029050104
-0.632847
0.032079379
-0.63374868
0.035741354
-0.63504861
0.040130763
-0.63693233
0.045314316
-0.63962462
0.051278943
-0.64340484
0.057975917
-0.64869184
0.065274178
-0.65578346
0.072162909
-0.6640617
0.07619608
-0.67214989
0.075686444
-0.67908817
0.071526222
-0.68464793
0.065656201
-0.68934324
0.059969254
-0.69373715
0.054890041
-0.6981077
0.049993622
-0.70258052
0.04499601
-0.70759906
0.040161836
-0.71358427
0.034857225
-0.72049657
0.027429843
-0.72772853
0.016031986
-0.73427698
-0.00059924141
-0.73920121
-0.023780367
-0.73832965
-0.059910024
-0.72349322
-0.1117142
-0.6924812
-0.15836349
-0.664695
-0.16026095
-0.64429979
-0.14436443
-0.63139044
-0.12195002
-0.62358238
-0.10121965
-0.61896617
-0.083656954
-0.61625818
-0.069258306
-0.6146654
-0.057505283
-0.6137198
-0.047821621
-0.61315037
-0.039716009
-0.61280123
-0.032804016
-0.61258276
-0.026793196
-0.61244338
-0.021461117
-0.61235343
-0.016636282
-0.61229599
-0.012184021
-0.61226149
-0.0079948014
-0.0039685875
-0.6300767
0.019850909
-0.63002511
0.020223447
-0.62999139
0.020820815
-0.6299712
0.021726316
-0.62996657
0.022965007
-0.62998744
0.024581798
-0.63005308
0.026633525
-0.63019642
0.029193446
-0.63047042
0.032353378
-0.63095857
0.036229503
-0.63179719
0.040969385
-0.63320332
0.04672045
-0.63546273
0.053538352
-0.63892351
0.0614367
-0.6442112
0.070561863
-0.65209745
0.080049168
-0.66189704
0.085995668
-0.6712881
0.085077499
-0.67887068
0.079108805
-0.68430615
0.071091673
-0.68860308
0.064266179
-0.69270805
0.058995013
-0.6970228
0.054308378
-0.70149887
0.049472079
-0.70683079
0.045493752
-0.71385324
0.041879674
-0.72259406
0.036170664
-0.73261979
0.026057715
-0.7419058
0.0086867753
-0.75053093
-0.015155242
-0.75421852
-0.05622243
-0.74047528
-0.12545744
-0.6964192
-0.20241957
-0.6605546
-0.19612556
-0.63703413
-0.1678849
-0.62415302
-0.13483114
-0.61751656
-0.1078561
-0.61423872
-0.086934792
-0.61270438
-0.070792648
-0.61204762
-0.058162047
-0.61182134
-0.048047901
-0.61179732
-0.039740026
-0.61185997
-0.032741365
-0.6119514
-0.02670177
-0.61204331
-0.021369206
-0.61212256
-0.01655703
-0.61218362
-0.012122963
-0.61222455
-0.0079538633
-0.0039481923
-0.62617997
0.019519084
-0.6258916
0.019935073
-0.625599
0.020528217
-0.62529564
0.021422958
-0.62497624
0.022645607
-0.62464209
0.024247644
-0.62430204
0.02629348
-0.62397744
0.028868844
-0.62370983
0.032085762
-0.62357257
0.036092252
-0.62369813
0.041094938
-0.62433164
0.047353967
-0.6258425
0.055049209
-0.62864759
0.06424179
-0.63353564
0.075449912
-0.64212897
0.088642503
-0.65398707
0.097853766
-0.66480749
0.095897916
-0.67268787
0.086989186
-0.67701194
0.075415743
-0.67985863
0.067112871
-0.68278072
0.061917105
-0.68640713
0.057934791
-0.69004094
0.053105883
-0.69451164
0.049964454
-0.70161573
0.048983769
-0.71116226
0.045717196
-0.72410689
0.039002342
-0.7355735
0.020153385
-0.74986595
-0.00086278528
-0.76245161
-0.043636772
-0.75916518
-0.12874386
-0.69459015
-0.2669946
-0.65073373
-0.23998197
-0.62530346
-0.19331517
-0.61396236
-0.14617224
-0.60976292
-0.11205554
-0.60860968
-0.088088031
-0.60868407
-0.07071826
-0.60919199
-0.057654125
-0.60980279
-0.047437107
-0.61038441
-0.039158406
-0.6108895
-0.032236267
-0.61130627
-0.026285009
-0.61163706
-0.021038408
-0.61188909
-0.016305008
-0.61207022
-0.011941829
-0.61218724
-0.0078368481
-0.003890628
-0.61275544
0.018700082
-0.61202518
0.019204816
-0.61127879
0.019781829
-0.61048941
0.020633574
-0.60963932
0.02179552
-0.60871648
0.023324802
-0.60771259
0.025289591
-0.60662703
0.027783285
-0.6054743
0.030933036
-0.60429382
0.034911774
-0.60317244
0.039973551
-0.60231844
0.046499975
-0.60214585
0.05487662
-0.60312746
0.065223402
-0.60600164
0.078324091
-0.61370749
0.096348349
-0.62748501
0.11163129
-0.63862344
0.10703635
-0.64538329
0.09374903
-0.64629217
0.076324625
-0.64569129
0.06651199
-0.64563827
0.061864085
-0.64727665
0.059573182
-0.64832943
0.05415866
-0.64947717
0.051112189
-0.65618201
0.055688619
-0.66609148
0.055626667
-0.68385975
0.056770615
-0.69890196
0.035195592
-0.72787086
0.028106121
-0.75027781
-0.021229819
-0.77323468
-0.105787
-0.67715895
-0.36307033
-0.63076768
-0.28637324
-0.60622325
-0.2178596
-0.59992083
-0.15247466
-0.6002662
-0.11171017
-0.60224906
-0.086105176
-0.60437346
-0.068593856
-0.60623192
-0.055795666
-0.6077555
-0.045913534
-0.6089716
-0.037942304
-0.60992822
-0.031279642
-0.61067132
-0.025541913
-0.61123902
-0.02047071
-0.61166108
-0.015882942
-0.61195982
-0.01164309
-0.61215113
-0.0076455398
-0.0037968082
-0.58475456
0.017458656
-0.58348687
0.01793713
-0.58212002
0.018414978
-0.58064981
0.019163366
-0.57905003
0.020195734
-0.57728979
0.021564569
-0.57533251
0.023332305
-0.57313836
0.025589137
-0.57066981
0.028464489
-0.56789974
0.032141701
-0.56482693
0.036900743
-0.56155875
0.0432318
-0.55853879
0.051856662
-0.55653643
0.063221038
-0.55615951
0.077947177
-0.5615406
0.10172944
-0.580468
0.13055869
-0.59259705
0.1191654
-0.5988374
0.099989385
-0.5940412
0.071528429
-0.58776514
0.06023593
-0.58245055
0.056549493
-0.58162765
0.058750282
-0.57959128
0.052122289
-0.57395978
0.045480693
-0.58525882
0.032539946
-0.59568858
0.037466913
-0.60474101
0.04033399
-0.60347752
0.020485107
-0.63528873
0.039887513
-0.71436377
0.019779127
-0.66919182
-0.054712246
-0.60685571
-0.22709688
-0.57380046
-0.31942849
-0.57150856
-0.2201515
-0.58113721
-0.14284601
-0.58945264
-0.10339474
-0.59561884
-0.079938967
-0.60008672
-0.064125984
-0.60336102
-0.05252136
-0.60579635
-0.04347821
-0.60762943
-0.036109218
-0.60901864
-0.029890431
-0.61007181
-0.024488743
-0.61086359
-0.019678936
-0.6114461
-0.015300431
-0.61185566
-0.011233525
-0.61211694
-0.0073842605
-0.0036688455
-0.52680833
0.01505327
-0.52431727
0.015446066
-0.52167129
0.015769001
-0.518828
0.016320078
-0.51573308
0.017100817
-0.51231875
0.018150235
-0.50849939
0.019512945
-0.50416999
0.021259736
-0.49920652
0.023501016
-0.49347132
0.026406503
-0.48682168
0.030251107
-0.47915372
0.035563841
-0.470664
0.04336694
-0.46231966
0.054876704
-0.45447417
0.070101691
-0.44776148
0.095016744
-0.47091452
0.15371173
-0.47015301
0.1184039
-0.46102698
0.090863357
-0.42740543
0.037906873
-0.39575286
0.028583367
-0.36840188
0.029198514
-0.30384297
0.020940339
-0.16332985
0.013456407
-0.041354498
0.0078042437
0
0
0
0
0
0
0
0
0
0
0
0
0
0
-0.21954791