/*--------------------------------*- C++ -*----------------------------------*\
| =========                 |                                                 |
| \\      /  F ield         | foam-extend: Open Source CFD                    |
|  \\    /   O peration     | Version:     4.1                                |
|   \\  /    A nd           | Web:         http://www.foam-extend.org         |
|    \\/     M anipulation  |                                                 |
\*---------------------------------------------------------------------------*/
FoamFile
{
    version     2.0;
    format      ascii;
    class       volScalarField;
    location    "0.7";
    object      p;
}
// * * * * * * * * * * * * * * * * * * * * * * * * * * * * * * * * * * * * * //

dimensions      [0 2 -2 0 0 0 0];

internalField   nonuniform List<scalar> 
4242
(
-0.59890913
-0.58147334
-0.564069
-0.54242573
-0.51822007
-0.4906291
-0.45959111
-0.4251703
-0.38765325
-0.34762722
-0.30598929
-0.26388932
-0.22269307
-0.18410834
-0.14959972
-0.116262
-0.70786994
-0.68567744
-0.666862
-0.64393787
-0.61858093
-0.5900161
-0.55836295
-0.52367664
-0.48613649
-0.44607785
-0.40401153
-0.36062375
-0.31678931
-0.27373928
-0.23302711
-0.1945088
-0.8784301
-0.85106198
-0.83024277
-0.80408151
-0.77508804
-0.74236889
-0.70607377
-0.66621602
-0.6229932
-0.57676839
-0.52807705
-0.47761344
-0.42619736
-0.37479322
-0.32462809
-0.27760351
-1.0820711
-1.0496219
-1.0263137
-0.99540206
-0.96121262
-0.92241899
-0.87918268
-0.8314501
-0.77943664
-0.72356644
-0.6645012
-0.6031342
-0.54054635
-0.47791497
-0.41644185
-0.35849467
-1.2360841
-1.1996185
-1.1748609
-1.1403503
-1.102671
-1.0596395
-1.0115185
-0.95817082
-0.89980874
-0.83686883
-0.77006938
-0.7004077
-0.62912451
-0.55761065
-0.48717681
-0.41903992
-1.3162891
-1.2770345
-1.2519234
-1.215542
-1.1763893
-1.1314368
-1.0811304
-1.0252683
-0.96405349
-0.89790721
-0.82754997
-0.75399583
-0.67851965
-0.60259325
-0.5277151
-0.45604054
-1.3232457
-1.2829932
-1.2585726
-1.2222343
-1.1833813
-1.1387057
-1.0887197
-1.0332231
-0.97240435
-0.90667058
-0.8367244
-0.76355722
-0.6884144
-0.61274201
-0.53793329
-0.46632312
-1.2594678
-1.22028
-1.1972731
-1.1628157
-1.1257634
-1.0833243
-1.0358668
-0.98326717
-0.92571301
-0.86361309
-0.79764677
-0.728754
-0.65809296
-0.58699524
-0.51662557
-0.44923836
-1.1303588
-1.0944158
-1.0734824
-1.0426947
-1.0090262
-0.97080521
-0.9281366
-0.88098389
-0.8295449
-0.77422458
-0.71565828
-0.6547003
-0.59238219
-0.52990012
-0.46829742
-0.40954797
-0.94503189
-0.91447584
-0.89613363
-0.87065826
-0.8420692
-0.80998898
-0.77434379
-0.73512929
-0.69254414
-0.64695749
-0.59890769
-0.54908635
-0.49829338
-0.44743667
-0.39731281
-0.34948805
-0.71124547
-0.68853428
-0.67385605
-0.65519168
-0.63369652
-0.60988355
-0.58369801
-0.55508811
-0.52419944
-0.49130996
-0.45678353
-0.42103185
-0.38444592
-0.34734571
-0.30974063
-0.27143968
-0.50169366
-0.48769726
-0.47697991
-0.4654847
-0.45113609
-0.43441718
-0.41588891
-0.39578669
-0.37434061
-0.35186782
-0.32870265
-0.30510427
-0.28116999
-0.25681094
-0.23171506
-0.2034197
-0.16529707
-0.15342184
-0.1434833
-0.13162477
-0.11839085
-0.10380085
-0.088004353
-0.071256226
-0.053919342
-0.036460781
-0.019432405
-0.0034476106
0.010772635
0.022400015
0.031548415
0.040984549
0.05732245
0.065050784
0.072034043
0.0798878
0.088397843
0.097448182
0.10683778
0.11627088
0.12534916
0.13357731
0.14039176
0.14520239
0.14739291
0.14630066
0.14165384
0.13515759
0.26597835
0.27003989
0.27380869
0.27778005
0.28179503
0.28564643
0.28904849
0.29162803
0.29292717
0.29242422
0.28957826
0.28387588
0.27482193
0.26195377
0.24548609
0.22802406
0.43161594
0.43304261
0.43418873
0.43502271
0.43535867
0.43493047
0.43339304
0.4303205
0.42521612
0.41754264
0.40677341
0.39242953
0.37405248
0.35127589
0.32466821
0.29741884
0.53731503
0.53732581
0.53692137
0.53588722
0.53398223
0.53089419
0.52623593
0.51954905
0.51032147
0.49802559
0.48217085
0.46232656
0.43809275
0.40932437
0.37750955
0.3476724
-0.88087388
-0.85347714
-0.83262865
-0.80643254
-0.77739082
-0.7446097
-0.70823443
-0.66827665
-0.62493476
-0.57857734
-0.52975111
-0.4791655
-0.42765533
-0.37622634
-0.32624943
-0.27958516
0.56118601
0.56068007
0.55966002
0.55795289
0.55532538
0.5514842
0.54607453
0.53868304
0.5288505
0.51609873
0.4999735
0.48009632
0.45621373
0.42828941
0.3967903
0.36331618
0.56227802
0.56175835
0.56070802
0.55895224
0.55625462
0.5523195
0.54679156
0.5392606
0.52927569
0.51637304
0.50011727
0.48014901
0.45623662
0.42840234
0.39728055
0.36469331
0.53795858
0.53795178
0.53751922
0.5364449
0.53448492
0.53132478
0.52657606
0.51978128
0.51043297
0.49801351
0.48204747
0.46212073
0.43785477
0.40917255
0.37771472
0.34846778
0.43061297
0.43204971
0.43320793
0.43405154
0.43439195
0.43396041
0.4324095
0.42931163
0.42417013
0.41645232
0.40564185
0.39125542
0.37275021
0.34961045
0.32277061
0.2974394
0.26440143
0.26849971
0.27231045
0.27633062
0.28040149
0.28431556
0.28778673
0.29044143
0.29182166
0.29140895
0.28867305
0.28309063
0.27402019
0.26070569
0.24398299
0.23033178
0.056773399
0.064541574
0.071563503
0.079467854
0.088041554
0.097170613
0.10665653
0.11620639
0.12542486
0.13382104
0.14084018
0.14589459
0.14832279
0.14740415
0.14305363
0.13671758
-0.16461593
-0.15272037
-0.14277556
-0.13090288
-0.11765131
-0.10303998
-0.087218405
-0.070441633
-0.053073921
-0.035585363
-0.018532161
-0.0025379011
0.011635829
0.023063067
0.031772387
0.040903245
-0.50523563
-0.49119406
-0.48043846
-0.4688956
-0.45448567
-0.43768839
-0.41905982
-0.39882973
-0.3772227
-0.35455087
-0.33114369
-0.30725269
-0.28295271
-0.25809861
-0.23209254
-0.20317664
-0.71494351
-0.69217997
-0.67745829
-0.65873428
-0.63716692
-0.61326475
-0.58696969
-0.558228
-0.52718535
-0.49412364
-0.45941631
-0.4234921
-0.38676723
-0.34961893
-0.31212155
-0.27493968
-0.94881228
-0.91820078
-0.89981328
-0.87427425
-0.84560953
-0.81343511
-0.77767495
-0.73832385
-0.69558256
-0.6498275
-0.60161051
-0.55164172
-0.50073865
-0.44983016
-0.39963639
-0.35196222
-1.1341019
-1.0981045
-1.0771268
-1.0462756
-1.0125315
-0.97421512
-0.93142919
-0.88413666
-0.83253839
-0.77704853
-0.71831865
-0.65722419
-0.59481774
-0.53231817
-0.47070223
-0.41227757
-1.26306
-1.2238218
-1.2007729
-1.1662543
-1.129128
-1.0865941
-1.0390184
-0.98627662
-0.92855931
-0.86628499
-0.80014953
-0.73111317
-0.66035178
-0.58919733
-0.51871353
-0.45143014
-1.326635
-1.286337
-1.2618776
-1.2254828
-1.1865594
-1.1417927
-1.0916915
-1.0360546
-0.97507386
-0.90916625
-0.83905119
-0.765741
-0.69049812
-0.61475504
-0.53983008
-0.46835239
-1.3194695
-1.2801743
-1.2550283
-1.2185967
-1.1793785
-1.1343412
-1.0839259
-1.0279304
-0.96656053
-0.9002476
-0.82972889
-0.75603993
-0.68047043
-0.60447141
-0.52951523
-0.45797728
-1.2390563
-1.2025547
-1.1777658
-1.1432112
-1.1054724
-1.0623633
-1.0141416
-0.96066956
-0.90216239
-0.83906631
-0.77211689
-0.70233392
-0.63097168
-0.55940725
-0.48898508
-0.42101903
-1.0848115
-1.0523303
-1.0289927
-0.99804219
-0.96379877
-0.92493459
-0.88160627
-0.83375918
-0.78161114
-0.72559513
-0.66638957
-0.60490982
-0.54225143
-0.47960041
-0.41824459
-0.36055641
-0.70988848
-0.68767518
-0.66883581
-0.64588728
-0.62049551
-0.59188645
-0.56017584
-0.5254161
-0.48778464
-0.44761693
-0.40542717
-0.36191041
-0.31796335
-0.27487871
-0.23428477
-0.19560745
-0.60038348
-0.58294493
-0.5655345
-0.54389176
-0.51967906
-0.49207269
-0.46100507
-0.42653426
-0.38894155
-0.34881305
-0.30705366
-0.26483877
-0.22358607
-0.18507812
-0.1508341
-0.11790264
-0.054068551
-0.050872335
-0.047115927
-0.044500898
-0.044634934
-0.048040391
-0.054411105
-0.063300219
-0.07414665
-0.086100246
-0.098023454
-0.10861242
-0.11654414
-0.12068652
-0.12064918
-0.11582442
-0.083030166
-0.080994
-0.080127086
-0.07986103
-0.0790706
-0.078111286
-0.078471084
-0.081189743
-0.085889426
-0.091270887
-0.096316766
-0.10007423
-0.10152226
-0.099874339
-0.095080878
-0.087533493
-0.10631161
-0.1042288
-0.10273565
-0.10146579
-0.10069933
-0.10077155
-0.10103848
-0.10023115
-0.098095243
-0.09609517
-0.095017058
-0.092756136
-0.087364109
-0.078050556
-0.065303685
-0.050105981
-0.12332842
-0.12174193
-0.12054147
-0.11966791
-0.11914776
-0.11912928
-0.12000587
-0.12254859
-0.12729124
-0.13218198
-0.13117824
-0.12094235
-0.10152631
-0.075444642
-0.047231719
-0.019804537
-0.090725865
-0.090665125
-0.091123951
-0.092221898
-0.094032136
-0.096625314
-0.10006025
-0.10435889
-0.10926936
-0.11386863
-0.11529287
-0.10751119
-0.0876965
-0.055986104
-0.019445976
0.016168825
-0.02319418
-0.02410375
-0.025694114
-0.028033655
-0.031199194
-0.035216692
-0.04000067
-0.045338393
-0.051019425
-0.056854051
-0.061330357
-0.058493558
-0.041917149
-0.014378244
0.017700529
0.051759629
-0.028348956
-0.029231132
-0.030748591
-0.032971746
-0.035976223
-0.039791965
-0.044350044
-0.049478256
-0.055025916
-0.06080627
-0.065123732
-0.061795526
-0.044706112
-0.01683459
0.014266375
0.048363713
-0.096286007
-0.096148754
-0.096526945
-0.097547996
-0.099284217
-0.10180461
-0.10516822
-0.10940334
-0.11423699
-0.11862299
-0.11949719
-0.1107076
-0.089642587
-0.057584837
-0.020190763
0.018332527
-0.12858229
-0.12692558
-0.12567667
-0.12476862
-0.12421919
-0.12417337
-0.12502693
-0.12755931
-0.13222158
-0.13670188
-0.13503182
-0.12407489
-0.10345562
-0.076342518
-0.046791901
-0.017027231
-0.1106821
-0.10854377
-0.10702034
-0.10573637
-0.10497185
-0.10506213
-0.10534099
-0.10451
-0.10233638
-0.10024579
-0.098842476
-0.096009789
-0.089815068
-0.079515601
-0.065684616
-0.049168738
-0.086575575
-0.084505708
-0.083629124
-0.083377202
-0.082609444
-0.08168088
-0.082077286
-0.084810696
-0.089446341
-0.094674588
-0.099471075
-0.10287696
-0.10388072
-0.1017232
-0.096489261
-0.087759651
-0.0571332
-0.053910409
-0.050139143
-0.047527251
-0.047674492
-0.051090245
-0.057461142
-0.066334299
-0.077139643
-0.089015604
-0.10081196
-0.11121291
-0.11888995
-0.12274259
-0.12256755
-0.11711941
-0.28549139
-0.35372886
-0.33403705
-0.31614818
-0.29513779
-0.27167709
-0.24613327
-0.2187934
-0.19020761
-0.16112869
-0.13241552
-0.10510295
-0.080619492
-0.059464464
-0.037066599
-0.28686989
-0.35482053
-0.33518083
-0.31727876
-0.29624883
-0.27276114
-0.2471786
-0.21978393
-0.19112747
-0.16196688
-0.13317656
-0.10580593
-0.081250161
-0.059829536
-0.037786024
-0.16199978
-0.22865709
-0.22916821
-0.22218843
-0.21893751
-0.21698502
-0.21475712
-0.21195726
-0.20849708
-0.20417366
-0.19864247
-0.19141286
-0.18200176
-0.17025412
-0.14954766
-0.15911411
-0.22543376
-0.22592754
-0.2189637
-0.21573731
-0.21382803
-0.21166852
-0.20896809
-0.20564638
-0.20151076
-0.19622899
-0.18932809
-0.1802862
-0.16914338
-0.1526032
-0.20095698
-0.2027721
-0.17389663
-0.17120983
-0.014788675
-0.035801304
0.10300955
-0.033870404
-0.074571798
0.0053205971
0.0074720904
0.01896174
0.018628947
-0.023466018
-0.029911928
6.5055889e-05
0.062426052
-0.06179584
0.011471849
-0.087105926
-0.024008063
-0.11537594
-0.081374969
-0.082253505
-0.08903088
0.065077611
0.020849937
0.02536502
0.040419723
0.0044001448
-0.019907088
-0.083479167
-0.041402319
-0.14640271
0.0055685189
-0.016135056
-0.03962713
-0.060047505
0.053099874
-0.031445397
0.0011606893
0.049251511
-0.038307671
-0.026419463
0.039938688
0.00078368364
0.01830946
-0.14284493
0.017967019
0.13062884
-0.012369657
0.036004173
0.014967775
0.014509541
-0.18703015
0.22898752
0.065036546
-0.032366435
-0.17122262
-0.051656464
-0.034484558
0.0081270488
0.024780045
-0.019573494
-0.01675311
0.014670227
0.013610461
-0.023349075
-0.20171743
-0.019824862
0.0040868906
-0.011299074
-0.037585351
-0.013326001
0.0098294479
-0.072081386
0.014156476
-0.00089580617
-0.0011507538
0.021387924
-0.034997878
0.01023823
-0.0026453926
-0.0030866111
-0.014439872
-0.14971713
-0.15556156
-0.016605953
-0.029565372
-0.044789501
0.023413945
-0.00013479875
-0.16698239
-0.0011075403
-0.024857499
0.0029761966
0.14601126
-0.049850687
0.042625122
0.053092128
6.3645955e-05
0.11609165
-0.18345217
0.058416428
-0.00087327341
-0.027790964
0.0038962246
0.00092813054
-0.026594646
-0.067238224
-0.036832004
-0.00076333786
-0.037712506
-0.15134069
-0.20266885
0.075792508
-0.040093633
0.036158536
-0.090965006
-0.0023028369
0.0878169
0.00084304854
-0.00049525814
0.079436352
0.07356229
-0.040756777
0.056800203
-0.03820296
-0.1246722
0.039870205
-0.015249143
-0.1562456
-0.042592541
0.066186521
-0.047357243
0.037827176
0.0003575286
0.00062655108
0.0030486286
-0.049791109
0.12083635
-5.6445647e-05
-0.18768577
-0.023755146
0.041392175
-0.02894454
-0.077541629
-0.021593574
-0.00021859375
-0.0001136413
-0.021869131
-0.038352265
-0.0083952756
0.012208055
0.01140275
-0.018151936
0.0093388477
0.086682891
-0.0015636696
0.036235361
-0.16329582
-0.016327478
-0.0028096852
0.00090432475
-0.375294
-0.37531342
0.046487781
0.068041756
-0.012524485
-0.00029179528
-0.0088185519
0.011139603
-0.08290061
-0.00014535978
-0.078191348
0.1373208
0.01367112
0.0011247841
-0.01589706
0.045686154
-0.0072345046
-0.00032298083
-0.02093783
-0.015538832
0.014720915
-0.075740789
-0.059317838
0.009816567
0.015956754
0.020033093
0.043530818
0.002378524
0.014680955
-0.032116078
-0.001173195
0.0025108157
-0.093465153
0.071811113
-0.019112253
0.026914089
0.0015368414
0.0063767403
0.0084068768
0.1536964
0.014233392
0.012065882
-0.11229014
-0.0082955631
0.069236403
0.025863182
0.057496059
-0.0029066072
0.085698948
0.00080080137
-0.018525549
-0.011835166
-0.00942387
0.0060084444
-0.00099774123
0.00058544873
-0.0011373485
0.037041344
0.050424824
0.036349158
-0.032639814
-0.041301283
-0.0046725257
-0.00057553067
-0.028866806
0.08578195
0.071102811
-0.00048842663
-0.048967352
0.035135984
0.082943483
0.10271964
-0.0014072831
-0.058235669
-0.10324167
0.0078178516
-0.0047746054
0.040377361
-0.029354272
-0.0011633707
0.0056282276
0.00073905578
0.014668753
-0.058494876
0.098143496
-0.017556791
-0.056130666
0.025808059
0.0024097242
-0.062019159
0.015262894
0.14278315
0.00082252124
0.00062545927
-0.070493779
0.00045550462
0.059563622
0.011821876
-0.0010340062
-0.025843901
-0.032953277
9.7057916e-05
-0.0009543371
-0.0015952243
-0.019702011
-0.0072885851
0.0052388566
-0.039784536
0.0015892542
-0.025792159
0.0004118716
-0.021741752
-0.0087792798
0.06167399
-0.089088359
-0.0025079477
0.089435996
0.07133757
-0.008977278
0.0032260984
-0.010395226
-0.0011321448
0.0055705403
-0.13484106
0.041358418
-0.091185708
0.0028867226
-0.013567106
0.013509227
-0.0067702723
0.014087305
0.053349055
-0.13147164
0.00026117157
0.090368783
-0.041351033
0.0073840885
0.041979231
0.012181604
-0.038287738
0.007358434
-0.1008111
-0.070047933
0.10511869
0.14153666
-0.044417746
0.010964699
-0.0065431558
-0.023002913
0.047670758
-0.10799799
-0.034343365
0.0022364322
-0.038954344
-0.011721551
0.00023957915
0.0088669667
0.0045530344
0.17215599
-0.037471518
-0.1140493
0.055737941
0.00023877338
-0.00087221998
0.0059583386
-0.018770785
-0.11851272
0.0024436368
0.0022777743
-9.0560951e-05
0.22700322
-0.012989023
-0.015425197
0.033765994
-0.042907729
-0.1051653
-0.025179819
0.0014871911
-0.0016745284
0.0047044684
-0.1430344
-0.044376045
0.0030134416
0.079034314
-2.5270314e-05
0.0027789133
-0.13839285
0.0071157372
-0.070150501
0.00060098946
0.0010683618
-0.2043958
0.029807623
0.010352929
-0.022457587
-0.13965618
-0.038806644
-0.00012809487
-0.11181716
0.022468997
0.015220432
0.029599084
0.00044035752
-0.18702182
0.11384259
0.052356218
0.01166927
-0.13895271
0.0016929944
0.063808396
-0.13627481
-0.16353131
0.1501219
-0.0055987062
0.0089840882
0.016708234
0.029624856
-0.057003047
-0.1599027
0.011164722
-0.049835036
0.066408016
0.052333421
-0.021150818
-0.05622501
-0.012845051
-0.029456891
4.0697619e-05
0.0073657849
-0.21397911
0.00038695056
0.013838872
-0.20998246
0.0012722179
0.010573214
-0.026117321
-0.0043999115
0.02922119
0.20873796
-0.040235563
0.00039318197
-0.065344996
0.0054058905
-0.10804797
0.03313986
-0.054518142
-0.019539793
-0.0056074597
0.027403852
0.00078693843
-0.013607119
0.027241334
-0.00093521494
-0.011171473
-0.010534609
0.010647495
0.012073132
-0.00010956705
-0.028958681
0.0013327943
-0.041738396
-0.0018634965
-0.019160466
0.022184555
0.069526026
0.10679153
-0.11311184
0.00076105445
0.056895519
0.0040947102
0.013582501
0.011814512
-0.036162714
-0.038286428
0.064633318
0.0065797785
0.0029748144
-0.1058376
-0.10321167
-0.019169547
-0.15660258
-0.089643845
-0.028627328
0.003087856
-0.11568124
-0.042205372
0.00038420337
0.00018676254
-0.02057459
0.033803607
0.00065028441
-0.080902098
-0.11285615
0.00052540928
-0.058722937
0.0071504836
-0.040870433
-0.0092195631
0.00038202691
0.013444482
0.014798726
0.078410182
0.010486319
-0.030013943
0.0090870937
0.028075241
0.023356711
0.045284296
0.058848018
-0.036499052
0.02124793
-0.00077157695
0.096708743
-0.0090231897
-0.0068436363
-0.036054158
-0.0016178368
-0.00026893913
0.23514871
-0.0026413361
-0.035182561
-0.10059871
-0.049490842
9.7419319e-05
-0.074946197
-0.15768394
0.0024629419
0.038701226
0.021420451
-0.18483052
0.03910987
0.00023876779
-0.058760094
-0.031426934
-0.15392129
-0.036431156
-0.007136508
0.017868271
0.00082183841
-0.015210899
0.020215794
-0.0096219338
0.10056001
0.011086738
0.0098267269
-0.052520794
-0.35980935
-0.026459419
0.00030205543
0.059575306
0.0012710468
-0.0024422884
-0.039696189
-0.020855233
-0.10106627
-0.35971174
-0.0037532491
0.02422706
-0.0035457824
0.029381473
-0.0017750769
-0.028875954
0.017987313
-0.0048799413
-0.18106885
-0.01707514
-0.10807744
0.013199523
-0.14896545
0.069968967
0.012570184
-0.16132004
0.066752184
0.0079627536
-0.20933609
0.063913565
0.01603331
0.016348353
0.026617991
0.023714287
-0.33267287
-0.0536047
-0.12010163
0.00095325653
-0.11679271
0.072878433
0.030296516
0.030009111
0.015561501
-0.046862764
-0.027869435
0.003577312
-0.00022211513
0.060872864
-0.097814449
-0.034421362
0.0056921126
-0.33384775
0.10367453
-0.12798943
-0.050794787
-0.0092259555
-0.15349358
-0.092973198
-0.0017869747
-0.21820169
-0.043897874
-0.015144293
0.024529327
0.026190368
-0.028179705
-0.10124815
-0.13939849
0.065157978
0.099993503
0.093897732
0.016694753
-0.001999812
0.028910451
0.057457148
0.10565055
0.043738323
0.14260782
0.0013624858
0.022596595
0.043748212
0.0013377791
-0.022682301
0.0036505324
0.036959107
0.07048533
0.018075462
-0.21401043
0.023548874
-0.0083517869
0.23468926
0.033238664
-0.00042013619
0.22458411
0.066450735
-0.031480224
-0.034319766
0.062241457
0.22310882
-0.087863674
-0.014466207
0.052865026
-0.0037691034
0.13028557
0.053226421
0.05794697
-0.03818004
1.7162767e-05
0.076058831
0.059096838
0.23359184
0.016026349
0.0017126678
0.023484051
-0.054996414
-0.060144655
-0.039146229
-0.18493587
0.23295883
-0.027481617
-0.00064840456
-0.026001744
0.10785291
0.086758228
-0.10341576
-0.096061329
0.0065152305
0.053296403
-0.1200467
-0.18087387
-0.051893252
-0.083640157
0.012548069
0.011933771
-0.0084632044
-0.023341382
-0.0098356938
0.011563457
-0.023663078
-0.072876916
0.036402373
-0.03511902
-0.010633675
-0.11581843
0.19099173
-0.084195533
0.012905945
-0.00046495606
0.0081689363
0.024159692
-0.028412527
0.21980495
-0.025371145
0.00041190159
0.038452799
-0.00044995151
-0.17806657
-0.0011662302
-0.04807503
0.0015059525
-0.025803554
0.0087370702
-0.11963619
0.098057963
-0.12357499
0.00059846978
0.019759792
-0.077659563
0.075898568
-0.0018787766
0.10492426
-0.024749561
0.27821882
-0.011513304
-0.01891499
-0.17487882
0.1668541
-0.130757
0.00044109055
0.0012113142
0.0028883416
0.0012871857
-0.16918058
0.029732601
0.023693384
0.011949182
-0.31027919
0.0019385547
0.034865598
-0.00086004765
-0.31013845
0.017908965
0.0011054919
-0.086221303
0.00022618033
0.0041244475
0.060183067
-0.044782052
-0.23219302
0.018258455
-0.019715911
6.5860534e-05
-0.00018521666
-0.035477674
-0.050924249
0.027917185
-0.010250579
0.03747287
-0.019043855
0.095370102
-0.22950095
-0.0090993076
-0.024728128
-0.22511076
0.027305938
0.060985139
0.00011884267
-0.043583782
-0.00101567
0.054953136
0.046479435
-0.058269497
0.011363943
0.00047944348
-0.031484477
0.024551502
0.085799658
0.024569875
-0.013151655
0.069736144
0.0022454889
-0.22482962
0.040028518
-0.0084328588
-0.068034783
-0.0056340624
-0.016072021
-0.037711467
-0.0016735378
-0.027506973
-0.044013223
0.0091983951
-0.00028724413
-0.08321671
-0.037345998
-0.03299591
-0.032981079
-0.013663575
-0.1512846
-0.088776738
-0.086736199
0.028313979
-0.082893062
0.10887743
0.0059128198
0.017963784
-0.036857658
0.019765287
-0.13205017
0.0074301303
-0.070874551
-0.14729029
-0.041311161
-0.0092284855
-0.077458071
-0.031354688
-0.016357924
0.0011969581
-0.035848198
0.052874484
-0.0083661344
0.0018144757
0.024738691
0.055478861
-0.04704303
0.10437395
-0.062382622
0.32921614
0.047698679
-0.063367152
-0.020525678
0.00029517352
0.024320782
0.073041122
-0.033938435
0.0014051911
-0.0003871719
0.0080300857
0.030314986
-0.0084797457
0.0012303082
-0.0033666606
-0.00019983094
0.10102588
-0.00076458284
0.047956955
0.070841237
0.060585082
0.055538825
0.045072001
0.022316767
0.00056187405
0.028116618
-0.036813132
-0.015586936
-3.4215126e-06
0.0012629568
0.107089
-0.049895179
-0.10385685
0.015452857
0.062917544
-0.016495913
0.068678669
0.029784357
-0.031663709
0.13096389
0.0018333499
-0.0085145481
-0.014098467
0.00012529871
-8.0465266e-05
-0.0092072429
0.0043981236
0.2311806
-0.0078335951
-0.018119611
0.04073164
0.0029433739
0.0048155626
0.0011177568
-0.00074262891
0.06468402
-0.029143047
-0.02310246
-0.0020851104
0.031235183
0.0074565684
0.015134556
-0.012457673
-0.00035233549
0.00023901658
0.021218423
0.051319945
0.030464584
-0.047980411
0.00027585985
0.0032531091
-0.080884785
0.019120308
-0.0044513159
-0.018126595
0.21455313
-0.044903741
0.21316654
-0.1127117
-0.051922897
0.0065867019
-0.025132612
0.027330875
0.0010744419
0.084031216
0.0041824464
0.053122258
-0.009001283
-0.048157456
-0.063554215
-0.21291214
0.01753593
-0.00083242108
-0.023349574
0.061774197
-0.040236101
0.079551052
-0.037910705
-0.012935598
0.050683256
0.022468894
0.00065088124
0.011011256
-0.0083920406
-0.20941605
0.0050320054
0.32326648
-0.16025701
-0.04813722
0.0062505172
0.1858875
0.025105105
-0.23158479
-0.034950894
0.0012176405
-0.019390296
-0.040341177
-0.19902587
-0.016811052
0.024243553
-0.19587747
-0.038873675
0.045474598
0.0055104785
-0.0075476947
-0.015190349
0.0024942311
0.0051046004
5.4301845e-05
0.025321304
0.0045743542
-0.0011425488
-0.020228107
0.070391419
0.043891567
0.10728874
0.057456673
-0.10682107
-0.15641472
-0.0001365249
-0.059259307
0.007135159
-0.20325913
-0.087666936
-0.036136926
-0.029840177
-0.062534047
0.060943629
-0.036423974
0.00055719649
-0.039215769
-0.0078007149
0.072766906
-0.017169074
0.004692321
0.0040357629
-0.20837971
-0.030289694
0.0027626917
0.00073994075
-0.00017365457
0.031432303
0.017037388
0.29040269
0.0041295097
0.0007311812
-0.0032937411
-0.011827135
-0.19465955
-0.10867848
-0.050819456
-0.05921783
-0.049659316
0.10177918
0.16728814
-0.18223289
0.00014607654
0.074080383
-0.21584306
-0.017477783
0.025698372
-0.15603642
-0.17075345
0.035097483
0.0021032595
0.026208802
-0.00043159462
-0.012829292
-0.059570676
0.058981604
0.12884934
-0.15445284
0.0052902442
0.14525875
-0.0039958445
0.026774264
-0.0098962093
0.088608896
-0.012398489
-0.012103326
0.0053092191
0.00064717208
-0.0090458755
-0.11810689
0.26510577
-0.12988364
-0.12162436
-0.004170784
-0.1096064
0.16738195
-0.10427829
0.071351313
-0.048842034
-0.091513413
0.0015439901
0.01214702
0.013836978
-0.05436698
0.0072303211
-0.15064046
0.027956819
0.047235602
0.11945934
-0.069162587
-0.077444426
0.059970181
-0.019865407
0.0032793978
-0.0056183169
-0.22132683
-0.13433357
-0.023648127
-0.021789284
-0.042815979
0.00189226
0.025704209
0.071568478
0.028201772
-0.14641047
0.0012754998
-0.085234075
-0.0046074843
0.0039550751
0.1227906
0.084720985
0.00040768529
0.059936342
-0.023943765
0.072991827
0.0093069411
-0.017332854
0.03557827
0.16074161
-0.39374548
0.058182909
-0.0027086143
-0.1139719
0.00040337608
-0.39348777
-0.0013341143
0.041438108
-0.073037727
0.0002030348
0.032345266
-0.014781534
0.016925373
-0.16169402
-0.23439409
-0.0055596031
0.00033420952
0.0041246453
-0.0081464281
0.10242469
-0.12425963
-0.10828615
0.082396452
0.001800509
-0.14284307
0.0036428126
0.034522924
0.041770849
-0.12215681
0.0083657841
0.0091307713
-0.030385908
-0.014668384
-0.076267469
-0.00012829439
0.0021570436
-0.19086582
0.010704229
0.0058336102
-0.03220933
-0.0099423393
-0.26829299
-0.0068890383
0.20053098
-0.26519903
0.097364493
-0.12170392
-0.0023937622
0.072652421
-0.0035921249
-0.029095855
-0.35914809
-0.040950689
0.26423142
0.00297072
-0.18682123
-0.11141409
0.028714057
-0.35831317
0.028275317
-0.0045424787
0.11233471
0.0071754074
0.01640465
-0.0018353501
0.082098796
-0.034108828
0.00011963283
-0.0065798857
-0.14306205
5.8370695e-05
0.016730853
-0.040454023
-0.029208013
0.0030936334
0.00053471088
0.038748436
0.33142898
-0.0036167698
0.088235399
-0.065353013
0.056330747
0.020208941
0.022295564
0.20547753
-0.0034040281
0.075280115
0.095210788
-0.058272658
0.081188929
-0.1780485
-0.038527806
-1.591452e-05
0.020662078
-0.0075678169
0.00019347895
-0.020710251
0.0095007002
0.014557561
-0.095060005
0.28985373
-0.099749096
0.055410738
-0.17424526
0.047062796
0.035053478
-0.047322056
0.13259862
0.073537406
0.027770357
0.035741467
-0.0087389807
-0.001974497
0.015935263
-0.018596536
-0.007956499
-0.30844342
-0.30722727
-0.0021366637
-0.020638185
-0.0071678607
0.0012120696
-0.03809602
-0.0031600369
-0.0051530729
-0.11743683
6.9744719e-05
-0.0366191
-0.051108848
-8.1448623e-05
-0.036053249
0.030253268
-0.025707031
0.0016947303
0.01899467
-0.38370332
0.075768173
0.001393426
-0.045045426
0.066495454
-0.061926846
-0.38333288
-0.0012045811
0.0051007585
-0.079348926
0.036799499
-0.0074632985
-0.31244973
-7.7600278e-05
0.1040026
-0.039218488
0.0028171939
-0.00036404664
-0.018106542
-0.30964212
0.083340873
0.0015710397
-0.094858726
-2.5128306e-05
-0.040935328
-0.15723153
0.049209135
0.065073299
-0.0024180727
0.037826666
-0.0039164418
-0.084774022
-0.15339365
0.0069693511
-0.014587327
-0.034567993
-0.067023644
-0.00060369279
0.30947743
-0.00078367198
0.16796422
0.010047555
0.1889687
-0.089208836
-0.086113201
-0.0048620675
0.020387567
0.020716725
0.080776864
-0.043797888
0.00024450956
0.095589225
0.040080725
-0.0031246914
-0.037219652
-0.0029726734
0.071637846
0.03143582
0.00039341751
0.009519463
-0.0068716445
-0.020727124
-0.012421284
0.021202642
0.024687068
-0.04079899
0.0085519196
-0.19998765
0.032196054
0.052117852
0.013818332
-0.023413125
-0.0012497084
-0.00061958412
0.20666431
-0.016603044
-0.020647484
-0.0013123924
0.078092143
0.1276775
-0.1512212
-0.017597562
-0.0036661072
0.091667486
0.27255009
0.0010234231
0.0033470286
0.037026973
-0.0049135621
0.00013810419
0.0043733448
-0.053431695
0.064638434
9.6526748e-05
-0.027326386
-0.066634338
0.020156418
-0.00014811045
-0.038943405
-0.0074147471
-0.0015112263
-0.0015093009
-0.080361804
-0.028401736
-0.21000153
-0.078936927
0.00018008843
-0.0038729597
-0.020691466
0.073991709
0.0752087
0.043736468
-0.10640749
-1.4303182e-05
0.046942284
-0.080762955
-0.20585867
0.050349339
7.3571041e-06
0.039285864
0.007302516
-0.17721363
-0.22978895
0.004132008
0.049623924
0.050756453
-0.0046453552
-0.12166327
0.00016675314
-0.017554782
0.0094077707
0.087423325
-0.093089781
0.054146815
0.088450775
-0.001286782
0.15727221
0.27098463
0.03202377
0.0056073011
-0.12474641
0.067285106
-0.084213267
0.09872496
0.014442016
-0.100042
0.02814063
0.13476164
0.10403943
0.00027873226
-0.00010097381
-0.19944663
-0.0003258018
0.098292201
0.0072991185
0.0054951303
-0.22599817
0.0093150381
0.024073873
0.10390268
-0.26142847
-0.065074185
-0.12029166
-0.094354812
0.16009395
0.00075688176
0.0072223812
-0.040017604
0.048079109
-0.025318071
3.4704314e-05
-0.27681786
-0.0019774797
-0.00068508572
-0.27448267
0.0071919594
-0.27873135
-0.0020666061
-0.0062496156
-0.017062293
0.00059875628
0.02448194
0.081117014
0.0057490517
-2.416316e-05
-0.034818105
-0.0013377325
-0.038355715
0.017115653
-0.0072072963
0.018721106
0.031557699
-0.19535618
-0.27526069
-0.13432936
0.00030796316
-0.0008362709
0.00018825502
0.0069822065
0.00083596635
0.027293609
0.011365951
0.00031694026
0.051808543
0.085526215
-0.036614416
0.1366061
-0.025557443
-0.00436728
-0.18473872
0.044671451
-0.35356999
0.077970053
-0.0011278565
-0.0098898571
0.021245709
-0.040021305
-0.037706402
-0.24036023
-0.0067859269
0.028765356
-0.0028691574
0.056193243
-0.00085697984
0.006601034
-0.00040128788
0.00096868069
0.090516178
-0.011677855
-0.02916273
-0.02444632
0.032918147
-0.044553561
-0.015099166
-0.0011780926
-0.0014516032
-0.010540715
0.21269094
-0.033775506
-0.00054870677
-0.032433799
0.066992362
-0.055118007
-0.089966061
0.050001193
0.043163974
-0.35636715
-0.00017008473
-0.00044067714
0.050406465
-0.0011577328
0.020092016
-0.0038904906
-0.041288122
0.0057539656
0.061084332
0.033173776
0.22469813
-0.15475982
0.0065715516
0.023217965
-0.24166911
-0.24205691
0.21650797
0.056493939
-0.010622656
-0.060827165
-0.0056075564
-0.0018205855
0.084851534
-0.00015626452
0.060363686
0.12275287
-0.0011043414
-0.13092926
0.10437842
-0.050907361
0.00054188163
-0.0021573348
0.02110225
0.056492126
-0.025457889
0.0013303118
0.0049075139
0.0052773676
-0.090026508
-0.14826442
0.0005782206
-0.0023629139
-0.1403738
0.029345449
-0.00074224628
-0.0083198962
0.072189829
-0.093048831
-4.8045655e-05
-0.023008251
0.0026446144
-0.002145875
0.0093272532
-0.055509958
-0.24989933
0.015021124
0.28476798
0.075892019
0.0089016349
0.0078068055
0.067689436
0.00066683082
-0.18149345
0.009532418
-0.18548381
0.019471028
0.019183782
-0.13143855
-0.060595323
-0.041768952
0.033926226
-0.16130916
-0.053112799
0.20756418
0.15239035
-0.018229452
0.31253307
0.03876364
-0.20636971
-0.00089191707
-0.26417403
0.26605834
0.010693432
-0.24625892
-0.21003552
-0.0068803684
-0.0010764659
0.0012704731
0.071827586
0.247857
-0.01809336
-0.063718885
0.01465843
0.029972587
-0.06289317
0.021846227
-0.013375841
0.0045747596
-0.029005936
-0.0066187536
-0.019308179
-0.16379186
0.020668436
-0.03683723
-0.012744685
-0.0042448568
-0.2687395
0.00014082821
-0.042427513
-0.20477785
0.020830166
0.055693892
-0.26789371
-0.0051724882