/*--------------------------------*- C++ -*----------------------------------*\
| =========                 |                                                 |
| \\      /  F ield         | foam-extend: Open Source CFD                    |
|  \\    /   O peration     | Version:     4.1                                |
|   \\  /    A nd           | Web:         http://www.foam-extend.org         |
|    \\/     M anipulation  |                                                 |
\*---------------------------------------------------------------------------*/
FoamFile
{
    version     2.0;
    format      ascii;
    class       surfaceScalarField;
    location    "0.7";
    object      phi;
}
// * * * * * * * * * * * * * * * * * * * * * * * * * * * * * * * * * * * * * //

dimensions      [0 3 -1 0 0 0 0];

internalField   nonuniform List<scalar> 
6703
(
-2.8046696e-05
0.00014575401
-0.00011770731
-5.3140825e-05
0.00017942169
-0.00015432757
-7.6932915e-05
0.00021538632
-0.00019159422
-0.0001048004
0.00025587178
-0.0002280043
-0.00013680736
0.00030330798
-0.00027130102
-0.00017337676
0.00035886669
-0.00032229728
-0.00021495186
0.00042376364
-0.00038218854
-0.00026200274
0.00049939505
-0.00045234417
-0.00031509043
0.00058729725
-0.00053420956
-0.00037490249
0.00068918594
-0.00062937388
-0.000442274
0.00080700415
-0.00073963263
-0.00051820155
0.00094299291
-0.00086706536
-0.00060384731
0.0010998548
-0.0010142091
-0.00070064149
0.0012811167
-0.0011843225
-0.00081029534
0.001491748
-0.0013820941
0.0017384656
-0.0016161482
-0.00093261277
-2.0348934e-05
0.00016610294
-4.0717111e-05
0.00019978987
-6.0758735e-05
0.00023542794
-8.4397894e-05
0.00027951094
-0.00011198296
0.00033089305
-0.00014428252
0.00039116624
-0.00018208584
0.00046156697
-0.0002262537
0.00054356291
-0.00027775465
0.00063879821
-0.00033769982
0.0007491311
-0.00040740202
0.00087670635
-0.00048846782
0.0010240587
-0.00058289432
0.0011942813
-0.00069306409
0.0013912865
-0.0008214062
0.0016200901
0.0018865308
-0.00096947135
-7.6412076e-06
0.00017374415
-1.9830172e-05
0.00021197884
-3.3828096e-05
0.00024942586
-5.0619827e-05
0.00029630268
-7.0536244e-05
0.00035080947
-9.4180292e-05
0.00041481029
-0.00012218408
0.00048957075
-0.000155284
0.00057666283
-0.00019432094
0.00067783515
-0.00024025222
0.00079506238
-0.00029417168
0.00093062582
-0.00035734819
0.0010872352
-0.00043129032
0.0012682235
-0.00051780573
0.0014778019
-0.00061888495
0.0017211693
0.0020041521
-0.00073650627
-2.9125475e-06
0.00017665669
-1.0721552e-05
0.00021978784
-1.8966026e-05
0.00025767034
-2.9171008e-05
0.00030650766
-4.1388281e-05
0.00036302674
-5.6079247e-05
0.00042950125
-7.3680091e-05
0.0005071716
-9.4721548e-05
0.00059770429
-0.00011981439
0.00070292799
-0.00014966147
0.00082490946
-0.00018506854
0.00096603288
-0.00022695297
0.0011291197
-0.00027634268
0.0013176132
-0.00033433136
0.0015357906
-0.00040184059
0.0017886785
0.0020806286
-0.00047831715
1.309959e-06
0.00017534674
-2.6231613e-06
0.00022372096
-5.6554437e-06
0.00026070262
-9.8278653e-06
0.00031068008
-1.4780445e-05
0.00036797932
-2.0827495e-05
0.0004355483
-2.8170801e-05
0.0005145149
-3.7101674e-05
0.00060663516
-4.7961451e-05
0.00071378777
-6.1159405e-05
0.00083810741
-7.7180948e-05
0.00098205442
-9.6595276e-05
0.001148534
-0.0001200561
0.001341074
-0.00014828323
0.0015640177
-0.00018203408
0.0018224294
0.0021226722
-0.00022407765
5.7055091e-06
0.00016964123
6.1298687e-06
0.0002232966
8.2138432e-06
0.00025861864
1.0131214e-05
0.00030876271
1.2474338e-05
0.0003656362
1.5104801e-05
0.00043291784
1.805113e-05
0.00051156857
2.1273709e-05
0.00060341258
2.4713862e-05
0.00071034762
2.8269325e-05
0.00083455195
3.1785983e-05
0.00097853777
3.50469e-05
0.0011452731
3.7762495e-05
0.0013383584
3.9554707e-05
0.0015622255
4.0125801e-05
0.0018218583
0.002123687
3.9110967e-05
1.0339868e-05
0.00015930136
1.5829942e-05
0.00021780653
2.3090454e-05
0.00025135813
3.1381845e-05
0.00030047132
4.1170986e-05
0.00035584706
5.2607242e-05
0.00042148158
6.591731e-05
0.00049825851
8.1324103e-05
0.00058800579
9.9049983e-05
0.00069262174
0.00011930065
0.00081430128
0.00014225516
0.00095558326
0.0001680579
0.0011194703
0.00019682071
0.0013095956
0.00022861549
0.0015304307
0.00026357271
0.001786901
0.0020862697
0.00030099003
1.5053996e-05
0.00014424736
2.6169412e-05
0.00020669111
3.8562184e-05
0.00023896536
5.328572e-05
0.00028574778
7.0550062e-05
0.00033858271
9.0843691e-05
0.00040118795
0.00011457138
0.00047453082
0.00014220155
0.00056037562
0.00017421429
0.00066060899
0.00021109712
0.00077741845
0.00025333219
0.00091334819
0.00030138619
0.0010714163
0.00035570465
0.0012552771
0.00041666829
0.0014694671
0.00048453474
0.0017190346
0.0020118817
0.00055892278
2.0176411e-05
0.00012407095
3.7974665e-05
0.00018889286
5.5884672e-05
0.00022105535
7.7118831e-05
0.00026451362
0.00010184809
0.00031385346
0.00013090532
0.00037213072
0.00016489908
0.00044053705
0.00020452211
0.0005207526
0.00025049311
0.00061463798
0.00030355878
0.00072435279
0.00036448753
0.00085241944
0.00043407514
0.0010018287
0.00051317692
0.0011761753
0.00060276069
0.0013798833
0.00070396349
0.0016178318
0.0018977091
0.0008181361
2.7314352e-05
9.67566e-05
5.329167e-05
0.00016291554
7.8102856e-05
0.00019624417
0.00010644149
0.00023617499
0.00013886568
0.00028142926
0.00017655666
0.00033443975
0.00022041832
0.00039667539
0.00027137984
0.00046979109
0.00033038899
0.00055562883
0.00039842368
0.00065631809
0.00047649769
0.00077434543
0.00056568887
0.00091263754
0.00066722601
0.0010746382
0.00078269664
0.0012644127
0.00091443816
0.0014860903
0.0017448288
0.0010673185
2.9822269e-05
6.6934331e-05
7.0647933e-05
0.00012208987
0.00010943903
0.00015745307
0.00014875355
0.00019686047
0.00019057879
0.00023960403
0.00023720737
0.00028781117
0.00029032287
0.00034355989
0.00035132943
0.00040878453
0.00042151014
0.00048544812
0.00050207972
0.00057574851
0.00059419612
0.00068222903
0.00069898607
0.00080784759
0.00081760448
0.00095601978
0.00095132142
0.0011306957
0.0011013414
0.0013360703
0.0015752747
0.0012708955
5.3349239e-05
1.3585092e-05
0.00010375511
7.1684007e-05
0.00014545722
0.00011575095
0.0001873743
0.0001549434
0.000232707
0.00019427132
0.0002831069
0.00023741127
0.00033978518
0.00028688161
0.00040369781
0.0003448719
0.00047546657
0.00041367936
0.00055534168
0.0004958734
0.00064322025
0.00059435047
0.00073872482
0.00071234302
0.00084136093
0.00085338368
0.00095073813
0.0010213185
0.0010661399
0.0012206685
0.0014538024
0.0011876122
-1.9368872e-06
-0.00011811364
0.00012005052
-1.5011419e-05
-0.00014149687
0.0001545714
-3.9220239e-05
-0.0001683804
0.00019258922
-6.7491816e-05
-0.00020011661
0.00022838818
-0.00010097063
-0.00023736434
0.00027084316
-0.00014048954
-0.00028095752
0.00032047643
-0.00018694845
-0.00033181746
0.00037827637
-0.00024134966
-0.00039095226
0.00044535348
-0.00030467653
-0.00045946685
0.00052279371
-0.00037784409
-0.00053857362
0.00061174119
-0.00046168122
-0.00062961374
0.00071345087
-0.000556912
-0.00073410402
0.00082933479
-0.0006642064
-0.00085382633
0.00096112073
-0.00078455885
-0.00099088878
0.0011112412
-0.00092050336
-0.0011475589
0.0012835035
-0.001326888
0.0014855232
-0.0010791386
-1.8124276e-05
-9.9989359e-05
-4.111905e-05
-0.00011850209
-6.9127839e-05
-0.00014037161
-0.00010299338
-0.00016625106
-0.00014364634
-0.00019671138
-0.0001921821
-0.00023242177
-0.00024986822
-0.00027413133
-0.00031815654
-0.00032266394
-0.00039870445
-0.00037891894
-0.0004933994
-0.00044387868
-0.00060438466
-0.00051862848
-0.00073409141
-0.00060439728
-0.00088529248
-0.00070262525
-0.0010611182
-0.00081506305
-0.0012646705
-0.00094400669
-0.0010927831
-0.0014987754
-2.1308305e-05
-7.8681053e-05
-4.7334704e-05
-9.2475692e-05
-7.8546817e-05
-0.0001091595
-0.00011585281
-0.00012894507
-0.0001603198
-0.00015224439
-0.00021318883
-0.00017955274
-0.00027588857
-0.00021143159
-0.00035004972
-0.0002485028
-0.00043752083
-0.00029144782
-0.00054038811
-0.0003410114
-0.00066100454
-0.00039801205
-0.00080203678
-0.00046336503
-0.00096653512
-0.00053812691
-0.0011580357
-0.00062356252
-0.001380919
-0.00072112329
-0.00083204022
-0.0016416619
-2.1924876e-05
-5.6756177e-05
-4.9180132e-05
-6.5220437e-05
-8.2241399e-05
-7.6098231e-05
-0.00012197439
-8.9212086e-05
-0.00016947182
-0.00010474695
-0.00022602397
-0.00012300059
-0.00029311788
-0.00014433769
-0.00037244323
-0.00016917744
-0.00046590017
-0.00019799089
-0.0005756087
-0.00023130287
-0.00070392311
-0.00026969765
-0.0008534648
-0.00031382333
-0.0010271982
-0.00036439356
-0.0012285217
-0.00042223894
-0.0014609183
-0.00048872669
-0.00056680016
-0.0017261584
-2.4117502e-05
-3.2638675e-05
-5.3416781e-05
-3.5921158e-05
-8.8475584e-05
-4.1039428e-05
-0.00013034449
-4.734318e-05
-0.00018026743
-5.4824013e-05
-0.00023967175
-6.3596275e-05
-0.00031018052
-7.3828907e-05
-0.00039362613
-8.5731841e-05
-0.0004920638
-9.955321e-05
-0.00060778971
-0.00011557696
-0.00074336141
-0.00013412595
-0.00090163302
-0.00015555173
-0.0010857756
-0.00018025096
-0.0012994295
-0.00020858506
-0.0015480046
-0.00024015159
-0.00027228257
-0.0018425222
-7.6420074e-06
0.00017384181
-0.00016619981
-1.9836114e-05
0.00021211551
-0.0001999214
-3.3839592e-05
0.00024960439
-0.00023560091
-5.0637236e-05
0.00029654112
-0.00027974347
-7.0558966e-05
0.00035113447
-0.00033121274
-9.4204859e-05
0.00041524844
-0.00039160255
-0.00012220247
0.00049014702
-0.00046214942
-0.00015528101
0.00057738989
-0.00054431135
-0.00019427209
0.00067869704
-0.00063970596
-0.0002401244
0.00079599338
-0.00075014107
-0.00029393242
0.00093149425
-0.00087768623
-0.00035699032
0.0010878566
-0.0010247987
-0.00043087007
0.0012684392
-0.0011945594
-0.00051745881
0.0014776362
-0.0013910475
-0.00061872825
0.0017209681
-0.0016196986
0.0020043542
-0.0018869027
-0.00073617975
-3.2379507e-05
-2.5916779e-07
-6.8042417e-05
-2.5824845e-07
-0.00010882305
-2.5879877e-07
-0.00015591216
-2.5406163e-07
-0.00021049638
-2.3979499e-07
-0.0002738803
-2.1235689e-07
-0.00034754056
-1.6864919e-07
-0.00043316562
-1.0678174e-07
-0.00053269158
-2.7252182e-08
-0.00064833415
6.5620012e-08
-0.0007826228
1.6270064e-07
-0.00093842537
2.5084482e-07
-0.0011189905
3.1412816e-07
-0.0013279035
3.2796822e-07
-0.0015682834
2.2829673e-07
-1.3276499e-07
-0.0018404332
-3.3016965e-05
3.2757797e-05
-6.9232212e-05
3.5956998e-05
-0.00011057893
4.1087923e-05
-0.00015826628
4.7433285e-05
-0.00021348034
5.4974262e-05
-0.00027751367
6.3820975e-05
-0.00035181995
7.4137629e-05
-0.00043805329
8.6126565e-05
-0.00053810454
0.00010002399
-0.00065413542
0.00011609651
-0.00078861618
0.00013464346
-0.00094434941
0.00015598408
-0.0011244945
0.00018045923
-0.0013324904
0.00020832383
-0.0015714025
0.00023914047
0.0002710699
-0.0018426052
-2.4245113e-05
5.700291e-05
-5.3806775e-05
6.551866e-05
-8.9182668e-05
7.6463817e-05
-0.00013140295
8.9653571e-05
-0.00018169665
0.00010526795
-0.00024147427
0.0001235986
-0.00031233791
0.00014500127
-0.00039609346
0.00016988212
-0.00049476273
0.00019869326
-0.00061059872
0.0002319325
-0.00074610117
0.00027014591
-0.00090404791
0.00031393081
-0.0010875282
0.00036393951
-0.0013001082
0.00042090384
-0.0015468214
0.00048585369
0.00056077998
-0.0018365315
-2.1866703e-05
7.8869612e-05
-4.9066733e-05
9.2718691e-05
-8.2063241e-05
0.00010946032
-0.00012170762
0.00012929795
-0.00016907686
0.00015263719
-0.00022544153
0.00017996327
-0.00029226291
0.00021182265
-0.00037119687
0.00024881608
-0.00046410039
0.00029159677
-0.00057304147
0.00034087358
-0.00070031828
0.00039742272
-0.00084850513
0.00046211766
-0.0010205646
0.00053599902
-0.0012200426
0.00062038184
-0.0014508902
0.00071670125
0.00082528148
-0.0017153917
-2.1168401e-05
0.00010003801
-4.7024608e-05
0.0001185749
-7.8025337e-05
0.00014046105
-0.0001150676
0.00016634021
-0.00015920521
0.0001967748
-0.00021166282
0.00023242088
-0.00027384963
0.00027400946
-0.0003473749
0.00032234136
-0.00043406766
0.00037828952
-0.00053600609
0.00044281202
-0.00065556794
0.00051698457
-0.00079551501
0.00060206473
-0.0009591026
0.00069958661
-0.00115022
0.00081149923
-0.0013743161
0.00094079739
0.0010941029
-0.0016431376
-1.8045349e-05
0.00011808336
-4.0936396e-05
0.00014146595
-6.8812401e-05
0.00016833706
-0.00010251229
0.0002000401
-0.00014296346
0.00023722598
-0.00019125989
0.0002807173
-0.00024867259
0.00033142216
-0.0003166675
0.00039033627
-0.00039693707
0.00045855909
-0.00049144233
0.00053731728
-0.0006024667
0.00062800895
-0.00073269125
0.00073228928
-0.0008853281
0.00085222346
-0.0010642758
0.00099044688
-0.0012733921
0.0011499138
0.00133289
-0.0015121792
-1.8258028e-06
0.00011990917
-1.4832239e-05
0.00015447238
-3.9001754e-05
0.00019250657
-6.7222244e-05
0.00022826059
-0.00010064684
0.00027065058
-0.00014011347
0.00032018393
-0.00018653097
0.00037783966
-0.00024091747
0.00044472277
-0.0003042862
0.00052192782
-0.00037759969
0.00061063076
-0.00046175658
0.00071216584
-0.0005575616
0.00082809429
-0.00066570776
0.00096036962
-0.00078691056
0.0011116497
-0.00092260451
0.0012856077
0.0014877384
-0.0010774529
5.3355608e-05
-6.7048112e-05
1.3692504e-05
0.0001037641
-0.00012227288
7.1864384e-05
0.00014543952
-0.00015767173
0.00011599631
0.00018731785
-0.00019713486
0.00015525653
0.00023260019
-0.00023995266
0.00019467033
0.00028293297
-0.00028825945
0.00023792667
0.00033951799
-0.00034413655
0.00028755152
0.00040329668
-0.00040951502
0.00034573633
0.00047486975
-0.00048634335
0.00041477028
0.00055445829
-0.00057678637
0.00049719783
0.00064192163
-0.00068332909
0.00059586575
0.00073683575
-0.00080884326
0.00071392914
0.00083864459
-0.00095663349
0.00085482465
0.00094678574
-0.0011305167
0.0010223756
0.0010600354
-0.0013342568
0.0012210072
-0.0015715868
0.0014490889
0.0011825333
2.9820087e-05
-9.6868199e-05
7.0642518e-05
-0.00016309531
0.00010942676
-0.00019645597
0.00014873566
-0.00023644376
0.00019055945
-0.00028177645
0.0002371911
-0.0003348911
0.00029031181
-0.00039725726
0.00035132092
-0.00047052413
0.00042149427
-0.0005565167
0.00050203821
-0.00065733031
0.00059410821
-0.00077539909
0.00069885457
-0.00091358962
0.00081753289
-0.0010753118
0.00095171409
-0.0012646979
0.0011034821
-0.0014860248
-0.0017460427
0.0012779379
2.7312691e-05
-0.00012418089
5.3286305e-05
-0.00018906892
7.8095454e-05
-0.00022126512
0.00010643667
-0.00026478497
0.00013886751
-0.0003142073
0.00017656845
-0.00037259204
0.00022044159
-0.00044113039
0.0002714121
-0.00052149465
0.0003304208
-0.0006155254
0.00039843559
-0.00072534511
0.00047645999
-0.00085342348
0.00056556961
-0.0010026992
0.00066701305
-0.0011767552
0.00078241476
-0.0013800996
0.00091407063
-0.0016176807
-0.0018980184
0.0010660464
2.0174654e-05
-0.00014435554
3.7968048e-05
-0.00020686232
5.5874627e-05
-0.0002391717
7.7106751e-05
-0.00028601709
0.00010183535
-0.0003389359
0.00013089247
-0.00040164916
0.00016488516
-0.00047512308
0.00020450241
-0.0005611119
0.00025045631
-0.0006614793
0.00030348373
-0.00077837252
0.00036434264
-0.0009142824
0.00043382621
-0.0010721828
0.00051281235
-0.0012557414
0.0006023337
-0.001469621
0.00070368367
-0.0017190306
-0.0020128025
0.00081846774
1.5049341e-05
-0.00015940488
2.6156334e-05
-0.00021796931
3.8541784e-05
-0.00025155715
5.3256926e-05
-0.00030073224
7.0512681e-05
-0.00035619165
9.0796559e-05
-0.00042193304
0.0001145118
-0.00049883833
0.00014212335
-0.00058872344
0.0001741049
-0.00069346086
0.00021093422
-0.00081520184
0.00025308172
-0.00095642989
0.00030100569
-0.0011201068
0.00035515514
-0.0013098908
0.00041592246
-0.0015303883
0.00048358073
-0.0017866889
-0.0020866847
0.00055746293
1.0335468e-05
-0.00016974035
1.5816354e-05
-0.0002234502
2.3068741e-05
-0.00025880954
3.1350286e-05
-0.00030901378
4.1129185e-05
-0.00036597055
5.255422e-05
-0.00043335807
6.5851163e-05
-0.00051213527
8.1240556e-05
-0.00060411283
9.8940223e-05
-0.00071116053
0.00011914879
-0.0008354104
0.00014203679
-0.00097931789
0.00016774305
-0.001145813
0.00019638419
-0.001338532
0.00022805165
-0.0015620558
0.00026294018
-0.0018215774
-0.0021239653
0.00030022079
5.7034644e-06
-0.00017544382
6.120596e-06
-0.00022386733
8.1987914e-06
-0.00026088773
1.0109459e-05
-0.00031092445
1.2446257e-05
-0.00036830735
1.5071073e-05
-0.00043598289
1.8012398e-05
-0.0005150766
2.1230021e-05
-0.00060733046
2.4663429e-05
-0.00071459394
2.8206996e-05
-0.00083895397
3.1702009e-05
-0.00098281291
3.4927767e-05
-0.0011490388
3.7595908e-05
-0.0013412001
3.9342132e-05
-0.001563802
3.9914202e-05
-0.0018221495
-0.0021228229
3.8771814e-05
1.3101194e-06
-0.00017675394
-2.6280932e-06
-0.00021992912
-5.6637582e-06
-0.00025785207
-9.8394806e-06
-0.00030674873
-1.4794104e-05
-0.00036335272
-2.084051e-05
-0.00042993648
-2.8179117e-05
-0.00050773799
-3.7099383e-05
-0.00059841019
-4.7941046e-05
-0.00070375227
-6.1112731e-05
-0.00082578229
-7.7101708e-05
-0.00096682393
-9.6482837e-05
-0.0011296577
-0.00011991763
-0.0013177653
-0.00014812148
-0.0015355981
-0.00018180625
-0.0017884647
-0.0020808183
-0.0002238109
-2.9121242e-06
-1.072573e-05
-1.8973403e-05
-2.9181013e-05
-4.1399265e-05
-5.6087305e-05
-7.367827e-05
-9.4698567e-05
-0.0001197538
-0.0001495427
-0.00018487238
-0.00022667342
-0.00027599956
-0.0003339615
-0.00040145815
-0.00047792227
-2.0326763e-05
-0.00014587304
-4.0699788e-05
-0.00017954838
-6.0762516e-05
-0.00021553819
-8.4423461e-05
-0.00025608253
-0.00011203311
-0.0003036031
-0.00014435666
-0.000359279
-0.00018217645
-0.00042432962
-0.00022634059
-0.00050014722
-0.00027779845
-0.0005882481
-0.00033763766
-0.00069030186
-0.00040715597
-0.00080816792
-0.00048798426
-0.00094397043
-0.00058223135
-0.0011003123
-0.00069250482
-0.001280774
-0.00082155808
-0.0014906454
-0.0017369442
-0.00097151657
-2.8019978e-05
-0.00011785306
-5.3144766e-05
-0.00015442359
-7.7002021e-05
-0.00019168093
-0.00010494858
-0.00022813597
-0.00013705207
-0.00027149961
-0.00017373275
-0.00032259832
-0.00021542558
-0.00038263678
-0.00026258393
-0.00045298887
-0.00031574225
-0.00053508977
-0.00037555185
-0.00063049227
-0.00044281441
-0.00074090536
-0.00051853372
-0.00086825112
-0.00060399446
-0.0010148516
-0.0007009179
-0.0011838506
-0.00081108617
-0.0013804771
-0.0016149691
-0.00093306123
3.2909093e-05
-2.1575202e-05
-1.1333891e-05
0.00010582465
-1.9847172e-06
-7.0930843e-05
0.00019223424
2.6343875e-05
-0.00011275347
0.00028428815
5.8021525e-05
-0.00015007544
0.0003753648
9.6453139e-05
-0.00018752978
0.00046343655
0.00014007225
-0.00022814401
0.00054870921
0.00018885041
-0.00027412307
0.00063156238
0.00024456593
-0.0003274191
0.0007125861
0.00030901138
-0.00039003509
0.0007927808
0.0003840198
-0.0004642145
0.00087356075
0.00047175017
-0.00055253012
0.00095670034
0.00057476637
-0.00065790595
0.0010444401
0.00069583694
-0.0007835767
0.0011396052
0.00083790621
-0.00093307128
0.001245522
0.001004316
-0.0011102328
0.001198671
-0.0013191209
0.0013659718
1.6202728e-05
-3.777793e-05
5.5240087e-05
-4.1022076e-05
0.00011575818
-3.4174217e-05
0.00019669728
-2.2917573e-05
0.0002998347
-6.6842825e-06
0.00041870633
2.120062e-05
0.00054558356
6.1973181e-05
0.00067442576
0.00011572373
0.00080161223
0.00018182491
0.00092791142
0.00025772061
0.0010540089
0.00034565267
0.0011817866
0.00044698867
0.0013151762
0.0005624473
0.001460469
0.00069261347
0.0016264538
0.00083833117
0.0010008934
0.0018242315
4.5691943e-06
-4.2347124e-05
8.5854274e-06
-4.5038309e-05
2.3712944e-05
-4.9301733e-05
5.5257623e-05
-5.4462252e-05
0.00010875536
-6.0182022e-05
0.00018798279
-5.8026805e-05
0.00029532239
-4.5366418e-05
0.00043240146
-2.1355343e-05
0.00059355002
2.0676349e-05
0.00076220729
8.9063333e-05
0.00092678984
0.00018107012
0.0010880051
0.00028577339
0.0012486747
0.00040177776
0.0014156724
0.00052561571
0.0015985701
0.00065543346
0.00079079531
0.0018086682
4.6728993e-06
-4.7020024e-05
9.4383475e-06
-4.9803757e-05
1.5240971e-05
-5.5104356e-05
2.2288321e-05
-6.1509602e-05
3.0480157e-05
-6.8373858e-05
4.756179e-05
-7.5108438e-05
8.3114234e-05
-8.0918862e-05
0.00014681608
-8.5057193e-05
0.00024726111
-7.9768676e-05
0.00038416188
-4.7837438e-05
0.00054543461
1.9797391e-05
0.00070165402
0.00012955398
0.00086508482
0.00023834696
0.0010525684
0.00033813209
0.0012673451
0.0004406568
0.00054144263
0.0015166978
-2.8490265e-06
-4.4170997e-05
-9.9684807e-06
-4.2684303e-05
-2.0565884e-05
-4.4506954e-05
-3.4710502e-05
-4.7364984e-05
-5.2495387e-05
-5.0588972e-05
-7.3889189e-05
-5.3714636e-05
-9.8577829e-05
-5.6230223e-05
-0.0001262389
-5.7396123e-05
-0.00014979611
-5.6211463e-05
-0.00014543615
-5.21974e-05
-7.9386535e-05
-4.6252224e-05
6.1368385e-05
-1.1200944e-05
0.00022567589
7.4039455e-05
0.00041658881
0.00014721916
0.00064744649
0.00020979913
0.00027070608
0.00091818304
-4.520556e-05
1.0345627e-06
-8.9110835e-05
1.2209721e-06
-0.00013500914
1.3913535e-06
-0.00018390943
1.5353031e-06
-0.00023612822
1.629814e-06
-0.00029148404
1.6411921e-06
-0.00034923798
1.5237114e-06
-0.00040785356
1.2194636e-06
-0.00046472967
6.646416e-07
-0.00051672595
-2.0111915e-07
-0.00056148858
-1.4895958e-06
-0.00056935374
-3.335783e-06
-0.00048967636
-5.6379249e-06
-0.00033485881
-7.5983876e-06
-0.00011924659
-5.8130958e-06
3.2666725e-06
0.00014819282
-4.3766482e-05
4.4801045e-05
-8.6342642e-05
4.3797132e-05
-0.00013079679
4.5845498e-05
-0.00017809152
4.8830036e-05
-0.00022854922
5.2087518e-05
-0.00028203072
5.5122685e-05
-0.00033786962
5.7362618e-05
-0.00039461259
5.7962432e-05
-0.00044977448
5.5826528e-05
-0.00050048768
5.0512084e-05
-0.00054393797
4.1960689e-05
-0.00054553144
-1.7423059e-06
-0.000461977
-8.9192364e-05
-0.00030335601
-0.00016621938
-7.0691363e-05
-0.00023847775
-0.00031767441
0.00025024972
-2.887861e-06
4.7688906e-05
-9.6726959e-06
5.0581967e-05
-1.9703625e-05
5.5876428e-05
-3.3094595e-05
6.2221006e-05
-4.9975055e-05
6.8967978e-05
-7.0357422e-05
7.5505052e-05
-9.399919e-05
8.1004386e-05
-0.00012070754
8.467078e-05
-0.00014257682
7.7695806e-05
-0.00013529341
4.322868e-05
-6.5935396e-05
-2.7397327e-05
7.2054705e-05
-0.00013973241
0.0002291589
-0.00024629656
0.00041144147
-0.00034850194
0.00062513174
-0.00045216801
-0.00055054541
0.00085800274
4.8985237e-06
4.2790382e-05
9.935081e-06
4.554541e-05
1.6029055e-05
4.9782454e-05
2.3374046e-05
5.4876015e-05
3.18518e-05
6.0490225e-05
4.9338486e-05
5.8018366e-05
8.5446006e-05
4.4896866e-05
0.00014990093
2.0215852e-05
0.00025074039
-2.314365e-05
0.00038704074
-9.307167e-05
0.00054545134
-0.00018580793
0.00069696643
-0.0002912475
0.00085823297
-0.0004075631
0.0010409796
-0.00053124858
0.0012489668
-0.00066015521
-0.00079248857
0.00149091
4.7842702e-06
3.8006112e-05
9.0583719e-06
4.1271308e-05
2.4486595e-05
3.4354231e-05
5.6385004e-05
2.2977605e-05
0.00011030358
6.5716466e-06
0.00018994175
-2.1619806e-05
0.00029764634
-6.2807721e-05
0.00043499937
-0.00011713718
0.00059551795
-0.00018366223
0.0007624957
-0.00026004942
0.00092514802
-0.00034846025
0.0010840576
-0.00045015711
0.0012422204
-0.00056572589
0.0014065014
-0.00069552959
0.0015865343
-0.00084018807
-0.0010008399
0.0017948856
1.6398633e-05
2.1607479e-05
5.5704901e-05
1.96504e-06
0.00011650705
-2.6447916e-05
0.0001977202
-5.8235549e-05
0.0003011153
-9.6823448e-05
0.00042009041
-0.00014059492
0.00054684634
-0.00018956366
0.00067522541
-0.00024551625
0.00080180488
-0.00031024169
0.00092731491
-0.00038555946
0.001052449
-0.00047359433
0.001179127
-0.00057683512
0.0013113395
-0.00069793844
0.0014555273
-0.00083971732
0.0016207167
-0.0010053774
-0.0011974953
0.0018173721
3.3042511e-05
-1.1435032e-05
0.00010611968
-7.1112124e-05
0.00019266886
-0.0001129971
0.0002848199
-0.00015038659
0.00037592364
-0.00018792718
0.00046398736
-0.00022865864
0.00054921807
-0.00027479437
0.00063199183
-0.00032829001
0.0007128938
-0.00039114366
0.00079291326
-0.00046557892
0.00087344619
-0.00055412726
0.00095625825
-0.00065964718
0.001043611
-0.00078529115
0.0011384266
-0.00093453298
0.001244312
-0.0011112628
-0.0013206466
0.0013674633
2.3466709e-06
-2.2018557e-06
3.2590208e-06
3.5153085e-06
2.8648664e-06
7.5151247e-07
-3.5973726e-06
-1.1218772e-05
-2.3500514e-05
-4.2243629e-05
-6.9710421e-05
-0.00010868149
-0.00016252095
-0.00023519378
-0.00033168015
-0.00046008995
2.3452651e-06
-2.1974584e-06
3.2535542e-06
3.5057702e-06
2.8493182e-06
7.27426e-07
-3.6329855e-06
-1.1268379e-05
-2.3564444e-05
-4.2315525e-05
-6.9770007e-05
-0.00010868633
-0.0001624172
-0.00023502652
-0.00033200017
-0.00046144607
3.0097325e-06
-2.2574718e-06
6.0089398e-06
1.0878875e-05
1.7622025e-05
2.6890055e-05
3.9647209e-05
5.7093527e-05
8.072015e-05
0.00011233907
0.00015407756
0.00020835952
0.00027789303
0.0003657356
0.00047547995
0.0006039222
3.0043649e-06
-2.2512006e-06
6.001849e-06
1.0869809e-05
1.7611352e-05
2.687861e-05
3.9637148e-05
5.708995e-05
8.0734223e-05
0.00011239312
0.00015421347
0.00020865053
0.00027845751
0.00036670474
0.00047714046
0.00061182193
0.0014820651
-0.0035293936
0.0020473285
0.0085056479
-0.0088192919
0.000313644
0.0012393116
-0.0032283207
0.0019890091
0.0085056479
-0.0022413927
0.00029624811
0.0019451446
-0.0081652367
0.0050128587
0.003152378
-0.0011331015
0.0044050152
-0.0032719138
0.0077646953
0.0029364283
-0.010701124
0.0080782292
0.0020102303
-0.010088459
0.0012755117
-0.0017356016
-0.0019501772
0.0014887312
0.0034832555
0.0064558874
-0.0099391429
-0.0036098315
-0.0038635535
0.0074733849
-0.0076328283
0.0034482696
0.0041845587
-0.0016576489
0.004021331
-0.0023636821
0.0036548955
-0.00020024827
-0.0034546472
0.0073468156
-0.007592443
0.00024562738
0.00050451265
0.0017154186
-0.0022199312
0.0012216046
-0.0017255079
0.00050390327
0.0062687627
-0.0022740097
-0.003994753
-0.0010922205
-0.0011491722
-0.0076996447
0.0040898132
-0.0094788613
0.0093904019
8.8459457e-05
0.00072756049
0.0085229017
-0.0092504622
3.4117524e-05
-0.0056637664
0.0056296489
0.0045636016
0.0012227233
-0.0057863249
-0.0040463374
-0.0059905889
0.010036926
0.0063749705
-0.0021033662
-0.0042716043
0.0013922541
0.006442319
-0.0078345731
-0.0023034209
0.0055804503
-0.0032770294
0.0066680881
-0.0021044864
0.0020249018
-0.0014499704
-0.00057493143
-0.00018661618
0.0083925228
-0.0082059066
0.006384717
5.137072e-05
-0.0064360877
0.0010449829
-0.0061302037
0.0050852208
0.0088123063
-0.0074520764
-0.0013602299
0.0076577518
-0.0080984082
0.00044065635
-0.0048040567
0.0058490396
0.0055994344
-0.0032718242
-0.0023276101
-0.0086421373
0.0016810743
0.006961063
0.0025757133
-0.0038558217
0.0012801084
0.0099793475
-0.0043151511
-0.0056641964
0.0077646953
-0.0023286311
0.0056227001
-0.0032940691
0.0080782292
-0.00087153098
0.0037401031
-0.0028685721
-0.0019390296
0.0066102602
-0.0046712305
-0.0098021914
0.004164671
0.0056375204
-0.0077646953
0.011655143
-0.0038904479
-0.0080782292
0.011756872
-0.003678643
0.0031852581
-0.00052632677
-0.0026589313
-0.0039116689
0.0017493182
0.0021623507
0.0014372369
-0.0027016515
0.0012644146
0.00097190552
0.0011629563
-0.0021348619
-0.0031236063
0.0056983492
-0.0025747429
0.00058691113
0.0055382986
-0.0061252098
0.00096990469
-0.0019115368
0.00094163213
-0.0054929497
0.0034975652
0.0019953844
-0.010521139
0.0011474428
0.0093736959
0.008516262
-0.0031185409
-0.0053977211
0.007812784
0.00070347795
0.0055326937
0.0040962137
-0.0096289075
0.0051799581
0.0043596954
-0.0095396535
-0.0024364437
0.0050392563
-0.0026028126
0.00074135655
-0.004030697
0.0032893404
-0.0066333111
0.0069041208
-0.00027080973
0.0042807636
-0.0078772198
0.0035964561
0.0045312268
0.0018424483
-0.0063736751
-0.0010538995
0.0062175793
-0.0051636798
-0.0091098922
0.0071708626
-0.0025503147
0.0068475459
-0.0042972311
0.0018073107
0.0018475848
-0.0047371575
0.004265391
0.00047176646
0.0048386721
0.0062243431
-0.011063015
0.0087236987
-0.0080691255
-0.00065457318
0.00052113866
-0.0028880093
0.0049526414
-0.0020646321
0.0067674034
-0.0032042216
-0.0035631818
0.009756478
-0.0088061966
-0.0009502814
0.0077144202
-0.0068575856
-0.00085683459
0.0028477155
-0.0040256633
0.0011779478
-0.0022989766
0.00091563876
0.0013833378
0.0013547114
-0.0036581324
-0.011990524
0.0084877914
0.0035027326
0.0023441688
0.0050026468
0.0024650753
-0.0091293436
0.0066642682
-0.0044985339
0.0076018074
-0.0031032734
-0.0010065261
-0.0060070345
0.0070135606
0.0029149539
-0.0021887851
-0.00072616888
0.00048939847
0.0082343003
0.0054264757
0.00010402165
-0.0055304974
-0.0076381783
0.0030380487
0.0046001295
0.00053143547
0.0036676602
-0.0041990957
0.0031770082
0.0024224261
0.0044040059
0.0024296103
-0.0068336162
0.0045922218
-0.0017483049
-0.0028439169
-0.004677517
-0.0053186749
0.0030810336
-0.0018417219
-0.00079882643
-0.0015397879
0.0023386143
-0.0028964135
0.0056624278
-0.0027660143
-0.0030272737
0.0078659458
-0.0057439514
0.0075966874
-0.001852736
-0.0059739338
-0.0016642445
-5.0338141e-05
0.00770809
0.00820948
-0.0076353376
-0.00057414243
-0.0051024588
-0.0025303695
-0.011252286
0.0074443021
0.003807984
-0.011829659
0.0085901693
0.0032394899
0.0057518777
-0.0025724415
-0.0031794362
0.0013734561
-0.0037020872
0.0020759101
-0.0051995163
4.203268e-05
0.0042407858
-0.0042828185
0.00311141
-0.0041653095
-0.0016949404
0.0042706538
0.00188761
0.0043811527
0.0065460697
0.0032104084
0.003873923
-0.0038318903
0.002960124
0.0071041622
-0.010064286
0.0098643124
-0.0056314107
-0.0042329017
-0.0021985436
0.0048109996
-0.002612456
-6.7103798e-05
0.0015043407
0.0020571709
-0.0010852654
0.0010031587
0.00080886571
-0.0018120244
0.010936494
-0.011123111
0.0008855268
0.00044201631
-0.0013275431
0.0012877382
-0.00036955517
-0.0075102648
0.0080682701
-0.0005580053
-0.0021002177
0.0013844965
0.00071572118
0.0038829406
-0.0037030854
-0.0001798552
-0.005630114
0.0051335994
0.00049651462
0.0019332882
-0.00096338356
-0.00047224932
0.0041487977
-0.0036765484
-0.0046880965
0.0085100026
-0.0038219061
0.0034748825
0.006504465
0.0076887651
-0.0034080015
0.0034132846
0.0023385931
-0.0035590011
0.0026874701
0.0063763624
-0.0073828885
-0.0031154612
0.0023166348
0.005633148
0.002576332
0.005258739
-0.010818241
0.0055595021
0.0030683549
0.0016818115
-0.0013855634
-0.0031581948
0.0046402599
0.0078027225
-0.0078027225
-0.0022057141
-0.0013621321
0.0067886078
0.00090785857
-0.0037958678
-0.00040344613
0.0063222375
-0.0059187913
-0.0040763383
0.009609032
-0.0042561574
0.0094361155
0.0083671876
-0.0048500011
-0.0035171864
0.0042170886
0.0030552029
-0.0052537465
0.0058171985