/*--------------------------------*- C++ -*----------------------------------*\
| =========                 |                                                 |
| \\      /  F ield         | foam-extend: Open Source CFD                    |
|  \\    /   O peration     | Version:     4.1                                |
|   \\  /    A nd           | Web:         http://www.foam-extend.org         |
|    \\/     M anipulation  |                                                 |
\*---------------------------------------------------------------------------*/
FoamFile
{
    version     2.0;
    format      ascii;
    class       volVectorField;
    location    "0.7";
    object      U;
}
// * * * * * * * * * * * * * * * * * * * * * * * * * * * * * * * * * * * * * //

dimensions      [0 1 -1 0 0 0 0];

internalField   nonuniform List<vector> 
4242
(
(1.0874214 1.1141895 1.0532467e-18)
(1.187902 0.9775878 3.5923127e-21)
(1.1549943 0.97397563 -6.6528075e-19)
(1.15718 0.94444288 5.5064548e-19)
(1.150288 0.92006757 7.2925271e-21)
(1.1443258 0.89100841 3.2505071e-21)
(1.1376462 0.8585399 0)
(1.1302388 0.82255113 1.8887951e-19)
(1.1221275 0.7829675 -3.0102435e-19)
(1.1133893 0.73984045 1.1568554e-19)
(1.1042132 0.69339413 -7.3628043e-20)
(1.0948922 0.64406207 6.0168763e-20)
(1.0858802 0.59246205 5.8344097e-21)
(1.0781956 0.53909483 -7.8113123e-21)
(1.0735457 0.48464788 -1.5198351e-20)
(1.0711286 0.43305823 0)
(1.2554846 1.033453 0)
(1.3729601 0.85045585 -7.8940257e-21)
(1.3293976 0.86381111 7.8011935e-19)
(1.3267422 0.8366978 -6.425542e-19)
(1.3147217 0.81639285 -1.1525492e-20)
(1.3036651 0.79111686 3.8043618e-19)
(1.2914338 0.76326466 -1.7870572e-20)
(1.2782545 0.73239486 -4.6384207e-19)
(1.264155 0.69846078 3.6175928e-20)
(1.2491917 0.66152253 1.3655343e-19)
(1.2334946 0.62176931 0)
(1.2172686 0.57955959 -9.9112331e-21)
(1.2008418 0.5354229 -1.0076344e-20)
(1.184934 0.4898028 -5.4491627e-20)
(1.170674 0.44307765 7.0321217e-20)
(1.1570733 0.39757661 8.7256859e-21)
(1.4245533 0.94609274 -2.1703211e-20)
(1.5661571 0.69765095 -2.4576783e-18)
(1.5094867 0.74056193 1.0013577e-18)
(1.5037918 0.71321383 -6.8904055e-21)
(1.4866057 0.69797864 -6.086506e-19)
(1.4700744 0.67722126 4.9468086e-19)
(1.4516038 0.65461709 -6.7149419e-21)
(1.4315869 0.62929866 1.0362066e-20)
(1.4100353 0.60127865 -4.5944928e-21)
(1.3870611 0.57058628 -1.1875226e-20)
(1.3628797 0.53736663 1.1919703e-19)
(1.3378134 0.50191667 -8.5802758e-20)
(1.3123028 0.46470723 -1.3108801e-19)
(1.2869553 0.42629596 1.0956127e-19)
(1.2623969 0.38747727 -1.3188415e-20)
(1.2390576 0.34915894 -3.5384849e-20)
(1.5748635 0.82489055 -3.9521042e-21)
(1.7356781 0.49801084 -3.1648204e-21)
(1.6676524 0.5790337 -6.0230598e-19)
(1.6609467 0.54709241 5.0746953e-19)
(1.6394256 0.53873949 -6.5080606e-21)
(1.6184147 0.5235156 3.078823e-19)
(1.5946883 0.50750952 -2.3040738e-19)
(1.5687511 0.4893028 -3.6256879e-19)
(1.5405597 0.46903957 2.0967588e-20)
(1.5102531 0.44669742 4.367703e-19)
(1.4781087 0.42236231 -1.6470607e-19)
(1.4445633 0.39623441 0)
(1.4102183 0.36864234 9.1571755e-21)
(1.3757612 0.34008338 -6.6961478e-20)
(1.3415154 0.31170228 3.1961514e-20)
(1.3074869 0.28349435 -6.1701405e-20)
(1.6734984 0.66789598 3.9521043e-21)
(1.8458349 0.25561882 -8.5277964e-19)
(1.7706084 0.38189695 7.0770965e-19)
(1.7642223 0.34099134 -4.0971797e-21)
(1.7399469 0.34210388 1.0118693e-20)
(1.7164658 0.33290568 -2.8427231e-21)
(1.6897239 0.32460063 -2.8119951e-19)
(1.6603483 0.31479181 6.1447344e-21)
(1.6282315 0.3038615 1.591553e-19)
(1.5935093 0.29170752 -1.1840036e-19)
(1.5564691 0.27834418 9.5571054e-20)
(1.5175848 0.26384179 0)
(1.4775245 0.24832762 5.1549528e-20)
(1.4370702 0.23197076 -3.5971317e-20)
(1.3966854 0.21525088 1.072534e-20)
(1.3567632 0.19602577 0)
(1.7106066 0.48195698 -5.6689716e-19)
(1.8816022 -0.0029126602 2.3942321e-19)
(1.8095726 0.16229217 3.721301e-19)
(1.8021396 0.11433122 -2.9862887e-19)
(1.7775515 0.12547383 6.2299785e-22)
(1.7535357 0.12260793 9.8842213e-20)
(1.7261817 0.12250359 7.6320779e-20)
(1.6960729 0.12169862 -3.2268456e-21)
(1.6630841 0.12081021 -2.883129e-21)
(1.6273311 0.11966107 -9.7937097e-20)
(1.5890808 0.11819697 9.8473999e-20)
(1.5487896 0.11635095 -3.5252734e-21)
(1.5071112 0.11405924 -9.0932373e-21)
(1.4648372 0.11120035 -1.944257e-20)
(1.4224381 0.10836783 -1.2370922e-23)
(1.3808154 0.10160532 7.897979e-21)
(1.6810971 0.28417089 -2.8308218e-19)
(1.8411229 -0.2519657 -2.2259656e-19)
(1.7838762 -0.064352228 5.6254939e-19)
(1.7732914 -0.11113361 -2.9972254e-19)
(1.7510176 -0.092893463 1.2512155e-19)
(1.7281751 -0.088745061 1.1478362e-23)
(1.7024593 -0.080904334 1.4890034e-19)
(1.6741341 -0.072754519 -6.5702914e-20)
(1.6431287 -0.063728328 -8.1914647e-21)
(1.6095378 -0.054008009 2.9567449e-20)
(1.573602 -0.043715512 -4.5697982e-20)
(1.5357321 -0.033047012 3.4632275e-20)
(1.4965174 -0.022244577 -9.2396488e-21)
(1.4566703 -0.011747498 -3.7114847e-20)
(1.4166032 -0.00083675498 1.3744004e-20)
(1.3770365 0.0045938939 1.6548616e-20)
(1.5818928 0.093199704 -6.3040357e-21)
(1.7274254 -0.46979668 8.7295763e-19)
(1.6945288 -0.28049154 -7.1869325e-19)
(1.6808357 -0.31726814 5.5674945e-19)
(1.6626248 -0.29564793 -4.652596e-19)
(1.6428156 -0.28423445 0)
(1.6208633 -0.26916907 2.7806262e-19)
(1.5967436 -0.25272378 -2.2052789e-19)
(1.5704417 -0.2345719 -4.5398344e-21)
(1.5420399 -0.2148747 0)
(1.5117421 -0.19383008 -1.7182057e-20)
(1.4798861 -0.17176238 8.192313e-21)
(1.4469535 -0.14908324 -5.283161e-20)
(1.4135059 -0.12655229 9.5902553e-20)
(1.3799554 -0.10344958 -6.4213671e-20)
(1.346635 -0.085662546 -1.6421489e-20)
(1.4121688 -0.070281516 4.1085888e-21)
(1.5465368 -0.63478611 -3.2540303e-21)
(1.5451652 -0.46727224 0)
(1.531775 -0.48718876 1.1529771e-20)
(1.5186311 -0.46519218 5.8207641e-21)
(1.5038621 -0.44725358 3.2358925e-19)
(1.4877221 -0.42614078 -2.7299725e-19)
(1.470136 -0.40280269 0)
(1.451121 -0.37711294 1.3109017e-21)
(1.4307441 -0.34922564 -1.2957296e-20)
(1.4091483 -0.31940651 1.1137696e-20)
(1.3865587 -0.28807983 6.0537714e-21)
(1.3633014 -0.2557679 1.1806483e-20)
(1.3397237 -0.2234012 6.8575072e-20)
(1.3162185 -0.1904613 -7.7575349e-20)
(1.2927081 -0.16197503 4.0602664e-20)
(1.1703363 -0.18163906 0)
(1.3034808 -0.72128422 1.3119332e-18)
(1.3393937 -0.60306349 -2.1287162e-18)
(1.3348989 -0.60437954 8.5822857e-19)
(1.328497 -0.58365242 -5.8175887e-21)
(1.3209262 -0.56126772 -1.6512071e-20)
(1.3126404 -0.53593694 4.1631565e-19)
(1.3037481 -0.5079831 -3.3409545e-19)
(1.2943379 -0.47734434 -2.1928911e-19)
(1.2844593 -0.44417271 1.983884e-19)
(1.2741604 -0.4087788 0)
(1.2634954 -0.37164161 -1.1362995e-19)
(1.2525462 -0.33332676 6.2746427e-20)
(1.241324 -0.29473632 0)
(1.2299567 -0.25551577 0)
(1.218057 -0.21844831 0)
(0.87081265 -0.22084854 2.5213704e-18)
(1.0238606 -0.72480583 -1.0209452e-18)
(1.0972713 -0.67013414 0)
(1.1142859 -0.66107277 -4.2761032e-21)
(1.1197216 -0.64275095 -4.9377187e-19)
(1.122014 -0.61907869 4.2345209e-19)
(1.123035 -0.59185799 2.9980766e-19)
(1.123616 -0.56183362 -6.5424329e-21)
(1.1242538 -0.52909953 -2.0791905e-19)
(1.1251629 -0.49384854 1.035562e-20)
(1.1263812 -0.456461 0)
(1.1278165 -0.41749536 -1.5274114e-19)
(1.1292742 -0.37760537 2.7734656e-20)
(1.1303503 -0.33771441 8.8018988e-20)
(1.1305711 -0.29804995 0)
(1.1325755 -0.25377752 8.6398475e-21)
(0.26255491 0.065268955 8.3840363e-21)
(0.48412589 -0.39659672 1.4298724e-18)
(0.65692281 -0.49892062 -5.8026959e-19)
(0.74815258 -0.53902613 -4.5096176e-19)
(0.79597791 -0.55098291 3.6935757e-19)
(0.82727152 -0.54696813 -2.9416461e-19)
(0.85253397 -0.53346237 2.4308435e-19)
(0.87564854 -0.51415295 1.7132883e-19)
(0.89839404 -0.49079325 -1.520819e-19)
(0.92150444 -0.46428413 0)
(0.94499362 -0.43526134 0)
(0.96838826 -0.40432031 0)
(0.99093543 -0.37203854 8.8871146e-21)
(1.0117067 -0.33911314 0)
(1.0293665 -0.30675815 4.8794343e-20)
(1.0473163 -0.26830813 -8.4392343e-20)
(0.69394897 -0.98827361 2.9163225e-19)
(0.86509144 -0.95289873 2.549897e-22)
(0.88232271 -0.99572889 -1.6757442e-19)
(0.88201934 -0.96966765 1.3852673e-19)
(0.88145114 -0.94454736 2.0869066e-22)
(0.88107045 -0.9154752 3.0522824e-21)
(0.88110279 -0.88248239 0)
(0.8817408 -0.84533683 2.9501851e-20)
(0.8831295 -0.80386142 -3.6273228e-20)
(0.88544416 -0.75811454 1.4462147e-20)
(0.88883014 -0.70840344 -3.1401094e-21)
(0.89337089 -0.65528683 2.5647698e-21)
(0.89921068 -0.59948939 -6.667565e-21)
(0.90671524 -0.54173458 2.7676672e-21)
(0.91546034 -0.48337443 2.636164e-21)
(0.92184089 -0.42917072 0)
(0.54941599 -0.94659005 0)
(0.62482841 -0.88650361 7.0211265e-22)
(0.61983288 -0.8753211 -9.0899328e-20)
(0.62679001 -0.85569025 7.4762218e-20)
(0.63478312 -0.83397757 9.7009496e-22)
(0.64454307 -0.80932959 -6.7728885e-20)
(0.65614098 -0.78145328 -5.1247962e-21)
(0.66965401 -0.75011687 1.0289368e-19)
(0.685129 -0.715171 -2.3298142e-21)
(0.70255855 -0.67657872 -3.7803912e-20)
(0.72185216 -0.63445667 0)
(0.74282378 -0.58910693 5.0865933e-21)
(0.76525978 -0.54098745 2.8300291e-21)
(0.78901461 -0.49061572 3.2248151e-20)
(0.81364072 -0.4387072 -4.0328791e-20)
(0.8371048 -0.38720439 -6.7209441e-21)
(0.36155782 -0.81543071 -3.2832834e-21)
(0.41038408 -0.77765589 7.9041975e-19)
(0.41472111 -0.76272178 -3.2802687e-19)
(0.42539496 -0.74455197 2.7635125e-21)
(0.43830444 -0.72445683 2.2990095e-19)
(0.45365406 -0.70196344 -1.8565725e-19)
(0.47160892 -0.67675431 3.083969e-21)
(0.49231666 -0.64859441 -5.0279839e-21)
(0.51587886 -0.61733684 6.7057222e-22)
(0.54231355 -0.58294947 6.5140707e-21)
(0.571515 -0.54554892 -6.7966985e-20)
(0.60325012 -0.50541882 4.9452036e-20)
(0.63726197 -0.46298099 8.7769403e-20)
(0.67337584 -0.41876608 -7.3958105e-20)
(0.71097147 -0.37363798 9.1733166e-21)
(0.74731089 -0.32942024 2.9781753e-20)
(0.20270982 -0.63329728 1.6946576e-21)
(0.23008467 -0.60795907 1.3975518e-21)
(0.24029259 -0.59274885 2.6366005e-19)
(0.25437391 -0.57696731 -2.2138949e-19)
(0.27158322 -0.56000207 3.1002054e-21)
(0.29200206 -0.54142904 -1.4944879e-19)
(0.31581844 -0.52096351 1.119037e-19)
(0.34320309 -0.49841283 1.9321882e-19)
(0.37425687 -0.47366532 -3.5137135e-21)
(0.40895553 -0.44670082 -2.5231953e-19)
(0.44709837 -0.4176079 9.8020735e-20)
(0.48831809 -0.38658597 0)
(0.53220916 -0.35391921 -6.1673645e-21)
(0.57836347 -0.31998868 5.0162804e-20)
(0.62560149 -0.28549005 -2.3891677e-20)
(0.67033101 -0.25168842 5.2342871e-20)
(0.092129486 -0.42558024 -1.7045349e-21)
(0.10499587 -0.40064893 3.968535e-19)
(0.11838097 -0.38418775 -3.2758525e-19)
(0.13511849 -0.36974538 1.9007731e-21)
(0.15547912 -0.3557156 -4.8651489e-21)
(0.17961445 -0.34143647 1.4248292e-21)
(0.20775252 -0.32655673 1.5058189e-19)
(0.24010745 -0.31087395 1.5739884e-21)
(0.27681254 -0.29427598 -8.874869e-20)
(0.3178542 -0.27671897 7.2556754e-20)
(0.36302188 -0.25821851 -5.8492933e-20)
(0.41194572 -0.23883051 0)
(0.46424883 -0.21861235 -3.6679905e-20)
(0.51944828 -0.19760466 2.5699903e-20)
(0.57560597 -0.17604273 -8.3557524e-21)
(0.6269949 -0.15494846 0)
(1.4256761 -0.94658865 0)
(1.5672758 -0.69816402 1.2211854e-18)
(1.5107468 -0.74105123 -1.9806783e-18)
(1.5051476 -0.71378969 8.114143e-19)
(1.4881358 -0.69860725 5.4842401e-21)
(1.4717762 -0.67792555 1.7224067e-21)
(1.4534598 -0.6553832 3.6743655e-19)
(1.4335344 -0.63010096 -3.0558215e-19)
(1.4119608 -0.60206857 -2.130673e-19)
(1.3887993 -0.57129415 1.5521629e-19)
(1.3642352 -0.5379074 0)
(1.3386157 -0.50221406 -7.3540292e-20)
(1.3124982 -0.46474149 5.4875878e-20)
(1.286725 -0.42611699 0)
(1.2622594 -0.38703295 0)
(1.2395667 -0.34836663 0)
(0.03571161 -0.25182804 2.542581e-19)
(0.044096809 -0.21692264 -1.0459421e-19)
(0.061728214 -0.19601873 -1.7125577e-19)
(0.082860652 -0.17993583 1.4023042e-19)
(0.10726378 -0.16622326 1.4277333e-21)
(0.13507151 -0.15387527 -4.8197806e-20)
(0.16647345 -0.14237859 -3.9805621e-20)
(0.20163513 -0.13143069 4.7102655e-22)
(0.24065207 -0.12083005 5.163729e-22)
(0.28350724 -0.11042588 5.7121965e-20)
(0.33003083 -0.10011689 -5.9770209e-20)
(0.37987827 -0.089792419 1.0281149e-21)
(0.43253829 -0.079328162 5.2589281e-21)
(0.48731195 -0.068553482 1.3452381e-20)
(0.54310528 -0.057255615 9.2563772e-24)
(0.59796245 -0.045612693 -6.5142377e-21)
(0.03610191 0.25023009 1.2638832e-19)
(0.044617173 0.21466653 1.0435418e-19)
(0.06248605 0.19395915 -2.5739874e-19)
(0.083917297 0.17826152 1.4043722e-19)
(0.10864119 0.16499826 -5.9259455e-20)
(0.13677569 0.15311503 -5.6904863e-24)
(0.16849379 0.14206877 -7.7363125e-20)
(0.20394043 0.131533 3.29553e-20)
(0.24318652 0.12128539 3.485661e-21)
(0.28618854 0.1111586 -1.8333228e-20)
(0.33275495 0.101042 2.6754878e-20)
(0.38253136 0.090826711 -2.249369e-20)
(0.43500585 0.080403434 5.2562822e-21)
(0.48944697 0.06963735 2.6017961e-20)
(0.54461239 0.058412233 -9.9020133e-21)
(0.59829618 0.047143873 -1.3199877e-20)
(0.092534773 0.42667603 2.6714834e-21)
(0.10539988 0.40198174 -4.0008079e-19)
(0.11897028 0.38574538 3.2791461e-19)
(0.13591326 0.37145224 -2.6646289e-19)
(0.15647315 0.35749574 2.2199564e-19)
(0.18079216 0.34321631 0)
(0.20908703 0.32826496 -1.4601186e-19)
(0.24155863 0.31244079 1.1570977e-19)
(0.27832426 0.29563238 2.365714e-21)
(0.31935105 0.27779519 0)
(0.36440873 0.25894178 1.0267513e-20)
(0.41311469 0.23912098 -5.0979697e-21)
(0.46508196 0.21837147 3.5866346e-20)
(0.51976069 0.19667595 -6.7712822e-20)
(0.57501483 0.17413164 4.5942649e-20)
(0.62506287 0.15164483 1.2642079e-20)
(0.20320913 0.63547865 -1.6939392e-21)
(0.23066882 0.61032141 1.3969629e-21)
(0.24092795 0.59523008 0)
(0.25499236 0.57947692 -4.6582068e-21)
(0.27213286 0.5624555 -2.2860514e-21)
(0.29242878 0.54374926 -1.49109e-19)
(0.31606077 0.52307871 1.2604433e-19)
(0.34318991 0.50025525 0)
(0.37390472 0.47517136 -1.2424066e-21)
(0.40816189 0.44781283 6.5163014e-21)
(0.44573239 0.41827807 -6.5897005e-21)
(0.48624172 0.38677336 -2.9504292e-21)
(0.52939509 0.35354742 -7.7057728e-21)
(0.57503593 0.31883615 -4.6432519e-20)
(0.62179363 0.28318433 5.3330332e-20)
(0.66414075 0.24849096 -2.9127076e-20)
(0.36170907 0.81693507 0)
(0.41082571 0.77914317 -3.9729931e-19)
(0.41508634 0.76427089 6.5712113e-19)
(0.42561925 0.74607376 -2.6934124e-19)
(0.43831764 0.72587526 2.2757409e-21)
(0.45338171 0.70320759 5.7403781e-21)
(0.47097195 0.67775601 -1.6100118e-19)
(0.491233 0.64928883 1.2882938e-19)
(0.51426773 0.61766572 9.6935427e-20)
(0.54009744 0.58287055 -8.8235975e-20)
(0.56861736 0.54505478 0)
(0.59963727 0.50454574 6.1051739e-20)
(0.6331625 0.46174834 -3.4320989e-20)
(0.66961615 0.41709352 0)
(0.70832761 0.37183745 0)
(0.74306221 0.33010825 0)
(0.54904117 0.94703386 -2.0713905e-19)
(0.62487798 0.8867694 8.9014447e-20)
(0.61974024 0.87562846 0)
(0.62655927 0.85591736 -2.0485919e-22)
(0.63434612 0.83406159 7.5081499e-20)
(0.64383735 0.80921017 -6.3332237e-20)
(0.65511041 0.78107502 -6.0333621e-20)
(0.66825667 0.74943327 -4.464389e-21)
(0.68335193 0.71415176 4.8235469e-20)
(0.70043771 0.67522359 -3.8926191e-21)
(0.71949855 0.63281717 0)
(0.74048342 0.58729878 5.576606e-20)
(0.76344777 0.53917326 -7.7152192e-21)
(0.78857662 0.48908388 -3.5531687e-20)
(0.81532247 0.43831025 0)
(0.84154591 0.38904438 -3.1122189e-21)
(0.69259132 0.98759548 1.0595666e-20)
(0.86460209 0.95225903 4.5124202e-19)
(0.88182141 0.99541503 -1.7983117e-19)
(0.88140681 0.96923105 -1.250564e-19)
(0.88068638 0.94399195 1.0330021e-19)
(0.88011148 0.91475926 -6.5652853e-20)
(0.87991956 0.8815758 4.9425687e-20)
(0.88032548 0.84422838 2.9405645e-20)
(0.88151156 0.80256795 -2.8737506e-20)
(0.88370911 0.75669418 0)
(0.88713978 0.70697489 0)
(0.89198476 0.65404316 0)
(0.89850584 0.59869509 3.4328123e-21)
(0.90712966 0.54173031 0)
(0.91720892 0.48451699 -8.02733e-21)
(0.92414207 0.43125957 1.7955812e-20)
(0.26357322 -0.064929804 9.0703228e-19)
(0.48526974 0.39759193 3.3770713e-21)
(0.65822261 0.50001094 -5.7111723e-19)
(0.74951505 0.54019917 4.7143834e-19)
(0.79740675 0.55224224 6.9806853e-21)
(0.82879264 0.54833514 2.4493198e-21)
(0.85416126 0.534954 0)
(0.87737012 0.51576918 1.7960311e-19)
(0.90016241 0.49251039 -2.926142e-19)
(0.92322748 0.46605078 1.146316e-19)
(0.94653059 0.43699913 -8.2024805e-20)
(0.96955503 0.4059349 6.7036561e-20)
(0.99153022 0.37343168 5.1432911e-21)
(1.0114946 0.3403098 -1.0385611e-20)
(1.0285172 0.30718347 -2.5445687e-20)
(1.0481109 0.26376211 0)
(0.87224468 0.22128627 0)
(1.0252028 0.72568669 -7.9105845e-21)
(1.0986294 0.67095433 7.9623872e-19)
(1.115678 0.66197057 -6.5426135e-19)
(1.1211998 0.64372208 -1.1495372e-20)
(1.123601 0.62013859 3.9654169e-19)
(1.1247332 0.5930089 -1.4793818e-20)
(1.1254001 0.56306014 -4.9311707e-19)
(1.1260626 0.53036649 3.5282144e-20)
(1.1268942 0.49509839 1.4911957e-19)
(1.1278965 0.45761529 0)
(1.1289631 0.41846222 -1.1505392e-20)
(1.1299396 0.37827436 -1.2498928e-20)
(1.1304982 0.33801308 -7.0655636e-20)
(1.1305333 0.29734339 9.2240789e-20)
(1.1300761 0.2568214 1.1568664e-20)
(1.1718125 0.18197433 -2.4589443e-20)
(1.3049002 0.72198087 -2.6570429e-18)
(1.3408572 0.60370894 1.0815469e-18)
(1.3364334 0.6051126 -7.3404394e-21)
(1.3301504 0.58444731 -6.6391659e-19)
(1.322709 0.56213965 5.3951781e-19)
(1.3145442 0.53688259 -7.2199314e-21)
(1.3057335 0.50898472 1.1193973e-20)
(1.2963274 0.47836965 -5.1518463e-21)
(1.2863347 0.44517436 -1.2993653e-20)
(1.2757735 0.40970057 1.3621172e-19)
(1.2647015 0.37243204 -9.7887318e-20)
(1.2532674 0.33395009 -1.5452403e-19)
(1.2415866 0.29527574 1.2913762e-19)
(1.2300539 0.25572046 -1.6795127e-20)
(1.2175762 0.22114388 -4.629024e-20)
(1.4136578 0.070503474 -4.1210905e-21)
(1.5479914 0.63528854 -3.2640826e-21)
(1.546691 0.46774177 -6.315855e-19)
(1.5333912 0.48773691 5.3175177e-19)
(1.520381 0.46579038 -6.7341832e-21)
(1.5057492 0.44791574 3.2471966e-19)
(1.48973 0.42686324 -2.4283153e-19)
(1.4722133 0.40357043 -3.852317e-19)
(1.4531746 0.37790123 2.0501403e-20)
(1.4326397 0.34999999 4.6753185e-19)
(1.410727 0.3201295 -1.76753e-19)
(1.3876813 0.28872152 0)
(1.3639189 0.25631766 1.0343768e-20)
(1.3399237 0.2239411 -7.5214027e-20)
(1.3163084 0.19065428 3.5994255e-20)
(1.2928105 0.16367034 -7.1257438e-20)
(1.5833517 -0.093103457 4.1050419e-21)
(1.7288697 0.47010326 -8.6895092e-19)
(1.6960666 0.28078455 7.2076247e-19)
(1.6824724 0.31761801 -4.2304029e-21)
(1.6644057 0.29603884 1.0383012e-20)
(1.6447394 0.28467312 -2.8792436e-21)
(1.6229074 0.26965555 -2.8792282e-19)
(1.598846 0.25324821 5.699899e-21)
(1.5724955 0.23512051 1.6309457e-19)
(1.5438961 0.21542906 -1.2221538e-19)
(1.5132323 0.19437296 9.8663358e-20)
(1.4808748 0.17228497 0)
(1.4474148 0.14960175 5.3929522e-20)
(1.413575 0.12713877 -3.7727699e-20)
(1.3799287 0.10380015 1.1705659e-20)
(1.3468407 0.08752351 0)
(1.6824958 -0.28419925 -5.7203377e-19)
(1.8425191 0.25208058 2.4102489e-19)
(1.785387 0.064475774 3.7452566e-19)
(1.7749041 0.1112793 -3.0050835e-19)
(1.7527848 0.093071626 5.4272787e-22)
(1.7300908 0.088948837 9.9484101e-20)
(1.7044968 0.081140361 7.6910803e-20)
(1.6762232 0.073019016 -3.2045344e-21)
(1.6451523 0.064020068 -2.8636863e-21)
(1.6113359 0.054325284 -9.8874286e-20)
(1.5749992 0.04405921 9.9529691e-20)
(1.5365972 0.033423693 -3.503248e-21)
(1.4968442 0.022676546 -9.2635564e-21)
(1.4566267 0.012239561 -1.9751394e-20)
(1.4164728 0.0011234553 -1.2381231e-23)
(1.3772463 -0.0029708249 8.0885639e-21)
(1.711941 -0.48210387 -2.819501e-19)
(1.8829397 0.0028529933 -2.2225739e-19)
(1.8110412 -0.16232795 5.6181426e-19)
(1.80371 -0.11438283 -2.9936846e-19)
(1.7792861 -0.12550567 1.2497651e-19)
(1.7554242 -0.12264024 1.153761e-23)
(1.7281961 -0.12252323 1.4856776e-19)
(1.698138 -0.12170221 -6.5594116e-20)
(1.6650768 -0.12078554 -8.1582188e-21)
(1.6290848 -0.11959246 2.9390615e-20)
(1.5904165 -0.11806515 -4.5561183e-20)
(1.5495793 -0.11613475 3.4369003e-20)
(1.5073625 -0.1137436 -9.1144794e-21)
(1.4647335 -0.11084665 -3.6723354e-20)
(1.4222818 -0.10810541 1.3582289e-20)
(1.3810861 -0.1002344 1.6098428e-20)
(1.6747732 -0.66815879 -6.1426292e-21)
(1.8471157 -0.25583428 8.6119374e-19)
(1.7720286 -0.38208575 -7.0942609e-19)
(1.7657444 -0.34122688 5.4890348e-19)
(1.7416398 -0.34234039 -4.5888942e-19)
(1.7183176 -0.33316832 0)
(1.6917068 -0.32487343 2.7299676e-19)
(1.6623862 -0.31506291 -2.1662892e-19)
(1.6301991 -0.30410572 -4.2387939e-21)
(1.595238 -0.2918918 0)
(1.5577785 -0.27843032 -1.6581543e-20)
(1.518348 -0.26379574 7.7728943e-21)
(1.4777509 -0.24815045 -5.0393744e-20)
(1.4369469 -0.23175551 9.1859588e-20)
(1.3965676 -0.21497633 -6.0879526e-20)
(1.3570668 -0.19506182 -1.5413313e-20)
(1.576075 -0.82527254 3.9617369e-21)
(1.7368976 -0.49837193 -3.1726621e-21)
(1.6690104 -0.5793757 0)
(1.6624066 -0.54750154 -2.8117613e-21)
(1.6410588 -0.53917653 -5.4902746e-21)
(1.6202125 -0.52400338 2.9142045e-19)
(1.5966257 -0.50803234 -2.4711359e-19)
(1.5707557 -0.48984051 0)
(1.5425094 -0.46955448 1.7435796e-20)
(1.5119798 -0.44713825 1.1932804e-20)
(1.4794277 -0.42266935 1.062431e-20)
(1.4453362 -0.39635806 -2.0613592e-20)
(1.4104364 -0.36858751 1.1112995e-20)
(1.3756138 -0.33993574 6.2162635e-20)
(1.3414288 -0.31140418 -6.9258772e-20)
(1.3078713 -0.28274034 3.6316942e-20)
(1.2564533 -1.0340217 2.4721206e-18)
(1.3738919 -0.85109622 -1.0131665e-18)
(1.3304771 -0.86441192 0)
(1.3279075 -0.83739692 -4.5460019e-21)
(1.3160621 -0.81716249 -4.8189504e-19)
(1.305188 -0.79198298 4.1395518e-19)
(1.2931348 -0.76422037 2.8603252e-19)
(1.280088 -0.73341703 -9.3754554e-21)
(1.2660242 -0.69949894 -1.9542756e-19)
(1.2509386 -0.66249829 9.3560713e-21)
(1.2349079 -0.62257809 0)
(1.2181252 -0.58009003 -1.2943575e-19)
(1.2010095 -0.53559326 2.7237176e-20)
(1.1845537 -0.48956848 7.159882e-20)
(1.1703078 -0.44232941 0)
(1.1572137 -0.39632812 5.6531644e-21)
(1.0882105 -1.1146499 1.0849486e-20)
(1.1885416 -0.97823484 1.6948946e-18)
(1.1558031 -0.97454493 -6.9017207e-19)
(1.1580639 -0.94511453 -5.2473882e-19)
(1.1513508 -0.92082013 4.3056961e-19)
(1.145589 -0.89187347 -3.3038994e-19)
(1.1391223 -0.85952407 2.7199069e-19)
(1.1319047 -0.82364567 1.8253156e-19)
(1.1239108 -0.78413499 -1.6159681e-19)
(1.115149 -0.74101171 0)
(1.105732 -0.6944605 0)
(1.0958961 -0.64488088 0)
(1.0861321 -0.59288617 5.5778612e-21)
(1.0776961 -0.53904477 0)
(1.0727283 -0.48422054 3.0350577e-20)
(1.0707746 -0.43211805 -4.8869378e-20)
(-0.2570752 0.41234028 9.6878208e-20)
(0.12202965 -0.07761304 3.8200938e-22)
(0.30538027 -0.22621437 -5.5621993e-20)
(0.43468334 -0.30365922 4.5566841e-20)
(0.53278862 -0.34355063 7.8585927e-22)
(0.6091083 -0.36066912 2.1662614e-21)
(0.66985717 -0.3643526 0)
(0.71979022 -0.36033076 3.1223864e-20)
(0.76226469 -0.35212528 -5.3073891e-20)
(0.7994139 -0.34186707 2.4712888e-20)
(0.83257888 -0.33072714 -2.6221576e-20)
(0.86255586 -0.3191216 2.1463739e-20)
(0.88973416 -0.30687282 -2.7385705e-21)
(0.91440403 -0.29334351 -3.8378999e-21)
(0.93604576 -0.27855307 -1.4790019e-20)
(0.95845691 -0.25953891 0)
(-0.1253069 0.32936932 0)
(-0.16998226 0.26377713 -9.2463882e-22)
(-0.044681979 0.13379425 9.7828692e-20)
(0.097291655 0.00087490181 -7.9969698e-20)
(0.23924486 -0.1223982 -1.3596471e-21)
(0.36426814 -0.21147479 5.2048679e-20)
(0.46996089 -0.26598971 7.7265297e-22)
(0.56029224 -0.29708081 -7.1756744e-20)
(0.63631435 -0.31291708 2.0500553e-21)
(0.69925061 -0.31893748 2.5594467e-20)
(0.75089726 -0.31858749 0)
(0.79279243 -0.31392002 -2.2675028e-21)
(0.8262789 -0.3059667 -4.1184198e-21)
(0.85301258 -0.29489353 -2.0041307e-20)
(0.87457235 -0.28072311 2.7349041e-20)
(0.89561612 -0.26154995 2.5406213e-21)
(-0.12602494 0.40932372 -1.7096029e-21)
(-0.17259582 0.33750545 -3.119734e-19)
(-0.14744609 0.31160889 1.279536e-19)
(-0.12248627 0.29422039 -8.7876496e-22)
(-0.096535061 0.28027228 -8.3501054e-20)
(-0.02626411 0.21342345 6.7508107e-20)
(0.079750253 0.10889913 -9.5842741e-22)
(0.20318276 -0.0056737876 1.5686735e-21)
(0.33073649 -0.10904408 -8.1243541e-22)
(0.44398833 -0.18333877 -2.0972106e-21)
(0.54137869 -0.23477171 2.2221776e-20)
(0.62074838 -0.26835281 -1.5527426e-20)
(0.68230419 -0.28667775 -2.6935013e-20)
(0.72857496 -0.29146511 2.2258373e-20)
(0.76312653 -0.28480982 -3.7922412e-21)
(0.79611233 -0.26560073 -8.3690586e-21)
(-0.10779001 0.46116149 -3.7753581e-22)
(-0.13103845 0.40070435 -3.099533e-22)
(-0.1176658 0.37169811 -7.4138925e-20)
(-0.10451024 0.34777213 6.2426044e-20)
(-0.092420562 0.32402434 -6.9726013e-22)
(-0.077958538 0.29945683 4.226837e-20)
(-0.0569497 0.27503826 -3.1688651e-20)
(-0.028801964 0.25006266 -5.7981861e-20)
(0.021650896 0.19856408 -1.7237065e-21)
(0.12300841 0.09366808 8.0528065e-20)
(0.24378384 -0.028998091 -3.1743012e-20)
(0.33910149 -0.13306307 0)
(0.4184027 -0.20897397 1.8070321e-21)
(0.48646734 -0.25291375 -9.9278501e-21)
(0.54552704 -0.268293 5.1866961e-21)
(0.60548869 -0.25878287 -3.3227661e-21)
(-0.075400734 0.43904085 3.7753581e-22)
(-0.077211203 0.37906738 -6.7611841e-20)
(-0.076117548 0.345644 5.60706e-20)
(-0.076878476 0.31811905 -4.2076784e-22)
(-0.079607281 0.29124189 9.00679e-22)
(-0.083595294 0.26286361 -1.7663887e-22)
(-0.088663545 0.23174853 -2.9908621e-20)
(-0.095176411 0.19667525 -1.860316e-21)
(-0.10192364 0.15601303 1.8491789e-20)
(-0.10295694 0.10640014 -1.7323831e-20)
(-0.077785455 0.040006286 1.4006206e-20)
(0.036656085 -0.060791342 0)
(0.11969821 -0.15997618 6.3541437e-21)
(0.1773968 -0.20496229 -4.5141713e-21)
(0.24610922 -0.2244119 8.0395864e-22)
(0.33222954 -0.21840625 0)
(-0.051584441 0.31503531 -1.0664182e-20)
(-0.057053436 0.23121801 4.1499836e-21)
(-0.075491716 0.18093762 7.8565229e-21)
(-0.096589302 0.14187342 -7.0380607e-21)
(-0.1193355 0.10818006 -5.6629418e-22)
(-0.14313592 0.077453551 2.9585207e-21)
(-0.16720397 0.04843866 3.2320549e-21)
(-0.19051229 0.020321534 3.1049651e-22)
(-0.21223323 -0.0075994469 2.6356998e-22)
(-0.23212673 -0.035946336 -6.3917663e-21)
(-0.24801243 -0.064829722 7.1650839e-21)
(-0.24762268 -0.09310805 -4.361315e-22)
(-0.20737381 -0.11989607 -1.4604758e-21)
(-0.15120026 -0.14364047 -9.0865462e-22)
(-0.078726229 -0.16054421 3.7922664e-25)
(0.063644971 -0.15616922 -1.1480136e-21)
(-0.051321065 -0.32729577 -6.384305e-21)
(-0.05637865 -0.24638662 -5.7648978e-21)
(-0.074282066 -0.1962297 1.3958565e-20)
(-0.094596236 -0.15623351 -8.2783803e-21)
(-0.11642454 -0.12090931 3.7501159e-21)
(-0.1392123 -0.087979425 3.8645353e-25)
(-0.16222251 -0.056248443 6.7753547e-21)
(-0.18452875 -0.024934401 -2.6162874e-21)
(-0.20546016 0.0066580497 -2.2604e-22)
(-0.2248064 0.039141677 2.5328037e-21)
(-0.23988387 0.072475286 -3.0878665e-21)
(-0.23747022 0.10507648 2.6215879e-21)
(-0.19425992 0.13590207 -1.5007425e-21)
(-0.13747362 0.16189769 -1.0779589e-21)
(-0.068030187 0.18007962 6.8832319e-23)
(0.078116537 0.17533734 -1.760057e-21)
(-0.076015324 -0.44756023 -5.0643337e-22)
(-0.078628858 -0.38744572 7.2305896e-20)
(-0.077178329 -0.3529486 -5.9426397e-20)
(-0.077334393 -0.32420087 4.9549617e-20)
(-0.079372483 -0.29607896 -4.1331911e-20)
(-0.08259311 -0.26643544 0)
(-0.08686533 -0.23397052 3.0752589e-20)
(-0.092776936 -0.19731741 -2.4258582e-20)
(-0.099172898 -0.15470466 -9.4319341e-22)
(-0.098931018 -0.10259599 0)
(-0.067534251 -0.032625694 -2.6523882e-21)
(0.047403132 0.074697014 1.4399478e-21)
(0.12157483 0.17048918 -7.086109e-21)
(0.17918108 0.21626816 8.6060462e-21)
(0.24304797 0.23738673 -4.7396523e-21)
(0.33825135 0.22871119 6.3908636e-22)
(-0.10854161 -0.46674082 3.9654007e-22)
(-0.13267007 -0.40574145 -3.2544897e-22)
(-0.11884089 -0.37591018 0)
(-0.10513924 -0.35107663 1.3577207e-21)
(-0.092554562 -0.32639223 7.494742e-22)
(-0.077580926 -0.30086212 4.4040966e-20)
(-0.056002834 -0.27548946 -3.7062851e-20)
(-0.027730858 -0.24939611 0)
(0.025226181 -0.19339645 6.9166087e-23)
(0.12886711 -0.084843995 -2.2216124e-21)
(0.24758317 0.039025448 1.9161896e-21)
(0.34123446 0.14320828 1.2347327e-21)
(0.4190057 0.21855057 1.8472402e-21)
(0.4854943 0.26160484 8.6534739e-21)
(0.54196622 0.27609778 -8.3976116e-21)
(0.60640073 0.26197589 2.476961e-21)
(-0.12664399 -0.41255431 0)
(-0.17386081 -0.34013311 1.6187217e-19)
(-0.14818297 -0.31357579 -2.6474303e-19)
(-0.1226235 -0.29553023 1.0734622e-19)
(-0.096204013 -0.28095767 -7.4721051e-22)
(-0.024839528 -0.21254316 -2.2153067e-21)
(0.0821764 -0.1064277 5.9242522e-20)
(0.20671132 0.0098321407 -4.7293866e-20)
(0.33417748 0.11360979 -3.3444416e-20)
(0.44700853 0.18825661 3.0188207e-20)
(0.54363677 0.24000016 0)
(0.62200669 0.27373583 -2.0268944e-20)
(0.68238126 0.29190497 1.0433457e-20)
(0.72740844 0.29622949 0)
(0.76039129 0.28884261 0)
(0.79502619 0.26671101 0)
(-0.12563579 -0.33086735 3.1228564e-19)
(-0.1706158 -0.26482945 -1.284371e-19)
(-0.04466274 -0.13415072 0)
(0.098013802 -0.00055102127 -5.0997534e-22)
(0.24066739 0.12346656 -6.624585e-20)
(0.36602268 0.21291738 5.6299079e-20)
(0.47193502 0.26778563 4.3903319e-20)
(0.56234208 0.29926502 2.6178307e-21)
(0.63831134 0.31552467 -3.3214946e-20)
(0.70108861 0.32195143 1.7650184e-21)
(0.75245249 0.3219186 0)
(0.79391699 0.31741256 -3.8881305e-20)
(0.8268174 0.30939967 3.768801e-21)
(0.85286936 0.29796446 2.4601403e-20)
(0.87320278 0.28348901 0)
(0.89472427 0.26252915 3.83533e-21)
(-0.25495794 -0.41045164 3.3748678e-21)
(0.12360955 0.079330327 1.6007221e-19)
(0.30690592 0.2277456 -6.3203358e-20)
(0.43625988 0.30513576 -4.6702008e-20)
(0.53443016 0.34506808 3.7978218e-20)
(0.61081776 0.36230344 -3.6965523e-20)
(0.67163704 0.36615886 2.7572468e-20)
(0.72163284 0.36234521 3.1509285e-20)
(0.76413483 0.35435633 -3.1509164e-20)
(0.80124003 0.34429014 0)
(0.83424631 0.33328007 0)
(0.86390637 0.32170658 0)
(0.89060007 0.30935722 7.4813878e-21)
(0.91466061 0.29558377 0)
(0.9353173 0.28087521 2.6783778e-20)
(0.96199724 0.2579737 -4.7566306e-20)
(0.85802095 0.96233297 0)
(0.88317479 1.0023258 0)
(0.89138271 0.97304049 0)
(0.89407163 0.94934758 6.5469607e-21)
(0.89756749 0.92151186 -4.111932e-20)
(0.90170551 0.88953805 4.2987743e-20)
(0.90662002 0.85339791 0)
(0.91236424 0.81285057 -5.9256144e-21)
(0.9189669 0.76786356 0)
(0.92641691 0.71873439 0)
(0.93464343 0.6660623 0)
(0.9436217 0.6106917 7.4174094e-21)
(0.95366405 0.55344837 0)
(0.96492851 0.49569725 1.207776e-20)
(0.97543139 0.44303095 0)
(0.85856804 -0.96293843 0)
(0.88369801 -1.0026341 0)
(0.89199677 -0.9734873 0)
(0.89484399 -0.94990932 6.5689475e-21)
(0.89853442 -0.92223342 -3.8640467e-20)
(0.90289851 -0.89044666 4.7634566e-20)
(0.90804331 -0.8545057 0)