/*--------------------------------*- C++ -*----------------------------------*\
| =========                 |                                                 |
| \\      /  F ield         | foam-extend: Open Source CFD                    |
|  \\    /   O peration     | Version:     4.1                                |
|   \\  /    A nd           | Web:         http://www.foam-extend.org         |
|    \\/     M anipulation  |                                                 |
\*---------------------------------------------------------------------------*/
FoamFile
{
    version     2.0;
    format      ascii;
    class       volScalarField;
    location    "2.9";
    object      p;
}
// * * * * * * * * * * * * * * * * * * * * * * * * * * * * * * * * * * * * * //

dimensions      [0 2 -2 0 0 0 0];

internalField   nonuniform List<scalar> 
16126
(
-0.00041428037
-0.00084715238
-0.0019132241
-0.002320567
-0.0034067951
-0.0039279576
-0.0049752127
-0.0056352601
-0.0066535047
-0.0074362565
-0.0084498885
-0.009332472
-0.010361215
-0.011323401
-0.012378389
-0.013404531
-0.014490494
-0.015569332
-0.016688836
-0.017810596
-0.018959803
-0.02011746
-0.021301319
-0.022493944
-0.023706288
-0.024930176
-0.026170396
-0.027420284
-0.028680707
-0.029946915
-0.031217473
-0.032488095
-0.033756022
-0.035017025
-0.036267553
-0.03750329
-0.038720219
-0.039913929
-0.041080145
-0.04221438
-0.043312227
-0.044369125
-0.04538056
-0.046341861
-0.04724835
-0.048095171
-0.048877385
-0.04958985
-0.050227274
-0.050784147
-0.051254776
-0.051633264
-0.051913546
-0.05208941
-0.052154543
-0.052102587
-0.051927202
-0.051622143
-0.051181342
-0.050598999
-0.049869667
-0.048988363
-0.047950638
-0.0467527
-0.045391469
-0.043864694
-0.042170994
-0.040309952
-0.038282142
-0.036089201
-0.033733819
-0.031219793
-0.028551975
-0.025736306
-0.022779717
-0.019690153
-0.016476406
-0.013148148
-0.0097156951
-0.0061900492
-0.0025826084
0.0010947805
0.0048301568
0.0086113749
0.012426458
0.016263515
0.02011109
0.023958067
0.027793978
0.031608942
0.035393826
0.03914035
0.042840913
0.046489098
0.05007883
0.053605783
0.057065136
0.060454956
0.063771035
0.067014512
0.070180573
0.073275293
0.076291187
0.07924422
0.082120888
0.084959655
0.087735343
0.090539214
0.09332255
0.09629775
0.09935833
0.10298297
0.10689258
0.1121322
0.11787607
0.12640129
0.13520926
0.14959607
0.16207149
0.18688995
0.20049575
0.25083959
0.24701931
0.4160526
-0.00042506035
-0.0008561991
-0.0019454611
-0.0023436431
-0.0034399614
-0.0039593064
-0.0050103409
-0.00567155
-0.0066911143
-0.0074752474
-0.0084887701
-0.0093713314
-0.010398436
-0.01135913
-0.012412236
-0.013437471
-0.014521708
-0.015597318
-0.016709832
-0.017826478
-0.018976664
-0.020131995
-0.021302173
-0.022484034
-0.023692286
-0.024910332
-0.026143586
-0.027386312
-0.028639245
-0.029897645
-0.031159993
-0.032422002
-0.03368089
-0.034932444
-0.036173116
-0.037398621
-0.038604967
-0.039787785
-0.04094285
-0.042065735
-0.043152097
-0.044197449
-0.045197357
-0.046147235
-0.047042492
-0.047878361
-0.048649995
-0.049352339
-0.04998019
-0.050528122
-0.050990526
-0.051361581
-0.051635297
-0.051805528
-0.051866021
-0.051810472
-0.051632584
-0.051326146
-0.050885114
-0.0503037
-0.049576456
-0.048698381
-0.047665001
-0.046472478
-0.045117675
-0.043598269
-0.041912794
-0.040060732
-0.038042551
-0.035859764
-0.03351493
-0.031011709
-0.028354807
-0.025550014
-0.022604108
-0.019524877
-0.016320956
-0.013001861
-0.0095777509
-0.0060594796
-0.0024582941
0.0012140999
0.0049458769
0.0087250197
0.012539679
0.016378089
0.020228922
0.024081191
0.027924563
0.031749297
0.035546423
0.039307829
0.043026136
0.046695169
0.050309192
0.053864253
0.057356064
0.06078325
0.064142466
0.067435684
0.07065947
0.073821064
0.07691513
0.079959009
0.082942395
0.085904675
0.08882513
0.091793524
0.09476712
0.097949839
0.10124431
0.10510482
0.10927237
0.11473443
0.12072326
0.12938186
0.13838724
0.1526596
0.16530052
0.18894465
0.20318539
0.24339907
0.25139543
0.31133938
-0.00047534679
-0.00080750173
-0.0019755522
-0.0023224736
-0.0034466847
-0.0039484224
-0.0050045141
-0.0056610631
-0.0066780593
-0.0074613011
-0.0084710914
-0.0093547377
-0.010380076
-0.011342753
-0.012393778
-0.013417
-0.014495917
-0.015570664
-0.016689129
-0.017809424
-0.018943303
-0.020085281
-0.021268654
-0.022460729
-0.023667229
-0.024885479
-0.026118602
-0.027361683
-0.028614974
-0.029873998
-0.031137093
-0.032400064
-0.033660061
-0.034912906
-0.036155016
-0.037382122
-0.038590213
-0.039774935
-0.04093206
-0.042057177
-0.043145958
-0.044193938
-0.04519671
-0.046149715
-0.047048393
-0.047888005
-0.048663731
-0.049370538
-0.050003237
-0.05055641
-0.051024442
-0.051401497
-0.05168156
-0.051858444
-0.051925846
-0.051877399
-0.051706736
-0.051407562
-0.050973745
-0.050399401
-0.049678981
-0.048807385
-0.047780033
-0.046592987
-0.045243012
-0.04372769
-0.042045469
-0.040195751
-0.038178933
-0.03599647
-0.03365087
-0.031145759
-0.028485816
-0.025676825
-0.022725565
-0.019639843
-0.016428324
-0.013100571
-0.0096667992
-0.0061379351
-0.0025253061
0.0011592836
0.0049039256
0.0086965019
0.012525073
0.016377753
0.020243114
0.024110044
0.027968119
0.031807476
0.035619076
0.039394701
0.043126925
0.04680945
0.050436494
0.054003923
0.057507443
0.060945437
0.064314685
0.067616828
0.070848969
0.074017997
0.077120233
0.080172869
0.083169954
0.08615119
0.089105868
0.09212381
0.095182359
0.098479653
0.10195312
0.10602501
0.1104903
0.11622484
0.12255481
0.13131635
0.14044525
0.15407431
0.16630096
0.187413
0.20131867
0.23448812
0.24756184
0.29128324
-0.00062812624
-0.00074504883
-0.0020561187
-0.0023146794
-0.0034863576
-0.0039585841
-0.0050253677
-0.0056741403
-0.0066904194
-0.0074723375
-0.0084779364
-0.009358908
-0.010376367
-0.011332083
-0.012375042
-0.01339737
-0.014476819
-0.015549109
-0.0166423
-0.017739118
-0.018890261
-0.02005073
-0.021220524
-0.022401244
-0.023601848
-0.02481398
-0.026041228
-0.027278322
-0.028525557
-0.029778559
-0.031035609
-0.032292614
-0.033546682
-0.034793716
-0.036030131
-0.037251727
-0.038454528
-0.039634251
-0.040786726
-0.041907623
-0.042992693
-0.044037553
-0.045037891
-0.045989232
-0.046887104
-0.047726853
-0.048503729
-0.04921277
-0.049848835
-0.050406544
-0.050880305
-0.051264282
-0.051552443
-0.051738566
-0.051816288
-0.051779163
-0.051620722
-0.051334555
-0.05091439
-0.05035419
-0.049648236
-0.048791246
-0.047778449
-0.046605705
-0.045269574
-0.043767431
-0.042097515
-0.040259025
-0.038252156
-0.036078174
-0.033739405
-0.031239306
-0.028582405
-0.025774348
-0.022821792
-0.019732454
-0.016514909
-0.013178679
-0.0097339284
-0.0061915915
-0.0025629791
0.0011400689
0.0049055907
0.0087213784
0.012575412
0.016455717
0.020350816
0.024249527
0.028141419
0.032016598
0.035866082
0.039681687
0.043456159
0.047183374
0.050857978
0.054476258
0.058034709
0.061532409
0.064967508
0.068342742
0.071657535
0.07492028
0.078131093
0.081308741
0.084453175
0.087604303
0.090759979
0.094004713
0.097327451
0.10090566
0.104693
0.10905546
0.11381885
0.11972769
0.12619567
0.13476139
0.14364983
0.15623198
0.16760722
0.18559578
0.19794059
0.22162043
0.23268431
0.25075367
-0.0009072215
-0.00064497883
-0.0021643583
-0.0022817561
-0.0035192276
-0.0039416392
-0.0050208473
-0.0056507969
-0.0066606588
-0.0074320016
-0.0084254225
-0.0093006852
-0.010310964
-0.01126767
-0.012305342
-0.013316338
-0.014368311
-0.015420331
-0.016536655
-0.017658688
-0.018792359
-0.019934539
-0.021103005
-0.022283347
-0.023480893
-0.024690705
-0.025915092
-0.027149909
-0.028395023
-0.029646499
-0.03090251
-0.032159183
-0.033413613
-0.034661839
-0.035900312
-0.037124934
-0.038331786
-0.039516674
-0.040675493
-0.041803993
-0.042897989
-0.043953157
-0.044965244
-0.045929812
-0.04684242
-0.047698424
-0.048493067
-0.049221356
-0.049878097
-0.050457833
-0.050954862
-0.051363217
-0.051676701
-0.051888904
-0.051993245
-0.051983038
-0.051851553
-0.051592097
-0.051198106
-0.050663236
-0.049981459
-0.049147182
-0.048155325
-0.047001452
-0.045681834
-0.044193581
-0.04253468
-0.040704106
-0.038701857
-0.036529029
-0.03418781
-0.031681554
-0.029014713
-0.026192905
-0.023222785
-0.020112111
-0.016869537
-0.013504704
-0.010027931
-0.0064503472
-0.0027834996
0.00096046567
0.0047693432
0.0086306269
0.012532033
0.016461212
0.020406378
0.024355961
0.028299234
0.032225958
0.036126938
0.039993742
0.043819068
0.047596622
0.051321056
0.05498852
0.058595706
0.062141693
0.065625191
0.069049016
0.072413793
0.075728127
0.078994571
0.082232134
0.085445498
0.088674139
0.091924414
0.0952769
0.098734385
0.10245843
0.10642352
0.11094717
0.11588979
0.12187206
0.12839341
0.13670525
0.14532069
0.15692537
0.16761707
0.18334151
0.19506935
0.21438301
0.22569651
0.23800826
-0.0013152827
-0.00052699639
-0.0023179191
-0.0022536881
-0.0035708513
-0.0039291556
-0.0050233687
-0.0056296281
-0.0066354799
-0.0073975423
-0.0083831513
-0.0092484068
-0.010241117
-0.011171438
-0.012180507
-0.013184089
-0.014254286
-0.015320794
-0.016407658
-0.017501729
-0.018628671
-0.019767673
-0.020924745
-0.022094207
-0.02328184
-0.024482131
-0.025697448
-0.026923612
-0.028160481
-0.029404337
-0.030653371
-0.031903942
-0.033153204
-0.0343974
-0.035633088
-0.036856351
-0.038063403
-0.039250214
-0.040412817
-0.041547103
-0.042649011
-0.043714325
-0.044738883
-0.045718309
-0.046648202
-0.047523927
-0.048340704
-0.049093486
-0.049776982
-0.05038561
-0.050913502
-0.051354487
-0.051702133
-0.051949755
-0.052090468
-0.052117254
-0.052023023
-0.051800702
-0.051443327
-0.050944148
-0.050296718
-0.049495029
-0.048533587
-0.047407554
-0.046112812
-0.044646102
-0.043005064
-0.041188359
-0.039195692
-0.037027913
-0.034686988
-0.032176103
-0.029499571
-0.026662929
-0.023672781
-0.020536911
-0.017264006
-0.013863854
-0.010346879
-0.0067244994
-0.0030084293
0.0007889036
0.0046549297
0.0085766871
0.012541443
0.016536417
0.020549455
0.024568588
0.028582807
0.032581532
0.036555374
0.040495629
0.044394881
0.04824673
0.052046094
0.055789402
0.05947398
0.063099371
0.066665372
0.070175593
0.073632429
0.077045361
0.080419593
0.083774494
0.087118313
0.090488655
0.093896187
0.097413373
0.10104783
0.1049386
0.1090672
0.11369871
0.11871353
0.12461947
0.13098852
0.13882389
0.14688706
0.15725198
0.16681309
0.17983404
0.1897257
0.2036669
0.21225155
0.21842216
-0.0018074191
-0.00039535865
-0.0024864853
-0.0022073444
-0.0036147692
-0.0038947907
-0.005005324
-0.0055770483
-0.0065713664
-0.0073070792
-0.0082650007
-0.0091096108
-0.010086858
-0.011025614
-0.012043004
-0.013034656
-0.014070904
-0.015108672
-0.016189433
-0.017279274
-0.0183918
-0.019515884
-0.020662381
-0.021822574
-0.023000908
-0.024192895
-0.025400154
-0.026619247
-0.027849809
-0.029088569
-0.030333745
-0.031582018
-0.032830666
-0.034076195
-0.035315328
-0.036544374
-0.037759718
-0.038957523
-0.04013397
-0.041285094
-0.04240694
-0.043495369
-0.044546261
-0.045555241
-0.046517867
-0.047429417
-0.048284981
-0.049079331
-0.049806951
-0.050461985
-0.051038247
-0.051529206
-0.051928027
-0.052227588
-0.052420533
-0.052499348
-0.052456423
-0.052284156
-0.051975042
-0.051521792
-0.050917426
-0.050155419
-0.049229781
-0.048135205
-0.046867137
-0.045421924
-0.04379685
-0.041990275
-0.040001644
-0.037831609
-0.035481985
-0.032955876
-0.030257556
-0.027392606
-0.024367712
-0.021190823
-0.017870849
-0.014417855
-0.010842643
-0.0071569987
-0.0033731656
0.00049571284
0.0044365909
0.0084359494
0.01248059
0.016556953
0.020652291
0.024753841
0.02884999
0.032929448
0.036982345
0.040999482
0.04497338
0.048897354
0.052766195
0.056576014
0.06032423
0.064010444
0.067634993
0.071201579
0.074713621
0.078180823
0.081610133
0.085020892
0.088424246
0.091856464
0.095332636
0.098919749
0.10263172
0.10659126
0.11078957
0.11545055
0.12047634
0.12628114
0.13250653
0.1399494
0.14760358
0.15706349
0.16593176
0.17728563
0.1864033
0.19780587
0.20561022
0.20976167
-0.0023257895
-0.00024743946
-0.0026652803
-0.0021596941
-0.0036540286
-0.0038479179
-0.0049700186
-0.0055037766
-0.0064889931
-0.0072104093
-0.0081661434
-0.0090008338
-0.0099571234
-0.010863317
-0.01184439
-0.012816108
-0.0138412
-0.01486858
-0.015925878
-0.016993458
-0.018088428
-0.019197411
-0.020327203
-0.02147173
-0.022635005
-0.023812908
-0.025006958
-0.02621396
-0.027433575
-0.028662847
-0.029900123
-0.031142411
-0.032387185
-0.033631256
-0.034871579
-0.036104742
-0.037327361
-0.038535833
-0.039726535
-0.040895675
-0.04203943
-0.043153747
-0.044234546
-0.045277442
-0.046277925
-0.04723115
-0.048132024
-0.048975082
-0.049754513
-0.050464113
-0.051097292
-0.051647074
-0.05210613
-0.052466807
-0.052721189
-0.05286117
-0.052878534
-0.052765058
-0.052512616
-0.052113301
-0.051559525
-0.05084418
-0.049960713
-0.048903296
-0.047666886
-0.046247391
-0.044641701
-0.042847841
-0.040864968
-0.038693517
-0.036335133
-0.033792831
-0.031070842
-0.028174798
-0.02511147
-0.021889021
-0.018516557
-0.015004563
-0.011364081
-0.0076076476
-0.0037477871
0.00020197053
0.004227851
0.0083154339
0.012450597
0.016619061
0.020807427
0.025002261
0.029191483
0.033363221
0.037507284
0.041613954
0.045675261
0.04968404
0.053635259
0.057525332
0.061352222
0.065115669
0.068816712
0.072459587
0.076048821
0.079594421
0.0831048
0.08659884
0.090089186
0.093609427
0.097175821
0.10084743
0.10463892
0.10865415
0.11288661
0.11751992
0.12246946
0.12806609
0.13400644
0.14090841
0.14795011
0.15631338
0.16414087
0.17354936
0.18119131
0.18974718
0.19580011
0.19837128
-0.0027997904
-9.8668265e-05
-0.0028237348
-0.0020924999
-0.0036812118
-0.0037877821
-0.0049271984
-0.0054190423
-0.0063914045
-0.0070797243
-0.0080045194
-0.0088110413
-0.0097455862
-0.010637911
-0.011603999
-0.012555766
-0.013553173
-0.014555206
-0.015593095
-0.016642945
-0.01771833
-0.018808463
-0.019921034
-0.021049766
-0.022198132
-0.02336255
-0.0245442
-0.025740405
-0.026950799
-0.028172851
-0.029405066
-0.030644827
-0.031889848
-0.033137279
-0.03438434
-0.035627916
-0.036864868
-0.038091831
-0.039305372
-0.040501851
-0.041677543
-0.042828446
-0.043950462
-0.045039131
-0.046089796
-0.047097407
-0.04805659
-0.04896154
-0.04980604
-0.050583421
-0.051286574
-0.05190795
-0.052439608
-0.052873243
-0.053200257
-0.053411845
-0.053499076
-0.05345301
-0.053264809
-0.052925874
-0.052427946
-0.051763281
-0.050924731
-0.04990592
-0.048701312
-0.047306382
-0.045717645
-0.043932829
-0.041950846
-0.039771978
-0.037397766
-0.034831223
-0.032076622
-0.029139748
-0.026027573
-0.022748554
-0.019312186
-0.01572935
-0.012011764
-0.0081722254
-0.0042241233
-0.00018244309
0.0039384674
0.0081236042
0.012358486
0.016627596
0.020916789
0.025211463
0.029498717
0.033765631
0.038001254
0.042195135
0.046339671
0.050427577
0.054453589
0.058413424
0.062304925
0.066128132
0.069884704
0.073578786
0.077215728
0.080805729
0.084358202
0.087891786
0.091420564
0.094976384
0.098577302
0.10227693
0.10609217
0.11011304
0.11433741
0.11891759
0.12378361
0.12919982
0.13491541
0.14140747
0.14802016
0.15562618
0.16281801
0.17103996
0.17794242
0.18501903
0.19029535
0.19207373
-0.0032086055
3.2071786e-05
-0.0029625068
-0.0020273244
-0.0036909737
-0.0037121998
-0.0048596459
-0.0053089024
-0.0062684932
-0.0069315765
-0.0078396858
-0.0086237964
-0.0095323336
-0.010394944
-0.01132975
-0.012255837
-0.013229805
-0.014209701
-0.015221898
-0.016247325
-0.017299548
-0.0183683
-0.019459783
-0.020568846
-0.021698589
-0.022845904
-0.024011916
-0.025194299
-0.02639279
-0.027605227
-0.02883033
-0.030065851
-0.031309786
-0.032559638
-0.033812924
-0.035066844
-0.03631853
-0.037564867
-0.038802626
-0.040028324
-0.041238337
-0.042428705
-0.043595297
-0.044733562
-0.045838671
-0.046905331
-0.047927853
-0.048900047
-0.049815241
-0.05066625
-0.05144539
-0.052144485
-0.05275492
-0.053267683
-0.053673436
-0.053962617
-0.054125525
-0.054152457
-0.054033813
-0.053760257
-0.05332282
-0.052713085
-0.051923276
-0.050946445
-0.049776533
-0.048408567
-0.046838665
-0.045064244
-0.043083959
-0.04089793
-0.038507584
-0.035915931
-0.033127279
-0.030147585
-0.026983992
-0.023645345
-0.020141409
-0.01648378
-0.012684225
-0.0087572913
-0.0047164926
-0.00057653286
0.0036471187
0.0079379231
0.012279708
0.01665622
0.021052504
0.025453137
0.029844749
0.034213725
0.038549009
0.04283966
0.047076844
0.051251966
0.055360022
0.059397615
0.063363426
0.067256976
0.071080136
0.074837668
0.078535551
0.082183787
0.085792621
0.089379761
0.09295962
0.096561271
0.10020235
0.10392958
0.10775882
0.11176529
0.11594701
0.12042659
0.12514308
0.13030194
0.1356927
0.14167232
0.14771368
0.15443719
0.16077583
0.16767422
0.1735125
0.17906034
0.18330891
0.18462792
-0.0035180482
0.00014747741
-0.0030632932
-0.001954395
-0.0036822229
-0.0036259164
-0.0047791822
-0.0051848215
-0.0061266549
-0.0067555463
-0.007635452
-0.0083898445
-0.0092720383
-0.0101105
-0.011020593
-0.011921036
-0.012866801
-0.013819905
-0.014806929
-0.015808624
-0.016837301
-0.017883769
-0.018954222
-0.02004387
-0.0211556
-0.022286729
-0.023438308
-0.02460843
-0.025796947
-0.027002093
-0.02822283
-0.029457291
-0.030703773
-0.031960134
-0.033224198
-0.034493476
-0.035765363
-0.037036986
-0.038305298
-0.039566956
-0.040818403
-0.042055692
-0.043274622
-0.044470506
-0.045638294
-0.046772404
-0.047866774
-0.048914771
-0.049909208
-0.050842318
-0.051705775
-0.05249071
-0.053187765
-0.053787151
-0.054278725
-0.054652103
-0.054896753
-0.055002148
-0.054957876
-0.054753817
-0.054380251
-0.053828059
-0.053088809
-0.052154966
-0.051019939
-0.049678309
-0.048125803
-0.046359548
-0.04437796
-0.042181033
-0.039770115
-0.037148263
-0.034319867
-0.031291106
-0.0280694
-0.024663934
-0.021085021
-0.017344592
-0.013455816
-0.0094322184
-0.0052884956
-0.0010429885
0.0032883741
0.0076891506
0.01214372
0.016633666
0.021143242
0.025655456
0.030155957
0.034629701
0.039064155
0.043446889
0.047770929
0.052028596
0.056214429
0.060323054
0.064352187
0.068302592
0.072177351
0.075980311
0.079718155
0.083401262
0.087040094
0.090652056
0.09425206
0.097867258
0.10151568
0.1052391
0.10905365
0.11302346
0.11714842
0.12152819
0.12611194
0.13105941
0.13619792
0.1417929
0.14742836
0.15353929
0.15932762
0.16538645
0.17060556
0.17526525
0.17892487
0.17988321
-0.0037312857
0.00023977454
-0.0031297211
-0.0018823932
-0.003654123
-0.003529376
-0.0046813682
-0.0050463328
-0.005970545
-0.0065695712
-0.0074261113
-0.0081525787
-0.0090062721
-0.0098146275
-0.010694056
-0.011565851
-0.012483543
-0.013409683
-0.014369039
-0.015344277
-0.016347305
-0.017369666
-0.018416998
-0.019485172
-0.020576915
-0.021689977
-0.022825457
-0.023981818
-0.025159085
-0.026355869
-0.027571396
-0.028804174
-0.030052812
-0.031315528
-0.032590456
-0.033875424
-0.035168098
-0.036465845
-0.037765808
-0.039064782
-0.040359283
-0.041645371
-0.042918777
-0.044174672
-0.045407785
-0.046612231
-0.047781568
-0.048908707
-0.049985929
-0.05100487
-0.051956538
-0.052831346
-0.053619167
-0.054309404
-0.054891076
-0.055352941
-0.055683601
-0.055871666
-0.055905873
-0.05577528
-0.055469377
-0.054978305
-0.054292938
-0.05340512
-0.052307694
-0.050994762
-0.049461629
-0.047705105
-0.045723336
-0.043516171
-0.041084848
-0.038432459
-0.035563442
-0.032484227
-0.029202387
-0.025727678
-0.022070622
-0.018244266
-0.014260425
-0.010137737
-0.0058906937
-0.0015337983
0.0029140042
0.0074327683
0.012005381
0.016613514
0.021240677
0.025868907
0.030483482
0.03506838
0.039612028
0.044100795
0.048523768
0.052870759
0.057136834
0.061319919
0.06542022
0.069435824
0.073368643
0.077224397
0.081010174
0.084735214
0.088410949
0.092053469
0.095677443
0.099307534
0.10296058
0.10667276
0.11045851
0.11437069
0.11840866
0.12265086
0.12705286
0.13173476
0.1365528
0.141697
0.14683744
0.15226618
0.15738942
0.16255811
0.16703428
0.1708358
0.17388255
0.1746795
-0.0038472115
0.0003116524
-0.0031565576
-0.0018081876
-0.0036066496
-0.0034248312
-0.0045701666
-0.004895994
-0.0057985071
-0.0063643023
-0.0071927083
-0.0078886623
-0.0087137608
-0.0094938653
-0.010344927
-0.011188389
-0.012077037
-0.01297514
-0.013907167
-0.014856346
-0.015834073
-0.016832563
-0.01785736
-0.018904757
-0.019977446
-0.02107356
-0.02219427
-0.023338415
-0.024506214
-0.025696652
-0.026909236
-0.028142843
-0.029396402
-0.030668481
-0.031957527
-0.033261675
-0.034578854
-0.035906666
-0.037242433
-0.038583079
-0.039925179
-0.041264797
-0.042597579
-0.043918546
-0.045222188
-0.046502308
-0.047752065
-0.048963895
-0.050129526
-0.051239968
-0.052285535
-0.05325589
-0.054140095
-0.054926707
-0.055603858
-0.056159402
-0.056581023
-0.056856418
-0.05697342
-0.056920217
-0.056685456
-0.056258498
-0.055629479
-0.054789589
-0.053731071
-0.052447529
-0.050933821
-0.049186437
-0.047203242
-0.044983949
-0.042529683
-0.039843602
-0.036930211
-0.033796186
-0.030449455
-0.026900036
-0.02315915
-0.019239852
-0.01515846
-0.010926679
-0.0065651251
-0.0020929064
0.0024740788
0.007115852
0.011814001
0.016547616
0.021299168
0.026048767
0.030780761
0.035477616
0.040126573
0.044714181
0.049231846
0.053670159
0.058022791
0.062280761
0.066442534
0.070511221
0.074492847
0.07838893
0.082207066
0.085958318
0.08965292
0.093306933
0.09693511
0.10056005
0.10419852
0.10788238
0.11162561
0.11547258
0.11942343
0.1235404
0.12778617
0.13225072
0.13681644
0.14161704
0.14639378
0.15133471
0.15600055
0.16057144
0.16456139
0.16780737
0.17043699
0.17104607
-0.0038829567
0.00036220875
-0.0031502583
-0.0017354104
-0.0035416466
-0.003313942
-0.0044464648
-0.00473737
-0.0056176294
-0.0061530991
-0.0069549261
-0.0076212709
-0.0084168602
-0.0091666191
-0.0099871481
-0.010800918
-0.011660123
-0.012529688
-0.013433366
-0.014355336
-0.015306734
-0.016280362
-0.017281586
-0.018307175
-0.019359821
-0.020438041
-0.02154314
-0.02267431
-0.023832001
-0.025015557
-0.026224781
-0.027458909
-0.0287172
-0.029998569
-0.031301782
-0.032625282
-0.033967272
-0.035325594
-0.03669776
-0.038080833
-0.039471467
-0.040865737
-0.042259223
-0.043646812
-0.045022772
-0.046380605
-0.047713086
-0.049012181
-0.050269072
-0.05147414
-0.052617001
-0.053686551
-0.054671026
-0.055558106
-0.056335006
-0.056988638
-0.057505721
-0.057872991
-0.058077323
-0.058105981
-0.057946711
-0.057588037
-0.057019298
-0.056230982
-0.055214672
-0.053963431
-0.05247162
-0.050735371
-0.048752219
-0.046521716
-0.044044834
-0.041324777
-0.038366058
-0.035175696
-0.031761574
-0.028134606
-0.024306322
-0.020291363
-0.016103281
-0.011762699
-0.0072831107
-0.0026856538
0.0020109615
0.0067841881
0.011614984
0.016480943
0.021363829
0.026242095
0.031099575
0.035917059
0.040681557
0.045377292
0.049994596
0.054522508
0.058957225
0.063294044
0.067531733
0.07166441
0.075695623
0.07963483
0.083490794
0.087269942
0.090985413
0.094651491
0.098282258
0.10189868
0.10551582
0.1091614
0.11284765
0.11661076
0.12045026
0.12441389
0.12846911
0.13268056
0.13695096
0.14136961
0.1457334
0.15015484
0.15431289
0.15827889
0.16175066
0.16448687
0.16673432
0.16727145
-0.0038516487
0.00039550196
-0.003112339
-0.0016622431
-0.0034596206
-0.0031968303
-0.0043106329
-0.0045692679
-0.0054241348
-0.0059285816
-0.0067016312
-0.0073377153
-0.0081037815
-0.0088240432
-0.0096150434
-0.010399584
-0.011229484
-0.012070577
-0.012946368
-0.013841607
-0.014767225
-0.015716524
-0.016694848
-0.017699358
-0.018732814
-0.019794085
-0.020884634
-0.022004004
-0.023152884
-0.024330976
-0.025538386
-0.02677471
-0.028039535
-0.029332126
-0.030651566
-0.031996611
-0.03336574
-0.034757038
-0.036168213
-0.03759648
-0.039038574
-0.040490598
-0.041948077
-0.043405773
-0.044857745
-0.046297204
-0.047716543
-0.049107265
-0.050459997
-0.051764486
-0.05300963
-0.054183534
-0.055273575
-0.056266517
-0.057148608
-0.057905764
-0.058523676
-0.058988059
-0.059284759
-0.059400048
-0.059320703
-0.05903435
-0.058529468
-0.057795786
-0.056824177
-0.055607126
-0.054138454
-0.052413914
-0.050430683
-0.048188152
-0.045687106
-0.042930827
-0.039923837
-0.036673385
-0.033187989
-0.029478508
-0.025557329
-0.021440534
-0.017142726
-0.012681208
-0.0080752381
-0.0033466755
0.0014854042
0.0063970348
0.011368177
0.016373979
0.021395275
0.026408157
0.031395765
0.036336895
0.041218191
0.046022757
0.050741511
0.055362384
0.059880391
0.064288217
0.068586439
0.072776489
0.076859938
0.080835832
0.084714764
0.088512247
0.092236017
0.095900987
0.09952199
0.10311713
0.10670203
0.11030051
0.11392443
0.1176037
0.12133827
0.12516499
0.12905632
0.13305803
0.13709052
0.14121041
0.14525888
0.14929398
0.15308115
0.15661563
0.15971618
0.16208961
0.16404509
0.16447369
-0.0037717291
0.00041376014
-0.0030497803
-0.0015900737
-0.0033634172
-0.0030752443
-0.0041650974
-0.0043954383
-0.0052238773
-0.005699416
-0.0064440107
-0.0070505162
-0.0077866521
-0.0084767677
-0.0092374142
-0.0099921399
-0.010792406
-0.011604657
-0.012452073
-0.013320015
-0.014219296
-0.015143679
-0.016098499
-0.017081301
-0.018094948
-0.019138653
-0.020214071
-0.021321086
-0.02246065
-0.023632818
-0.024838008
-0.026076176
-0.027347249
-0.028650844
-0.029986374
-0.03135292
-0.032749248
-0.03417371
-0.035624229
-0.037098193
-0.038592449
-0.040103151
-0.041625803
-0.043155069
-0.044684827
-0.04620802
-0.047716683
-0.049201871
-0.050653666
-0.052061181
-0.053412589
-0.054695189
-0.05589547
-0.056999245
-0.057991749
-0.058857845
-0.059582136
-0.060149244
-0.060543913
-0.06075135
-0.060757281
-0.060548361
-0.060112129
-0.059437496
-0.058514549
-0.057335145
-0.0558925
-0.054181955
-0.052200269
-0.049946645
-0.047421649
-0.044628602
-0.041571992
-0.038259653
-0.034699127
-0.030904212
-0.02688728
-0.022662712
-0.018246714
-0.013660096
-0.008920379
-0.0040517768
0.00092550661
0.0059848844
0.011105544
0.016260139
0.02142886
0.026585254
0.031712032
0.036785545
0.041792261
0.046712963
0.051538582
0.056255649
0.060860392
0.06534551
0.069711377
0.073955507
0.078083679
0.082102885
0.086014545
0.089826699
0.09355731
0.097219481
0.10082549
0.10439434
0.10793873
0.11148026
0.11502904
0.11860944
0.12222106
0.12589128
0.12959626
0.13336649
0.13713646
0.14093833
0.14464841
0.14828786
0.15168881
0.15480309
0.15753714
0.15958943
0.16129461
0.16168309
-0.0036566153
0.00042123447
-0.0029660435
-0.0015172268
-0.0032536853
-0.0029482341
-0.0040090166
-0.0042136215
-0.0050132132
-0.0054601438
-0.0061750486
-0.0067520069
-0.0074581498
-0.0081186086
-0.0088493758
-0.0095746838
-0.010345614
-0.011129295
-0.011948715
-0.012789735
-0.013663094
-0.014562969
-0.015494743
-0.016456313
-0.017450674
-0.018477373
-0.019538272
-0.020633592
-0.021764558
-0.022931579
-0.024135393
-0.025376322
-0.026654638
-0.027970318
-0.029323117
-0.03071245
-0.032137389
-0.033596567
-0.035088145
-0.036609706
-0.038158234
-0.03972996
-0.041320393
-0.042924126
-0.044534879
-0.046145349
-0.04774723
-0.049331135
-0.050886604
-0.052402112
-0.053865087
-0.055261993
-0.056578394
-0.057799101
-0.058908275
-0.059889656
-0.060726684
-0.061402803
-0.06190157
-0.062207039
-0.062303799
-0.062177454
-0.061814523
-0.061203035
-0.06033222
-0.05919327
-0.057778734
-0.056083528
-0.054103935
-0.051838996
-0.04928896
-0.046457305
-0.043348344
-0.039969869
-0.036331807
-0.032447385
-0.028326653
-0.023988248
-0.019447722
-0.01472681
-0.009844886
-0.0048279792
0.00030296794
0.0055188668
0.010798125
0.016110254
0.02143481
0.026742115
0.032014573
0.037225632
0.042361875
0.047401836
0.052337004
0.057152075
0.061843564
0.066402765
0.070831383
0.075127803
0.079297339
0.083342388
0.08727647
0.091104264
0.094834203
0.098482485
0.10206723
0.10560077
0.10909895
0.11257925
0.11605199
0.11953713
0.12303455
0.12656479
0.13010758
0.13368229
0.13723519
0.14078079
0.14422248
0.14755534
0.15065899
0.15345606
0.15590886
0.15771429
0.15921312
0.15953407
-0.0035195144
0.00042061581
-0.0028669321
-0.0014442091
-0.0031333096
-0.0028173119
-0.0038449456
-0.004026815
-0.0047963705
-0.0052161588
-0.0059011803
-0.0064490846
-0.0071249395
-0.0077555427
-0.0084560068
-0.0091515782
-0.009892868
-0.010647659
-0.011438706
-0.012252375
-0.013099357
-0.013974223
-0.014882422
-0.015822192
-0.016796686
-0.017805776
-0.018851554
-0.019934576
-0.021056359
-0.022217663
-0.023419565
-0.024662756
-0.025947868
-0.027275252
-0.028645022
-0.03005695
-0.031510437
-0.033004424
-0.034537342
-0.036107002
-0.037710561
-0.039344366
-0.041003966
-0.042683922
-0.044377829
-0.046078171
-0.047776321
-0.049462472
-0.051125632
-0.052753629
-0.054333139
-0.055849766
-0.057288107
-0.058631924
-0.059864238
-0.0609676
-0.061924194
-0.062716207
-0.063325905
-0.063736103
-0.063930146
-0.063892503
-0.063608576
-0.06306544
-0.062251386
-0.061156884
-0.05977375
-0.058096434
-0.056120697
-0.053845361
-0.051270402
-0.048399207
-0.045236261
-0.041789774
-0.038071578
-0.034091
-0.029862375
-0.025403298
-0.020730488
-0.015867776
-0.010834481
-0.0056593596
-0.00036398412
0.0050192196
0.010468138
0.015948597
0.021439857
0.026908425
0.032336736
0.037694634
0.042969108
0.048135612
0.05318643
0.058104137
0.062886534
0.067523687
0.07201822
0.076367139
0.080577552
0.08465351
0.088603639
0.092437732
0.096169485
0.099804608
0.1033585
0.10685252
0.11029579
0.11370623
0.11709249
0.12047088
0.12384152
0.1272189
0.13058587
0.13395311
0.13727665
0.14055866
0.14372435
0.14675289
0.14956078
0.15205769
0.1542457
0.15583725
0.15716445
0.15745912
-0.003369289
0.0004152719
-0.0027555117
-0.0013695362
-0.0030028639
-0.0026812745
-0.0036719013
-0.0038328753
-0.0045705393
-0.0049636422
-0.0056179085
-0.0061369111
-0.0067823026
-0.0073832981
-0.0080536051
-0.008719648
-0.0094314411
-0.010157487
-0.010920317
-0.011706778
-0.012527528
-0.013377511
-0.014262266
-0.015180359
-0.016135115
-0.017126727
-0.01815753
-0.019228414
-0.020341197
-0.021497001
-0.022697246
-0.023943006
-0.025235286
-0.026574828
-0.027962124
-0.029397322
-0.030880179
-0.032409971
-0.033985431
-0.035604632
-0.037264942
-0.038962857
-0.040694008
-0.042452955
-0.044233204
-0.046027051
-0.047825573
-0.049618555
-0.051394472
-0.053140505
-0.054842551
-0.05648532
-0.058052396
-0.059526429
-0.060889224
-0.062122057
-0.063205761
-0.064121164
-0.064849133
-0.065371138
-0.065669175
-0.065726487
-0.065527256
-0.065057538
-0.064304597
-0.06325815
-0.061909197
-0.060251734
-0.058280895
-0.055995403
-0.053394647
-0.05048265
-0.047262475
-0.043747468
-0.039941793
-0.035861313
-0.031517451
-0.026930822
-0.022117619
-0.017103902
-0.011909528
-0.0065661828
-0.0010958091