/*--------------------------------*- C++ -*----------------------------------*\
| =========                 |                                                 |
| \\      /  F ield         | foam-extend: Open Source CFD                    |
|  \\    /   O peration     | Version:     4.1                                |
|   \\  /    A nd           | Web:         http://www.foam-extend.org         |
|    \\/     M anipulation  |                                                 |
\*---------------------------------------------------------------------------*/
FoamFile
{
    version     2.0;
    format      ascii;
    class       surfaceScalarField;
    location    "2.9";
    object      phi;
}
// * * * * * * * * * * * * * * * * * * * * * * * * * * * * * * * * * * * * * //

dimensions      [0 3 -1 0 0 0 0];

internalField   nonuniform List<scalar> 
31929
(
-2.6945713e-05
-5.9938025e-08
-2.684776e-05
-9.795265e-08
-2.6789026e-05
-5.8734137e-08
-2.6699057e-05
-8.9968786e-08
-2.6618974e-05
-8.0083765e-08
-2.6524415e-05
-9.4558269e-08
-2.642911e-05
-9.5305003e-08
-2.632823e-05
-1.0087999e-07
-2.6224647e-05
-1.0358367e-07
-2.6119771e-05
-1.0487614e-07
-2.6013482e-05
-1.0628899e-07
-2.5908604e-05
-1.0487742e-07
-2.5804763e-05
-1.0384157e-07
-2.5704571e-05
-1.0019171e-07
-2.5607948e-05
-9.6622727e-08
-2.5517077e-05
-9.0871399e-08
-2.5432052e-05
-8.5025027e-08
-2.5354754e-05
-7.7297539e-08
-2.528599e-05
-6.876416e-08
-2.5227073e-05
-5.8917264e-08
-2.517821e-05
-4.8862759e-08
-2.5140717e-05
-3.749295e-08
-2.511667e-05
-2.4046648e-08
-2.5107978e-05
-8.6920159e-09
-2.5116322e-05
8.3432052e-09
-2.5142136e-05
2.5814828e-08
-2.5184653e-05
4.2516593e-08
-2.5244312e-05
5.9659262e-08
-2.5321877e-05
7.7565135e-08
-2.541842e-05
9.6542471e-08
-2.5535033e-05
1.1661276e-07
-2.5672848e-05
1.3781551e-07
-2.5832951e-05
1.6010291e-07
-2.6016399e-05
1.8344847e-07
-2.6224183e-05
2.0778367e-07
-2.6457223e-05
2.3303948e-07
-2.6716344e-05
2.5912164e-07
-2.700227e-05
2.8592541e-07
-2.7315602e-05
3.1333205e-07
-2.7656811e-05
3.4120949e-07
-2.8026233e-05
3.6942212e-07
-2.8424052e-05
3.9781907e-07
-2.8850308e-05
4.2625544e-07
-2.9304882e-05
4.5457415e-07
-2.9787503e-05
4.8262081e-07
-3.029774e-05
5.102377e-07
-3.0835006e-05
5.3726591e-07
-3.1398551e-05
5.6354524e-07
-3.1987463e-05
5.8891128e-07
-3.2600661e-05
6.1319859e-07
-3.3236899e-05
6.3623752e-07
-3.3894754e-05
6.5785563e-07
-3.4572632e-05
6.7787805e-07
-3.5268762e-05
6.961295e-07
-3.5981196e-05
7.1243363e-07
-3.6707815e-05
7.2661938e-07
-3.7446336e-05
7.3852146e-07
-3.8194321e-05
7.4798483e-07
-3.894919e-05
7.5486874e-07
-3.9708241e-05
7.5905128e-07
-4.0468672e-05
7.6043064e-07
-4.1227605e-05
7.5893285e-07
-4.1982117e-05
7.5451236e-07
-4.2729273e-05
7.4715615e-07
-4.3466159e-05
7.3688565e-07
-4.4189918e-05
7.2375916e-07
-4.4897791e-05
7.0787339e-07
-4.5587153e-05
6.8936166e-07
-4.625555e-05
6.6839733e-07
-4.6900741e-05
6.4519099e-07
-4.7520731e-05
6.1998947e-07
-4.8113806e-05
5.9307476e-07
-4.8678567e-05
5.6476145e-07
-4.921396e-05
5.3539256e-07
-4.9719298e-05
5.053382e-07
-5.0194289e-05
4.7499123e-07
-5.0639051e-05
4.4476195e-07
-5.1054127e-05
4.1507616e-07
-5.1440495e-05
3.8636762e-07
-5.1799571e-05
3.5907599e-07
-5.213321e-05
3.3363896e-07
-5.2443702e-05
3.1049197e-07
-5.2733759e-05
2.9005761e-07
-5.3006508e-05
2.7274852e-07
-5.3265466e-05
2.589582e-07
-5.3514532e-05
2.4906619e-07
-5.375796e-05
2.4342741e-07
-5.4000344e-05
2.4238452e-07
-5.42466e-05
2.4625621e-07
-5.4501958e-05
2.5535724e-07
-5.4771943e-05
2.6998543e-07
-5.5062394e-05
2.904514e-07
-5.5379457e-05
3.1706273e-07
-5.5729631e-05
3.5017338e-07
-5.6119784e-05
3.9015375e-07
-5.6557262e-05
4.3747779e-07
-5.7049932e-05
4.9267022e-07
-5.7606405e-05
5.5647296e-07
-5.8236146e-05
6.297403e-07
-5.8949931e-05
7.1378543e-07
-5.9760097e-05
8.1016628e-07
-6.0681515e-05
9.2141799e-07
-6.1732113e-05
1.0505979e-06
-6.2934947e-05
1.2028342e-06
-6.4319222e-05
1.3842749e-06
-6.5924518e-05
1.6052952e-06
-6.7802427e-05
1.8779095e-06
-7.0024638e-05
2.2222106e-06
-7.2684406e-05
2.6597682e-06
-7.5910718e-05
3.2263116e-06
-7.9865768e-05
3.9550499e-06
-8.4767641e-05
4.9018735e-06
-9.0872759e-05
6.105118e-06
-9.8511133e-05
7.638374e-06
-0.00010802959
9.5184612e-06
-0.00011985518
1.1825585e-05
-0.00013435139
1.4496212e-05
-0.00015197114
1.7619749e-05
-0.00017289946
2.092832e-05
-0.00019753481
2.4635349e-05
-0.00022530908
2.7774268e-05
-0.00025684415
3.1535076e-05
-0.00028730159
3.0457435e-05
3.5279013e-05
-8.124356e-05
-1.4234271e-07
-8.1081542e-05
-2.599709e-07
-8.0939669e-05
-2.0060714e-07
-8.0760144e-05
-2.6949355e-07
-8.0580878e-05
-2.5935012e-07
-8.038311e-05
-2.9232673e-07
-8.018018e-05
-2.9823419e-07
-7.9968983e-05
-3.1207779e-07
-7.9754187e-05
-3.183792e-07
-7.9537892e-05
-3.2117157e-07
-7.9322321e-05
-3.2185912e-07
-7.9110927e-05
-3.1627139e-07
-7.8905532e-05
-3.0923728e-07
-7.8709674e-05
-2.9604919e-07
-7.8525644e-05
-2.8065279e-07
-7.8357417e-05
-2.5909871e-07
-7.8207614e-05
-2.3482793e-07
-7.807928e-05
-2.0563119e-07
-7.7974245e-05
-1.7379948e-07
-7.7896556e-05
-1.3660637e-07
-7.7852182e-05
-9.3236405e-08
-7.7845699e-05
-4.3976512e-08
-7.7881206e-05
1.1460397e-08
-7.7958896e-05
6.8998027e-08
-7.8075042e-05
1.2448944e-07
-7.8230411e-05
1.8118408e-07
-7.8427444e-05
2.3954999e-07
-7.8668394e-05
3.0060847e-07
-7.8955547e-05
3.6471866e-07
-7.9291257e-05
4.32252e-07
-7.967789e-05
5.0324622e-07
-8.011783e-05
5.7775561e-07
-8.0613397e-05
6.5566928e-07
-8.1166818e-05
7.3686973e-07
-8.1780184e-05
8.2115003e-07
-8.2455398e-05
9.0825348e-07
-8.3194141e-05
9.9786469e-07
-8.3997816e-05
1.0895998e-06
-8.4867523e-05
1.1830391e-06
-8.5804002e-05
1.2776893e-06
-8.6807626e-05
1.3730462e-06
-8.7878341e-05
1.468534e-06
-8.9015671e-05
1.5635854e-06
-9.0218684e-05
1.6575866e-06
-9.1485985e-05
1.7499217e-06
-9.281571e-05
1.8399634e-06
-9.4205526e-05
1.9270812e-06
-9.5652629e-05
2.0106489e-06
-9.7153758e-05
2.0900399e-06
-9.87052e-05
2.1646413e-06
-0.00010030281
2.2338514e-06
-0.00010194205
2.2970865e-06
-0.00010361795
2.3537854e-06
-0.00010532524
2.4034197e-06
-0.0001070583
2.4454914e-06
-0.00010881123
2.4795523e-06
-0.00011057792
2.5052065e-06
-0.00011235205
2.5221209e-06
-0.00011412722
2.5300347e-06
-0.00011589694
2.5287714e-06
-0.00011765475
2.5182379e-06
-0.00011939426
2.4984426e-06
-0.00012110924
2.4694944e-06
-0.00012279369
2.4316094e-06
-0.00012444192
2.3851124e-06
-0.0001260486
2.330438e-06
-0.00012760886
2.2681335e-06
-0.00012911834
2.1988471e-06
-0.00013057328
2.1233344e-06
-0.00013197054
2.0424474e-06
-0.00013330768
1.9571287e-06
-0.00013458301
1.8684039e-06
-0.00013579562
1.7773749e-06
-0.00013694543
1.685204e-06
-0.0001380332
1.5931097e-06
-0.00013906056
1.5023537e-06
-0.00014003003
1.4142262e-06
-0.00014094499
1.3300389e-06
-0.00014180973
1.251108e-06
-0.0001426294
1.1787456e-06
-0.00014341001
1.1142435e-06
-0.00014415839
1.0588714e-06
-0.00014488218
1.0138555e-06
-0.00014558982
9.8038373e-07
-0.00014629045
9.5958763e-07
-0.00014699394
9.525548e-07
-0.00014771082
9.6031281e-07
-0.00014845229
9.8385703e-07
-0.00014923017
1.0241368e-06
-0.00015005692
1.0820989e-06
-0.00015094561
1.1586791e-06
-0.00015191002
1.2548618e-06
-0.00015296463
1.3716744e-06
-0.00015412474
1.5102828e-06
-0.00015540656
1.6719708e-06
-0.00015682737
1.858294e-06
-0.00015840574
2.0710365e-06
-0.00016016174
2.3124734e-06
-0.00016211726
2.5852547e-06
-0.00016429637
2.8928973e-06
-0.00016672572
3.2395143e-06
-0.00016943506
3.6307606e-06
-0.00017245765
4.0731904e-06
-0.00017583096
4.5761394e-06
-0.00017959684
5.1501607e-06
-0.00018380231
5.8107606e-06
-0.00018849901
6.5746142e-06
-0.00019374369
7.4668905e-06
-0.00019959598
8.5120578e-06
-0.00020611798
9.7483148e-06
-0.00021336852
1.1205582e-05
-0.00022140128
1.2934637e-05
-0.00023025235
1.4956183e-05
-0.0002399373
1.732333e-05
-0.0002504257
2.000686e-05
-0.00026164139
2.3041277e-05
-0.0002734077
2.626252e-05
-0.00028547013
2.9682175e-05
-0.00029736142
3.2819618e-05
-0.00030852428
3.57982e-05
-0.00031796282
3.7212816e-05
-0.00032462198
3.8194235e-05
-0.0003273806
3.3216054e-05
3.0479011e-05
-0.00013296334
-2.1831812e-07
-0.00013278901
-4.343045e-07
-0.00013262265
-3.6697045e-07
-0.00013242123
-4.7090809e-07
-0.00013221654
-4.6404347e-07
-0.00013199661
-5.1225323e-07
-0.00013177346
-5.2139066e-07
-0.00013154542
-5.4011798e-07
-0.00013131842
-5.4537112e-07
-0.00013109445
-5.4515007e-07
-0.00013087774
-5.3856572e-07
-0.00013067192
-5.2209245e-07
-0.00013048112
-5.0003421e-07
-0.00013030936
-4.6780926e-07
-0.00013016046
-4.2954941e-07
-0.0001300382
-3.8135811e-07
-0.00012994634
-3.2669401e-07
-0.00012989094
-2.6103024e-07
-0.00012987943
-1.8530976e-07
-0.00012991672
-9.9310909e-08
-0.00013000759
-2.3696594e-09
-0.00013015217
1.0059882e-07
-0.00013034389
2.0318872e-07
-0.00013058331
3.084168e-07
-0.00013087548
4.1665578e-07
-0.0001312239
5.2960596e-07
-0.00013163217
6.4781621e-07
-0.00013210334
7.7178508e-07
-0.00013264037
9.017486e-07
-0.00013324616
1.0380388e-06
-0.00013392356
1.1806458e-06
-0.00013467537
1.3295657e-06
-0.00013550427
1.4845634e-06
-0.00013641273
1.6453352e-06
-0.00013740303
1.8114481e-06
-0.00013847711
1.9823327e-06
-0.00013963657
2.1573309e-06
-0.0001408826
2.3356241e-06
-0.0001422159
2.5163386e-06
-0.00014363665
2.6984368e-06
-0.00014514447
2.8808688e-06
-0.00014673837
3.0624321e-06
-0.00014841672
3.2419424e-06
-0.00015017726
3.4181285e-06
-0.00015201706
3.5897159e-06
-0.00015393252
3.7554195e-06
-0.0001559194
3.9139613e-06
-0.00015797284
4.0640916e-06
-0.00016008738
4.2045854e-06
-0.00016225701
4.3342725e-06
-0.0001644752
4.452039e-06
-0.00016673496
4.5568422e-06
-0.00016902889
4.6477204e-06
-0.00017134929
4.7238144e-06
-0.00017368816
4.784361e-06
-0.00017603733
4.8287263e-06
-0.00017838853
4.8564076e-06
-0.00018073346
4.8670488e-06
-0.00018306388
4.8604503e-06
-0.00018537169
4.8365883e-06
-0.00018764906
4.7956039e-06
-0.00018988845
4.7378308e-06
-0.00019208274
4.6637875e-06
-0.00019422531
4.5741822e-06
-0.00019631011
4.4699108e-06
-0.00019833173
4.3520522e-06
-0.00020028546
4.2218699e-06
-0.0002021674
4.0807862e-06
-0.00020397446
3.9303893e-06
-0.00020570442
3.772412e-06
-0.00020735601
3.6087174e-06
-0.00020892889
3.4412851e-06
-0.00021042371
3.2721971e-06
-0.00021184212
3.1036092e-06
-0.00021318675
2.9377433e-06
-0.00021446126
2.7768642e-06
-0.00021567029
2.6232557e-06
-0.00021681946
2.4792069e-06
-0.00021791534
2.3469866e-06
-0.00021896542
2.2288254e-06
-0.00021997807
2.1268935e-06
-0.00022096249
2.0432937e-06
-0.00022192866
1.9800264e-06
-0.00022288728
1.9389988e-06
-0.00022384969
1.9219977e-06
-0.00022482784
1.9307057e-06
-0.0002258342
1.9666751e-06
-0.00022688171
2.031366e-06
-0.0002279837
2.1261248e-06
-0.00022915384
2.2522418e-06
-0.0002304061
2.4109397e-06
-0.00023175468
2.603446e-06
-0.000233214
2.8309899e-06
-0.00023479863
3.0949153e-06
-0.00023652332
3.3966561e-06
-0.00023840293
3.7379038e-06
-0.00024045245
4.1205605e-06
-0.00024268699
4.5470092e-06
-0.00024512172
5.0199849e-06
-0.00024777188
5.5430564e-06
-0.0002506527
6.1203339e-06
-0.00025377928
6.7573499e-06
-0.00025716647
7.4603752e-06
-0.00026082847
8.2381367e-06
-0.00026477846
9.100157e-06
-0.00026902781
1.0060107e-05
-0.00027358508
1.1131884e-05
-0.00027845429
1.2336099e-05
-0.000283633
1.369077e-05
-0.00028910884
1.5224155e-05
-0.00029485623
1.6952975e-05
-0.00030083037
1.8908773e-05
-0.00030696265
2.1088466e-05
-0.00031315188
2.3512562e-05
-0.00031925933
2.6114302e-05
-0.00032509886
2.888081e-05
-0.00033043218
3.1595841e-05
-0.00033496499
3.4214982e-05
-0.0003383385
3.6193134e-05
-0.00034014619
3.760589e-05
-0.00033995488
3.7021499e-05
-0.00033719229
3.5431649e-05
-0.00033227687
2.8300631e-05
2.0782945e-05
-0.00018001963
-2.5636252e-07
-0.00017988977
-5.6417056e-07
-0.00017976426
-4.9248121e-07
-0.00017961254
-6.2262386e-07
-0.00017946025
-6.1633313e-07
-0.00017930088
-6.7162643e-07
-0.00017914477
-6.7749603e-07
-0.00017899183
-6.9305924e-07
-0.00017884832
-6.8887853e-07
-0.00017871651
-6.7696448e-07
-0.00017860136
-6.5370987e-07
-0.00017850609
-6.1737043e-07
-0.00017843507
-5.7104746e-07
-0.00017839202
-5.108608e-07
-0.00017838228
-4.3928919e-07
-0.00017841201
-3.5162916e-07
-0.00017848748
-2.5122628e-07
-0.00017861254
-1.3596807e-07
-0.00017879159
-6.2653111e-09
-0.00017902375
1.3285027e-07
-0.00017930111
2.7498931e-07
-0.00017962398
4.2346858e-07
-0.00017999888
5.7809457e-07
-0.00018043128
7.4081225e-07
-0.00018092646
9.1183728e-07
-0.00018148811
1.0912573e-06
-0.00018211936
1.2790706e-06
-0.00018282333
1.4757541e-06
-0.00018360298
1.6813952e-06
-0.00018446116
1.8962238e-06
-0.00018540061
2.1200882e-06
-0.00018642387
2.3528289e-06
-0.00018753331
2.5939994e-06
-0.00018873098
2.8430073e-06
-0.00019001863
3.099104e-06
-0.0001913976
3.3613003e-06
-0.00019286877
3.6285002e-06
-0.00019443249
3.8993422e-06
-0.00019608856
4.1724052e-06
-0.00019783612
4.4460048e-06
-0.00019967371
4.7184598e-06
-0.00020159913
4.9878526e-06
-0.0002036095
5.2523103e-06
-0.00020570121
5.5098395e-06
-0.00020786995
5.758457e-06
-0.00021011072
5.9961845e-06
-0.00021241784
6.2210776e-06
-0.00021478501
6.4312634e-06
-0.00021720536
6.6249374e-06
-0.0002196715
6.8004119e-06
-0.00022217558
6.9561217e-06
-0.00022470939
7.0906465e-06
-0.00022726439
7.2027254e-06
-0.00022983187
7.2912887e-06
-0.00023240295
7.3554441e-06
-0.00023496875
7.3945228e-06
-0.00023752041
7.4080773e-06
-0.00024004926
7.395898e-06
-0.00024254683
7.3580205e-06
-0.000245005
7.2947492e-06
-0.00024741602
7.2066318e-06
-0.00024977269
7.0944936e-06
-0.00025206832
6.9594201e-06
-0.00025429689
6.8027572e-06
-0.00025645309
6.6261027e-06
-0.00025853233
6.4312943e-06
-0.00026053087
6.220408e-06
-0.0002624458
5.9957165e-06
-0.0002642751
5.7596962e-06
-0.00026601769
5.514995e-06
-0.00026767338
5.2644097e-06
-0.00026924296
5.010864e-06
-0.00027072815
4.7573891e-06
-0.00027213162
4.5070816e-06
-0.00027345697
4.2630922e-06
-0.0002747087
4.0285941e-06
-0.00027589219
3.8067479e-06
-0.00027701367
3.6006838e-06
-0.00027808015
3.4134653e-06
-0.00027909939
3.2480648e-06
-0.00028007982
3.1073292e-06
-0.0002810305
2.9939748e-06
-0.00028196102
2.9105378e-06
-0.0002828814
2.8593822e-06
-0.00028380206
2.8426585e-06
-0.00028473368
2.8623227e-06
-0.0002856871
2.9200985e-06
-0.00028667326
3.0175241e-06
-0.00028770305
3.1559184e-06
-0.00028878726
3.3364498e-06
-0.00028993644
3.5601153e-06
-0.00029116081
3.8278214e-06
-0.00029247019
4.140374e-06
-0.00029387388
4.4985991e-06
-0.00029538053
4.9033094e-06
-0.00029699811
5.3554771e-06
-0.00029873373
5.8561852e-06
-0.0003005936
6.4068832e-06
-0.00030258287
7.0092535e-06
-0.00030470546
7.6656479e-06
-0.00030696394
8.3788101e-06
-0.00030935922
9.1526318e-06
-0.00031189036
9.9915088e-06
-0.00031455401
1.0901786e-05
-0.00031734404
1.1890193e-05
-0.00032025054
1.2966606e-05
-0.00032325905
1.4140394e-05
-0.00032634864
1.5425688e-05
-0.00032949068
1.6832813e-05
-0.00033264532
1.8378792e-05
-0.00033575994
2.0067589e-05
-0.00033876347
2.1912305e-05
-0.00034156598
2.389098e-05
-0.00034405111
2.5997693e-05
-0.00034608069
2.8143881e-05
-0.00034748713
3.0287245e-05
-0.00034809124
3.2199959e-05
-0.00034769594
3.3819682e-05
-0.00034613982
3.4637007e-05
-0.00034326775
3.473382e-05
-0.00033916266
3.2916416e-05
-0.00033378186
3.0050848e-05
-0.00032844868
2.2967451e-05
1.4914861e-05
-0.00022123792
-2.2369594e-07
-0.0002212065
-5.9558747e-07
-0.00022118073
-5.1824999e-07
-0.00022114272
-6.6063657e-07
-0.00022111032
-6.4872529e-07
-0.0002210811
-7.0085449e-07
-0.0002210628
-6.9578915e-07
-0.00022105626
-6.9960711e-07
-0.00022106672
-6.7841507e-07
-0.00022109616
-6.4752125e-07
-0.00022114928
-6.0058826e-07
-0.00022122968
-5.3697328e-07
-0.00022134263
-4.5809863e-07
-0.00022149214
-3.6135549e-07
-0.00022168226
-2.4916792e-07
-0.00022191567
-1.1821424e-07
-0.00022219588
2.8985842e-08
-0.00022251977
1.8791626e-07
-0.00022288017
3.5413654e-07
-0.00022327914
5.3181697e-07
-0.00022372374
7.1959536e-07
-0.00022422008
9.1980612e-07
-0.00022477434
1.1323512e-06
-0.00022539041
1.3568887e-06
-0.0002260712
1.5926217e-06
-0.00022681985
1.8399118e-06
-0.00022763942
2.0986384e-06
-0.00022853273
2.3690678e-06
-0.00022950244
2.6510999e-06
-0.00023055097
2.9447565e-06
-0.00023168054
3.2496588e-06
-0.00023289311
3.5653997e-06
-0.00023419035
3.8912417e-06
-0.00023557357
4.226223e-06
-0.00023704368
4.5692146e-06
-0.00023860112
4.9187435e-06
-0.00024024585
5.2732295e-06
-0.00024197724
5.6307257e-06
-0.00024379407
5.9892399e-06
-0.00024569449
6.3464247e-06
-0.000247676
6.6999701e-06
-0.0002497354
7.0472551e-06
-0.00025186884
7.3857467e-06
-0.00025407177
7.7127694e-06
-0.000256339
8.0256844e-06
-0.0002586647
8.3218851e-06
-0.00026104246
8.5988369e-06
-0.00026346532
8.85413e-06
-0.00026592586
9.0854757e-06
-0.00026841622
9.2907725e-06
-0.00027092822
9.4681144e-06
-0.00027345339
9.6158192e-06
-0.00027598311
9.7324467e-06
-0.00027850866
9.8168387e-06
-0.00028102131
9.868096e-06
-0.00028351242
9.8856351e-06
-0.00028597353
9.8691804e-06
-0.00028839641
9.8187792e-06
-0.00029077319
9.7348046e-06
-0.00029309642
9.6179807e-06
-0.00029535913
9.4693416e-06
-0.00029755491
9.2902702e-06
-0.00029967796
9.0824693e-06
-0.00030172316
8.8479562e-06
-0.0003036861
8.5890471e-06
-0.00030556315
8.3083369e-06
-0.00030735143
8.0086937e-06
-0.00030904892
7.6932026e-06
-0.00031065439
7.3651718e-06
-0.00031216749
7.0280899e-06
-0.00031358867
6.685596e-06
-0.00031491926
6.3414507e-06
-0.00031616138
5.9995109e-06
-0.00031731798
5.6636771e-06
-0.00031839276
5.3378772e-06
-0.0003193902
5.0260294e-06
-0.00032031545
4.7319963e-06
-0.00032117433
4.4595633e-06
-0.00032197325
4.2123932e-06
-0.00032271918
3.9939956e-06
-0.00032341954
3.8076848e-06
-0.00032408214
3.6565707e-06
-0.00032471509
3.5434889e-06
-0.00032532672
3.4710163e-06
-0.00032592548
3.4414215e-06
-0.00032651985
3.4566878e-06
-0.0003271182
3.5184535e-06
-0.00032772875
3.628074e-06
-0.00032835941
3.7865711e-06
-0.00032901767
3.9947161e-06
-0.00032971056
4.2529976e-06
-0.00033044445
4.5617127e-06
-0.00033122503
4.9209539e-06
-0.00033205718
5.3307507e-06
-0.00033294489
5.7910226e-06
-0.00033389117
6.3017565e-06
-0.00033489794
6.8629556e-06
-0.00033596594
7.4748855e-06
-0.00033709464
8.1379509e-06
-0.00033828208
8.853085e-06
-0.00033952476
9.6214913e-06
-0.0003408174
1.0445275e-05
-0.00034215275
1.1326859e-05
-0.00034352111
1.2270144e-05
-0.00034491
1.3279082e-05
-0.00034630326
1.4359863e-05
-0.00034768049
1.5517631e-05
-0.00034901544
1.6760634e-05
-0.00035027529
1.8092659e-05
-0.00035141801
1.9521512e-05
-0.00035239229
2.1041876e-05
-0.00035313393
2.2653942e-05
-0.00035356843
2.4325483e-05
-0.00035360719
2.6036453e-05
-0.00035315725
2.769394e-05
-0.00035211754
2.9247534e-05
-0.00035040373
3.0486153e-05
-0.00034793776
3.1353706e-05
-0.00034471001
3.1409256e-05
-0.00034071309
3.0736908e-05
-0.00033617184
2.8375159e-05
-0.00033112622
2.5005235e-05
-0.00032664894
1.8490167e-05
1.084652e-05
-0.00025612544
-9.456084e-08
-0.0002562311
-4.8992545e-07
-0.00025634382
-4.0552719e-07
-0.00025645904
-5.4541611e-07
-0.00025658456
-5.2320841e-07
-0.00025672153
-5.6387732e-07
-0.00025687462
-5.4270324e-07
-0.00025704543
-5.2879305e-07
-0.00025723813
-4.8571582e-07
-0.00025745471
-4.3094356e-07
-0.00025769882
-3.5647736e-07
-0.00025797222
-2.6357509e-07
-0.00025827788
-1.5244125e-07
-0.00025861832
-2.0912744e-08
-0.00025899313
1.2563847e-07
-0.00025939772
2.8637985e-07
-0.00025982938
4.6064427e-07
-0.00026029196
6.504977e-07
-0.00026079236
8.5453561e-07
-0.00026133573
1.0751909e-06
-0.00026192815
1.3120133e-06
-0.00026257299
1.5646409e-06
-0.00026327251
1.8318791e-06
-0.0002640296
2.1139729e-06
-0.00026484735
2.4103702e-06
-0.00026572851
2.7210756e-06
-0.00026667564
3.0457635e-06
-0.00026769104
3.3844724e-06
-0.00026877679
3.7368532e-06
-0.00026993471
4.1026731e-06
-0.00027116631
4.481258e-06
-0.0002724728
4.8718944e-06
-0.00027385506
5.2735007e-06
-0.00027531354
5.684703e-06
-0.00027684829
6.1039653e-06
-0.00027845887
6.5293157e-06
-0.00028014433
6.9586909e-06
-0.00028190318
7.3895751e-06
-0.00028373337
7.8194369e-06
-0.00028563226
8.2453123e-06
-0.00028759662
8.6643241e-06
-0.00028962258
9.0732214e-06
-0.00029170573
9.4688968e-06
-0.00029384105
9.8480874e-06
-0.00029602297
1.0207601e-05
-0.00029824539
1.0544312e-05
-0.00030050177
1.0855208e-05
-0.00030278509
1.1137455e-05
-0.00030508801
1.1388396e-05
-0.00030740287
1.1605629e-05
-0.00030972177
1.1787017e-05
-0.00031203667
1.1930723e-05
-0.00031433945
1.2035227e-05
-0.00031662199
1.2099377e-05
-0.00031887625
1.2122353e-05
-0.00032109435
1.2103733e-05
-0.00032326865
1.204348e-05
-0.00032539182
1.1941954e-05
-0.00032745693
1.179991e-05
-0.00032945747
1.161852e-05
-0.00033138745
1.1399323e-05
-0.00033324144
1.1144263e-05
-0.00033501462
1.085565e-05
-0.00033670281
1.0536145e-05
-0.00033830251
1.0188746e-05
-0.00033981092
9.8167506e-06
-0.00034122598
9.4237525e-06
-0.00034254635
9.0135702e-06
-0.00034377143
8.5902517e-06
-0.00034490136
8.1580243e-06
-0.00034593702
7.7212563e-06
-0.00034688
7.2844235e-06
-0.00034773256
6.8520779e-06
-0.00034849767
6.4287872e-06
-0.00034917891
6.0191141e-06
-0.00034978046
5.627574e-06
-0.00035030704
5.2585803e-06
-0.0003507639
4.9164208e-06
-0.0003511567
4.6052009e-06
-0.00035149152
4.3288153e-06
-0.00035177472
4.09088e-06
-0.00035201289
3.8947443e-06
-0.00035221281
3.7434041e-06
-0.00035238131
3.6395155e-06
-0.00035252521
3.5853279e-06
-0.00035265124
3.5827121e-06
-0.00035276587
3.63309e-06
-0.00035287532
3.7375153e-06
-0.00035298535
3.896604e-06
-0.00035310127
4.1106409e-06
-0.00035322781
4.3795304e-06
-0.00035336901
4.7029124e-06
-0.00035352819
5.0801342e-06
-0.00035370784
5.5104084e-06
-0.00035390957
5.9927496e-06
-0.00035413399
6.5261767e-06
-0.0003543807
7.109668e-06
-0.00035464821
7.7423934e-06
-0.00035493385
8.4235904e-06
-0.00035523368
9.1529156e-06
-0.00035554241
9.9302146e-06
-0.00035585317
1.0756042e-05
-0.00035615745
1.163114e-05
-0.00035644467
1.255736e-05
-0.00035670198
1.3536396e-05
-0.00035691361
1.4571494e-05
-0.00035706056
1.5664571e-05
-0.00035711939
1.6819471e-05
-0.00035706216
1.8035431e-05
-0.00035685459
1.9313935e-05
-0.00035645681
2.0644095e-05
-0.00035582119
2.2018326e-05
-0.00035489592
2.3400208e-05
-0.0003536227
2.4763234e-05
-0.00035194704
2.6018287e-05
-0.00034981486
2.7115352e-05
-0.00034719707
2.7868361e-05
-0.0003440748
2.8231437e-05
-0.00034050373
2.7838181e-05
-0.00033653483
2.6768011e-05
-0.00033244029
2.4280621e-05
-0.00032832573
2.0890673e-05
-0.00032501737
1.5181812e-05
8.4097465e-06
-0.00028468458
1.3704986e-07
-0.00028493385
-2.4066085e-07
-0.0002851916
-1.4777845e-07
-0.00028546427
-2.7274592e-07
-0.00028574977
-2.3770185e-07
-0.00028605142
-2.6223394e-07
-0.00028637039
-2.2372775e-07
-0.00028670836
-1.9082131e-07
-0.00028706769
-1.2638517e-07
-0.00028744962
-4.9018947e-08
-0.00028785566
4.9565549e-08
-0.00028828366
1.6441917e-07
-0.0002887321
2.9600201e-07
-0.00028919927
4.4625905e-07
-0.00028968728
6.1364955e-07
-0.00029020073
7.9982978e-07
-0.0002907436
1.0035118e-06
-0.00029132044
1.2273361e-06
-0.00029193612
1.4702204e-06
-0.000292593
1.7320717e-06
-0.00029329277
2.0117824e-06
-0.00029403788
2.3097438e-06
-0.00029483119
2.6251964e-06
-0.00029567517
2.9579501e-06
-0.00029657206
3.3072654e-06
-0.00029752404
3.6730477e-06
-0.00029853305
4.0547782e-06
-0.00029960083
4.4522485e-06
-0.00030072881
4.864832e-06
-0.00030191813
5.2920001e-06
-0.00030316962
5.7327474e-06
-0.00030448375
6.1860225e-06
-0.00030586063
6.6503798e-06
-0.00030729995
7.124026e-06
-0.00030880101
7.6050251e-06
-0.00031036263
8.090929e-06
-0.00031198316
8.5792291e-06
-0.00031366048
9.0668935e-06
-0.00031539196
9.550918e-06
-0.00031717445
1.0027804e-05
-0.00031900433
1.0494195e-05
-0.00032087742
1.0946316e-05
-0.00032278912
1.1380592e-05
-0.00032473432
1.1793288e-05
-0.00032670749
1.2180776e-05
-0.00032870271
1.2539529e-05
-0.00033071367
1.2866175e-05
-0.00033273379
1.3157571e-05
-0.00033475619
1.3410801e-05
-0.00033677383
1.3623264e-05
-0.0003387795
1.3792688e-05
-0.00034076594
1.3917166e-05
-0.00034272589
1.3995177e-05
-0.00034465216
1.4025638e-05
-0.00034653767
1.4007863e-05
-0.00034837557
1.3941635e-05
-0.00035015927
1.3827185e-05
-0.00035188252
1.3665204e-05
-0.00035353945
1.3456835e-05
-0.00035512462
1.3203694e-05
-0.00035663311
1.2907807e-05
-0.00035806049
1.2571649e-05
-0.00035940294
1.2198095e-05
-0.0003606572
1.1790404e-05
-0.00036182064
1.1352189e-05
-0.00036289127
1.0887381e-05
-0.00036386774
1.040022e-05
-0.00036474934
9.8951691e-06
-0.000365536
9.3769215e-06
-0.00036622832
8.8503413e-06
-0.00036682749
8.3204197e-06
-0.0003673353
7.792237e-06
-0.00036775415
7.2709259e-06
-0.00036808697
6.7616063e-06
-0.00036833721
6.2693581e-06
-0.00036850881
5.7991781e-06
-0.00036860615
5.3559146e-06
-0.00036863397
4.9442461e-06
-0.00036859738
4.568611e-06
-0.00036850175
4.2331835e-06
-0.00036835267
3.9417991e-06
-0.0003681559
3.6979682e-06
-0.00036791723
3.5047439e-06
-0.00036764249
3.3647659e-06
-0.00036733736
3.2801978e-06
-0.00036700741
3.2527628e-06
-0.00036665795
3.2836322e-06
-0.00036629397
3.3735421e-06
-0.00036592007
3.5226975e-06
-0.00036554034
3.7309106e-06
-0.00036515833
3.9975249e-06
-0.00036477698
4.3215562e-06
-0.0003643985
4.7016538e-06
-0.00036402441
5.1363179e-06
-0.00036365546
5.6238025e-06
-0.00036329161
6.1623291e-06
-0.00036293197
6.7500277e-06
-0.00036257475
7.3851726e-06
-0.00036221724
8.0660809e-06
-0.00036185576
8.7914319e-06
-0.00036148558
9.5600357e-06
-0.00036110081
1.0371279e-05
-0.00036069433
1.1224654e-05
-0.00036025745
1.212048e-05
-0.00035977984
1.3058787e-05
-0.00035924898
1.4040637e-05
-0.00035865004
1.5065627e-05
-0.000357965
1.6134432e-05
-0.00035717281
1.7243238e-05
-0.00035624819
1.8389314e-05
-0.00035516275
1.9558655e-05
-0.00035388367
2.0739252e-05
-0.0003523774
2.1893933e-05
-0.00035060807
2.2993907e-05
-0.00034854679
2.3957007e-05
-0.00034616746
2.4736026e-05
-0.00034346812
2.5169021e-05
-0.00034045229
2.5215601e-05
-0.00033718598
2.4571869e-05
-0.00033371732
2.3299358e-05
-0.00033027074
2.0834034e-05
-0.00032693236
1.7552296e-05
-0.00032431407
1.256352e-05
6.6764779e-06
-0.00030724386
4.676391e-07
-0.000307624
1.3947951e-07
-0.00030800678
2.3499847e-07
-0.00030841179
1.32266e-07
-0.00030882853
1.7903628e-07
-0.00030926136
1.7059596e-07
-0.00030970798
2.2288913e-07
-0.00031016863
2.6982925e-07
-0.00031064288
3.4787095e-07
-0.00031112985
4.3794428e-07
-0.00031163008
5.4980185e-07
-0.00031214531
6.7964054e-07
-0.00031267832
8.2902139e-07
-0.00031323067
9.9860553e-07
-0.00031380548
1.1884587e-06
-0.00031440604
1.4003888e-06
-0.00031503536
1.6328347e-06
-0.00031569472
1.8866907e-06
-0.00031638545
2.1609498e-06
-0.0003171097
2.456321e-06
-0.00031786994
2.772024e-06
-0.00031866813
3.1079407e-06
-0.00031950608
3.4631467e-06
-0.00032038562
3.8374856e-06
-0.00032130856
4.2302017e-06
-0.00032227649
4.6409813e-06
-0.0003232908
5.0690914e-06
-0.00032435261
5.5140558e-06
-0.00032546273
5.9749527e-06
-0.00032662168
6.4509496e-06
-0.00032782963
6.9407007e-06
-0.00032908643
7.4428178e-06
-0.00033039155
7.9555e-06
-0.00033174408
8.4765577e-06
-0.00033314274
9.0036886e-06
-0.00033458583
9.5340187e-06
-0.00033607126
1.0064653e-05
-0.00033759649
1.0592121e-05
-0.0003391586
1.1113028e-05
-0.00034075423
1.1623438e-05
-0.00034237965
1.2119619e-05
-0.00034403072
1.2597381e-05
-0.00034570292
1.3052794e-05
-0.0003473914
1.3481767e-05
-0.00034909098
1.3880354e-05
-0.00035079619
1.424474e-05
-0.00035250131
1.45713e-05
-0.00035420043
1.4856686e-05
-0.00035588744
1.5097815e-05
-0.00035755615
1.5291975e-05
-0.0003592003
1.5436834e-05
-0.00036081361
1.5530478e-05
-0.00036238987
1.5571437e-05
-0.00036392297
1.5558735e-05
-0.00036540695
1.5491849e-05
-0.0003668361
1.5370782e-05
-0.00036820495
1.5196037e-05
-0.00036950837
1.4968626e-05
-0.0003707416
1.469006e-05
-0.00037190027
1.4362368e-05
-0.00037298049
1.3988023e-05
-0.00037397882
1.3569979e-05
-0.00037489234
1.3111618e-05
-0.00037571867
1.2616728e-05
-0.00037645594
1.2089465e-05
-0.00037710287
1.1534313e-05
-0.00037765872
1.0956068e-05
-0.00037812331
1.0359753e-05
-0.00037849699
9.7506093e-06
-0.0003787807
9.1340445e-06
-0.00037897585
8.5155749e-06
-0.0003790844
7.9007898e-06
-0.00037910878
7.295306e-06
-0.00037905188
6.7047032e-06
-0.00037891701
6.1344883e-06
-0.00037870789
5.5900542e-06
-0.00037842858
5.0766041e-06
-0.00037808346
4.5991332e-06
-0.0003776772
4.1623458e-06
-0.00037721467
3.7706511e-06
-0.00037670088
3.4280156e-06
-0.00037614096
3.1380489e-06
-0.00037554008
2.9038639e-06
-0.00037490342
2.7281006e-06
-0.00037423606
2.6128359e-06
-0.00037354292
2.5596245e-06
-0.00037282867
2.5693841e-06
-0.00037209768
2.6425508e-06
-0.00037135393
2.7789459e-06
-0.00037060097
2.9779583e-06
-0.00036984188
3.2384339e-06
-0.0003690792
3.5588713e-06
-0.0003683149
3.9373547e-06
-0.00036755037
4.3717875e-06
-0.00036678631
4.8597425e-06
-0.00036602273
5.3987485e-06
-0.00036525895
5.9862518e-06
-0.00036449362
6.6198354e-06
-0.00036372461
7.2970793e-06
-0.00036294905
8.0158715e-06
-0.00036216322
8.7742032e-06
-0.00036136248
9.5705426e-06
-0.00036054122
1.0403391e-05
-0.00035969261
1.1271865e-05
-0.00035880852
1.2174702e-05
-0.00035787916
1.3111279e-05
-0.00035689299
1.4079449e-05
-0.00035583609
1.5077537e-05
-0.00035469243
1.6099578e-05
-0.000353443
1.7139883e-05
-0.00035206691
1.818257e-05
-0.00035054047
1.9212811e-05
-0.00034884043
2.0193895e-05
-0.00034694266
2.1096131e-05
-0.00034483025
2.1844596e-05
-0.0003424893
2.2395084e-05
-0.0003399285
2.2608219e-05
-0.00033716108
2.2448183e-05
-0.00033425769
2.1668476e-05
-0.00033127453
2.03162e-05
-0.00032841363
1.7973134e-05
-0.00032577254
1.4911206e-05
-0.00032378047
1.0571446e-05
5.4766085e-06
-0.00032433429
8.7992673e-07
-0.00032481076
6.159452e-07
-0.00032528106
7.0529888e-07
-0.00032577512
6.2633051e-07
-0.00032627445
6.7835941e-07
-0.00032678723
6.833821e-07
-0.0003273088
7.4445473e-07
-0.00032784135
8.0238398e-07
-0.00032838439
8.9090916e-07
-0.00032893878
9.9233484e-07
-0.00032950578
1.1167986e-06
-0.00033008704
1.2609012e-06
-0.00033068479
1.4267722e-06
-0.00033130055
1.6143693e-06
-0.00033193573
1.8236381e-06
-0.00033259103
2.0556879e-06
-0.00033326796
2.3097662e-06
-0.00033396829
2.587016e-06
-0.00033469398
2.8866416e-06
-0.00033544645
3.2087953e-06