/*--------------------------------*- C++ -*----------------------------------*\
| =========                 |                                                 |
| \\      /  F ield         | foam-extend: Open Source CFD                    |
|  \\    /   O peration     | Version:     4.1                                |
|   \\  /    A nd           | Web:         http://www.foam-extend.org         |
|    \\/     M anipulation  |                                                 |
\*---------------------------------------------------------------------------*/
FoamFile
{
    version     2.0;
    format      ascii;
    class       volScalarField;
    location    "2.9";
    object      rAU;
}
// * * * * * * * * * * * * * * * * * * * * * * * * * * * * * * * * * * * * * //

dimensions      [0 0 1 0 0 0 0];

internalField   nonuniform List<scalar> 
16126
(
0.00049585926
0.00049544144
0.00049544452
0.00049544637
0.00049544919
0.00049545172
0.00049545469
0.00049545769
0.00049546086
0.00049546412
0.00049546742
0.00049547077
0.00049547406
0.00049547733
0.00049548048
0.00049548353
0.00049548638
0.00049548906
0.00049549149
0.00049549366
0.00049549551
0.00049549706
0.00049549823
0.000495499
0.00049549901
0.00049549821
0.00049549686
0.000495495
0.00049549255
0.00049548953
0.00049548585
0.00049548152
0.0004954765
0.00049547072
0.0004954642
0.00049545686
0.00049544873
0.00049543973
0.00049542989
0.00049541915
0.00049540755
0.00049539503
0.00049538164
0.00049536735
0.00049535218
0.00049533614
0.00049531925
0.00049530154
0.00049528303
0.00049526376
0.00049524377
0.0004952231
0.0004952018
0.00049517993
0.00049515755
0.00049513472
0.00049511153
0.00049508804
0.00049506433
0.0004950405
0.00049501662
0.00049499279
0.00049496911
0.00049494565
0.00049492253
0.00049489981
0.0004948776
0.00049485597
0.00049483499
0.00049481475
0.0004947953
0.0004947767
0.00049475898
0.00049474219
0.00049472634
0.00049471144
0.0004946975
0.00049468448
0.00049467236
0.00049466111
0.00049465064
0.00049464091
0.00049463181
0.00049462326
0.00049461515
0.00049460734
0.00049459971
0.00049459211
0.00049458439
0.00049457638
0.00049456792
0.00049455882
0.00049454888
0.00049453791
0.00049452568
0.00049451197
0.00049449653
0.0004944791
0.00049445937
0.00049443701
0.00049441163
0.00049438277
0.00049434987
0.00049431221
0.00049426887
0.00049421863
0.00049415986
0.00049409034
0.00049400715
0.00049390629
0.00049378269
0.0004936296
0.00049343906
0.00049320087
0.00049290437
0.00049253651
0.00049208632
0.00049154023
0.00049089318
0.00049013369
0.00048928023
0.00048831482
0.00048738601
0.00048591085
0.00049509216
0.00049467515
0.00049468144
0.00049468493
0.00049469085
0.00049469603
0.0004947022
0.0004947084
0.00049471492
0.00049472163
0.00049472836
0.00049473518
0.00049474183
0.0004947484
0.00049475465
0.00049476062
0.00049476607
0.00049477103
0.00049477531
0.00049477893
0.00049478168
0.00049478344
0.00049478371
0.00049478129
0.00049477738
0.00049477198
0.00049476527
0.0004947572
0.00049474762
0.00049473652
0.00049472376
0.0004947093
0.00049469309
0.000494675
0.00049465503
0.00049463306
0.00049460911
0.00049458308
0.00049455499
0.00049452476
0.00049449246
0.00049445802
0.00049442152
0.00049438296
0.00049434241
0.00049429992
0.00049425558
0.00049420947
0.00049416171
0.00049411242
0.00049406173
0.0004940098
0.00049395678
0.00049390285
0.00049384818
0.00049379297
0.00049373741
0.00049368171
0.00049362606
0.00049357069
0.00049351579
0.00049346156
0.00049340819
0.00049335588
0.00049330481
0.00049325512
0.00049320698
0.00049316051
0.00049311583
0.00049307302
0.00049303216
0.00049299327
0.00049295639
0.00049292151
0.00049288858
0.00049285754
0.00049282831
0.00049280076
0.00049277474
0.00049275009
0.00049272659
0.00049270403
0.00049268215
0.00049266068
0.00049263932
0.00049261775
0.00049259563
0.00049257261
0.00049254831
0.00049252232
0.00049249425
0.00049246364
0.00049243004
0.00049239297
0.00049235191
0.00049230631
0.00049225558
0.00049219909
0.00049213612
0.00049206589
0.00049198754
0.00049190008
0.00049180238
0.00049169314
0.00049157089
0.00049143387
0.00049128015
0.00049110736
0.00049091305
0.00049069426
0.00049044821
0.0004901716
0.00048986226
0.00048951757
0.0004891381
0.00048872389
0.00048828245
0.00048781896
0.00048735594
0.00048690381
0.00048652204
0.00048620621
0.0004861553
0.0004857512
0.00049347057
0.00049305362
0.00049306088
0.00049306393
0.0004930705
0.00049307587
0.00049308252
0.00049308906
0.00049309595
0.00049310296
0.0004931099
0.00049311684
0.00049312346
0.00049312984
0.00049313565
0.00049314099
0.00049314554
0.00049314934
0.00049315204
0.00049315359
0.00049315376
0.00049314938
0.00049314304
0.00049313381
0.00049312297
0.00049311038
0.00049309583
0.00049307928
0.00049306054
0.0004930396
0.00049301628
0.00049299056
0.00049296235
0.00049293153
0.00049289811
0.00049286196
0.00049282312
0.00049278149
0.00049273714
0.00049268999
0.00049264017
0.00049258764
0.00049253253
0.0004924749
0.00049241488
0.00049235259
0.00049228819
0.00049222186
0.00049215377
0.00049208414
0.00049201319
0.00049194115
0.00049186828
0.00049179483
0.00049172106
0.00049164724
0.00049157364
0.00049150053
0.00049142816
0.00049135681
0.00049128669
0.00049121806
0.00049115112
0.00049108608
0.0004910231
0.00049096234
0.00049090393
0.00049084797
0.00049079451
0.00049074362
0.00049069529
0.0004906495
0.0004906062
0.0004905653
0.00049052668
0.00049049018
0.00049045563
0.0004904228
0.00049039147
0.00049036134
0.00049033212
0.0004903035
0.00049027513
0.00049024663
0.00049021763
0.00049018773
0.00049015651
0.00049012354
0.00049008838
0.00049005058
0.0004900097
0.00048996525
0.00048991677
0.00048986378
0.00048980578
0.00048974228
0.00048967276
0.0004895967
0.00048951356
0.00048942276
0.00048932372
0.00048921581
0.0004890984
0.00048897077
0.00048883221
0.00048868192
0.00048851915
0.00048834304
0.00048815292
0.00048794807
0.00048772837
0.00048749369
0.00048724552
0.00048698538
0.00048671838
0.00048644918
0.00048618994
0.00048594919
0.00048575226
0.00048560759
0.00048557063
0.00048562445
0.0004859236
0.00048589636
0.00049200541
0.00049158672
0.0004915928
0.00049159349
0.00049159838
0.00049160163
0.00049160626
0.00049161054
0.00049161509
0.00049161957
0.00049162383
0.00049162793
0.00049163154
0.00049163477
0.00049163727
0.00049163909
0.00049163985
0.00049163957
0.00049163803
0.00049163109
0.00049162248
0.00049160941
0.00049159461
0.00049157799
0.00049155929
0.00049153845
0.00049151523
0.00049148964
0.00049146147
0.00049143074
0.00049139724
0.00049136099
0.00049132192
0.0004912799
0.00049123499
0.00049118706
0.00049113622
0.00049108237
0.00049102567
0.00049096605
0.00049090371
0.00049083866
0.00049077109
0.00049070112
0.00049062894
0.00049055475
0.00049047874
0.00049040118
0.00049032229
0.00049024235
0.00049016163
0.00049008042
0.00048999902
0.00048991771
0.0004898368
0.00048975657
0.00048967731
0.00048959931
0.00048952281
0.00048944808
0.00048937535
0.00048930481
0.00048923667
0.00048917108
0.00048910817
0.00048904805
0.00048899081
0.00048893646
0.00048888504
0.00048883651
0.00048879083
0.0004887479
0.00048870763
0.00048866984
0.00048863436
0.00048860098
0.00048856948
0.00048853958
0.00048851101
0.00048848346
0.0004884566
0.00048843009
0.00048840358
0.0004883767
0.00048834908
0.00048832034
0.00048829011
0.00048825801
0.00048822366
0.00048818669
0.00048814676
0.0004881035
0.00048805658
0.00048800569
0.00048795051
0.00048789076
0.00048782615
0.00048775645
0.0004876814
0.00048760079
0.00048751442
0.00048742209
0.00048732365
0.00048721895
0.0004871079
0.00048699037
0.00048686641
0.00048673603
0.00048659956
0.00048645738
0.00048631056
0.00048616032
0.00048600948
0.00048586095
0.0004857209
0.00048559479
0.00048549452
0.00048542737
0.00048541463
0.00048545869
0.00048560034
0.00048581105
0.00048618827
0.00048618986
0.00049073126
0.00049030973
0.00049031287
0.00049030969
0.00049031103
0.00049031035
0.00049031104
0.00049031116
0.00049031146
0.00049031154
0.00049031132
0.00049031084
0.00049030976
0.00049030817
0.00049030574
0.00049030262
0.00049029763
0.00049028769
0.00049027656
0.00049026024
0.00049024215
0.00049022233
0.00049020048
0.00049017655
0.0004901503
0.00049012178
0.00049009075
0.00049005725
0.00049002107
0.00048998225
0.0004899406
0.00048989617
0.00048984891
0.00048979872
0.00048974571
0.00048968978
0.00048963109
0.00048956958
0.00048950546
0.0004894387
0.00048936958
0.00048929812
0.0004892246
0.00048914917
0.00048907207
0.00048899353
0.00048891381
0.00048883319
0.00048875195
0.00048867038
0.00048858877
0.00048850744
0.00048842668
0.00048834679
0.00048826807
0.0004881908
0.00048811524
0.00048804166
0.00048797028
0.00048790135
0.00048783503
0.0004877715
0.0004877109
0.00048765335
0.00048759892
0.00048754767
0.00048749964
0.00048745479
0.00048741309
0.00048737448
0.00048733885
0.00048730607
0.00048727599
0.00048724842
0.00048722315
0.00048719994
0.00048717854
0.00048715868
0.00048714008
0.00048712243
0.00048710541
0.00048708871
0.000487072
0.00048705497
0.00048703727
0.00048701861
0.00048699867
0.00048697715
0.00048695378
0.00048692829
0.00048690045
0.00048687003
0.00048683683
0.00048680068
0.00048676143
0.00048671898
0.00048667322
0.00048662411
0.00048657159
0.00048651566
0.00048645635
0.00048639369
0.00048632779
0.00048625875
0.00048618673
0.00048611194
0.00048603471
0.00048595542
0.00048587472
0.00048579341
0.0004857129
0.00048563473
0.00048556181
0.00048549701
0.00048544578
0.00048541246
0.00048540645
0.000485432
0.00048550479
0.00048562262
0.00048581483
0.0004860542
0.00048640441
0.00048636766
0.00048966112
0.00048923651
0.0004892356
0.00048922782
0.00048922462
0.00048921921
0.00048921513
0.00048921035
0.00048920573
0.00048920081
0.00048919557
0.00048919007
0.00048918407
0.00048917771
0.00048916685
0.00048915448
0.00048914035
0.00048912134
0.00048910088
0.00048907882
0.00048905488
0.00048902903
0.00048900105
0.00048897103
0.00048893873
0.00048890421
0.00048886726
0.00048882794
0.00048878604
0.00048874166
0.00048869461
0.00048864499
0.00048859279
0.00048853792
0.00048848056
0.00048842062
0.00048835833
0.00048829364
0.00048822684
0.00048815792
0.00048808721
0.00048801476
0.0004879409
0.0004878658
0.00048778974
0.00048771298
0.00048763579
0.00048755846
0.00048748129
0.00048740458
0.00048732861
0.00048725369
0.0004871801
0.00048710814
0.00048703806
0.00048697012
0.00048690456
0.0004868416
0.00048678144
0.00048672426
0.00048667019
0.00048661936
0.00048657187
0.00048652777
0.0004864871
0.00048644987
0.00048641605
0.00048638559
0.00048635839
0.00048633436
0.00048631335
0.0004862952
0.00048627973
0.00048626672
0.00048625594
0.00048624716
0.00048624012
0.00048623452
0.00048623011
0.00048622658
0.00048622364
0.00048622101
0.00048621837
0.00048621546
0.000486212
0.00048620772
0.00048620237
0.00048619574
0.0004861876
0.00048617778
0.00048616613
0.0004861525
0.0004861368
0.00048611895
0.00048609891
0.00048607665
0.00048605219
0.00048602557
0.00048599686
0.00048596614
0.00048593355
0.00048589922
0.00048586334
0.00048582613
0.00048578784
0.00048574876
0.00048570932
0.00048566997
0.00048563144
0.00048559454
0.00048556063
0.00048553113
0.00048550859
0.00048549537
0.00048549591
0.00048551339
0.00048555505
0.00048562317
0.00048572943
0.00048586978
0.00048606514
0.00048629183
0.00048658967
0.000486491
0.00048878829
0.00048836552
0.00048836045
0.00048834834
0.00048834065
0.00048833072
0.00048832211
0.00048831283
0.00048830378
0.00048829452
0.00048828359
0.00048827056
0.00048825682
0.00048824259
0.00048822383
0.00048820329
0.00048818135
0.00048815799
0.00048813293
0.00048810618
0.00048807756
0.00048804716
0.00048801476
0.00048798045
0.00048794401
0.00048790555
0.00048786484
0.000487822
0.00048777684
0.00048772949
0.00048767978
0.00048762785
0.00048757373
0.00048751734
0.00048745893
0.00048739841
0.00048733608
0.0004872719
0.00048720622
0.00048713903
0.00048707071
0.00048700134
0.00048693125
0.00048686065
0.00048678982
0.00048671904
0.00048664857
0.00048657873
0.00048650978
0.00048644201
0.00048637571
0.00048631115
0.0004862486
0.00048618831
0.00048613051
0.00048607543
0.00048602326
0.00048597418
0.00048592833
0.00048588587
0.00048584686
0.00048581141
0.00048577954
0.00048575127
0.00048572659
0.00048570547
0.00048568783
0.00048567358
0.00048566259
0.00048565473
0.00048564982
0.00048564766
0.00048564807
0.0004856508
0.00048565562
0.00048566226
0.00048567047
0.00048567996
0.00048569048
0.00048570172
0.00048571342
0.00048572529
0.00048573708
0.00048574853
0.00048575939
0.00048576944
0.00048577848
0.00048578633
0.00048579283
0.00048579783
0.00048580125
0.00048580301
0.00048580304
0.00048580134
0.00048579792
0.00048579279
0.00048578601
0.00048577769
0.0004857679
0.00048575678
0.00048574447
0.00048573113
0.00048571696
0.00048570218
0.00048568702
0.00048567178
0.00048565684
0.00048564264
0.00048562983
0.00048561914
0.00048561175
0.00048560887
0.00048561263
0.00048562491
0.00048564927
0.00048568803
0.00048574687
0.00048582708
0.00048593778
0.00048607515
0.00048625486
0.00048645879
0.00048671142
0.00048656491
0.0004880946
0.00048768055
0.00048766885
0.00048765655
0.00048764381
0.00048763066
0.00048761701
0.00048760302
0.00048758853
0.00048757374
0.00048755697
0.00048753782
0.00048751754
0.00048749619
0.00048747355
0.00048744964
0.00048742425
0.00048739741
0.00048736896
0.000487339
0.00048730731
0.00048727401
0.00048723889
0.00048720207
0.00048716334
0.00048712284
0.00048708037
0.00048703607
0.00048698976
0.00048694162
0.00048689151
0.00048683958
0.00048678591
0.00048673043
0.00048667344
0.00048661487
0.00048655505
0.00048649397
0.00048643198
0.00048636912
0.00048630578
0.00048624203
0.00048617824
0.00048611462
0.00048605144
0.00048598897
0.00048592749
0.00048586728
0.0004858086
0.00048575172
0.0004856969
0.00048564437
0.00048559438
0.00048554715
0.00048550286
0.00048546169
0.00048542381
0.00048538935
0.0004853584
0.00048533107
0.00048530739
0.00048528741
0.00048527111
0.00048525847
0.00048524944
0.00048524394
0.00048524187
0.00048524308
0.00048524744
0.00048525477
0.00048526486
0.00048527752
0.00048529251
0.0004853096
0.00048532852
0.00048534902
0.00048537083
0.00048539367
0.00048541728
0.00048544136
0.00048546568
0.00048548995
0.00048551393
0.00048553739
0.0004855601
0.00048558187
0.00048560252
0.00048562189
0.00048563985
0.00048565631
0.0004856712
0.00048568446
0.00048569607
0.00048570604
0.0004857144
0.0004857212
0.00048572652
0.00048573046
0.00048573312
0.00048573464
0.00048573516
0.00048573485
0.00048573387
0.00048573245
0.00048573081
0.00048572922
0.00048572805
0.00048572769
0.00048572874
0.00048573187
0.00048573812
0.00048574857
0.00048576506
0.00048578918
0.00048582393
0.00048587118
0.00048593555
0.00048601789
0.00048612527
0.00048625417
0.00048641558
0.00048659521
0.0004868071
0.0004866175
0.0004875635
0.00048715324
0.00048713599
0.00048712414
0.00048710749
0.0004870922
0.00048707471
0.00048705714
0.00048703822
0.00048701867
0.000486998
0.00048697644
0.00048695369
0.00048692988
0.00048690477
0.00048687848
0.00048685082
0.00048682189
0.00048679149
0.00048675972
0.0004867264
0.00048669167
0.00048665532
0.0004866175
0.00048657802
0.00048653703
0.00048649435
0.00048645017
0.00048640431
0.00048635699
0.00048630808
0.00048625777
0.00048620616
0.00048615321
0.00048609922
0.00048604415
0.00048598836
0.00048593184
0.00048587497
0.00048581778
0.00048576068
0.00048570375
0.00048564734
0.00048559166
0.00048553698
0.00048548355
0.00048543164
0.00048538151
0.00048533339
0.00048528753
0.00048524415
0.00048520347
0.00048516568
0.00048513097
0.00048509949
0.00048507138
0.00048504677
0.00048502573
0.00048500834
0.00048499465
0.00048498467
0.00048497838
0.00048497575
0.00048497672
0.0004849812
0.00048498908
0.00048500024
0.00048501451
0.00048503171
0.00048505166
0.00048507415
0.00048509893
0.0004851258
0.00048515447
0.00048518471
0.00048521623
0.00048524878
0.00048528208
0.00048531586
0.00048534985
0.00048538379
0.00048541743
0.00048545053
0.00048548286
0.00048551423
0.00048554444
0.00048557333
0.00048560078
0.00048562666
0.00048565088
0.00048567341
0.0004856942
0.00048571324
0.00048573056
0.0004857462
0.00048576022
0.00048577271
0.00048578376
0.0004857935
0.00048580203
0.00048580952
0.00048581611
0.00048582198
0.00048582733
0.00048583237
0.00048583738
0.0004858427
0.00048584872
0.00048585601
0.00048586521
0.00048587728
0.00048589323
0.00048591469
0.00048594306
0.00048598093
0.00048602985
0.00048609366
0.00048617298
0.00048627336
0.00048639187
0.00048653618
0.0004866953
0.00048687635
0.00048665391
0.00048717553
0.00048676212
0.00048674335
0.00048672905
0.00048671061
0.00048669332
0.00048667404
0.00048665468
0.00048663403
0.00048661279
0.00048659044
0.00048656726
0.00048654297
0.00048651772
0.0004864913
0.00048646382
0.00048643507
0.00048640518
0.00048637395
0.00048634154
0.00048630773
0.00048627271
0.00048623625
0.00048619855
0.00048615942
0.00048611904
0.00048607724
0.00048603423
0.00048598985
0.00048594436
0.00048589762
0.00048584986
0.00048580119
0.00048575157
0.00048570135
0.00048565047
0.00048559932
0.00048554788
0.00048549654
0.00048544534
0.00048539468
0.00048534463
0.00048529554
0.0004852476
0.00048520108
0.0004851562
0.00048511321
0.00048507235
0.00048503382
0.00048499784
0.00048496461
0.00048493431
0.0004849071
0.00048488314
0.00048486256
0.00048484544
0.00048483189
0.00048482196
0.00048481568
0.00048481308
0.00048481412
0.00048481878
0.000484827
0.00048483869
0.00048485374
0.00048487202
0.00048489338
0.00048491765
0.00048494465
0.00048497416
0.00048500596
0.00048503982
0.00048507551
0.00048511276
0.0004851513
0.00048519088
0.00048523122
0.00048527204
0.0004853131
0.0004853541
0.0004853948
0.00048543495
0.00048547431
0.00048551267
0.00048554983
0.0004855856
0.00048561984
0.00048565241
0.00048568322
0.00048571218
0.00048573927
0.00048576444
0.00048578771
0.0004858091
0.00048582866
0.00048584647
0.0004858626
0.00048587719
0.00048589034
0.00048590218
0.00048591288
0.00048592259
0.00048593149
0.00048593981
0.00048594778
0.00048595567
0.00048596384
0.0004859727
0.00048598282
0.00048599483
0.00048600965
0.00048602823
0.00048605203
0.00048608234
0.00048612136
0.00048617041
0.00048623258
0.00048630826
0.00048640157
0.00048650989
0.00048663817
0.00048677782
0.00048693194
0.00048668157
0.00048690219
0.00048648611
0.00048646668
0.00048645069
0.0004864313
0.0004864128
0.00048639256
0.00048637221
0.00048635069
0.00048632863
0.00048630555
0.00048628172
0.00048625686
0.00048623111
0.00048620427
0.00048617646
0.0004861475
0.00048611753
0.00048608635
0.00048605412
0.00048602065
0.00048598611
0.00048595032
0.00048591347
0.00048587538
0.00048583627
0.00048579596
0.0004857547
0.00048571234
0.00048566914
0.00048562499
0.00048558012
0.00048553465
0.00048548857
0.00048544221
0.00048539554
0.00048534892
0.00048530236
0.00048525624
0.00048521057
0.00048516578
0.00048512189
0.00048507927
0.00048503809
0.00048499858
0.00048496096
0.00048492545
0.00048489226
0.00048486159
0.00048483362
0.00048480853
0.00048478647
0.00048476757
0.00048475199
0.0004847398
0.00048473109
0.00048472592
0.00048472434
0.00048472635
0.00048473196
0.00048474112
0.00048475379
0.0004847699
0.00048478934
0.000484812
0.00048483773
0.00048486639
0.00048489779
0.00048493173
0.00048496801
0.0004850064
0.00048504666
0.00048508857
0.00048513184
0.00048517622
0.00048522144
0.00048526722
0.0004853133
0.0004853594
0.00048540526
0.00048545061
0.00048549521
0.00048553499
0.00048556935
0.00048560452
0.00048564036
0.00048567674
0.00048571353
0.00048575061
0.00048578786
0.0004858252
0.00048585736
0.00048588285
0.00048590631
0.00048592778
0.00048594736
0.00048596513
0.00048598121
0.00048599574
0.00048600887
0.00048602075
0.00048603157
0.00048604152
0.00048605084
0.00048605979
0.00048606865
0.0004860778
0.00048608767
0.00048609881
0.00048611186
0.00048612769
0.00048614719
0.00048617169
0.00048620231
0.00048624094
0.0004862887
0.00048634807
0.00048641931
0.00048650545
0.00048660428
0.00048671886
0.00048684249
0.00048697559
0.00048670295
0.00048671683
0.00048629865
0.00048627928
0.00048626232
0.00048624273
0.00048622376
0.00048620333
0.00048618274
0.0004861611
0.00048613894
0.00048611583
0.00048609202
0.00048606724
0.00048604167
0.00048601506
0.00048598759
0.00048595903
0.00048592955
0.00048589896
0.00048586743
0.00048583477
0.00048580117
0.00048576646
0.00048573084
0.00048569413
0.00048565658
0.00048561801
0.00048557868
0.00048553846
0.00048549761
0.00048545602
0.00048541395
0.00048537152
0.0004853287
0.00048528585
0.00048524292
0.00048520027
0.00048515791
0.00048511621
0.00048507517
0.00048503521
0.00048499634
0.0004849589
0.00048492306
0.00048488903
0.00048485701
0.0004848272
0.00048479981
0.00048477499
0.00048475292
0.00048473376
0.00048471765
0.00048470471
0.00048469506
0.00048468877
0.00048468593
0.00048468657
0.00048469074
0.00048469843
0.00048470964
0.00048472433
0.00048474244
0.0004847639
0.0004847886
0.00048481641
0.00048484721
0.00048488083
0.00048491709
0.0004849558
0.00048499675
0.0004850397
0.00048508442
0.00048513067
0.00048517818
0.00048522669
0.00048527592
0.00048532559
0.00048537543
0.00048542518
0.00048547442
0.00048550757
0.00048554191
0.00048557349
0.00048560178
0.0004856331
0.00048566734
0.00048570437
0.00048574406
0.00048578623
0.00048583071
0.00048587731
0.00048592069
0.00048595927
0.00048599757
0.00048602738
0.00048604765
0.000486066
0.00048608256
0.00048609748
0.00048611092
0.00048612307
0.00048613412
0.0004861443
0.00048615386
0.00048616308
0.00048617227
0.00048618182
0.00048619218
0.00048620389
0.00048621758
0.00048623405
0.00048625415
0.00048627904
0.00048630972
0.00048634775
0.00048639405
0.00048645055
0.00048651734
0.00048659652
0.00048668616
0.00048678794
0.00048689663
0.00048701139
0.00048672002
0.00048659645
0.00048617682
0.00048615805
0.00048614071
0.00048612149
0.0004861026
0.00048608252
0.00048606222
0.00048604097
0.00048601923
0.00048599659
0.0004859733
0.00048594907
0.00048592409
0.00048589812
0.00048587133
0.00048584352
0.00048581486
0.00048578515
0.00048575458
0.00048572296
0.0004856905
0.00048565701
0.00048562272
0.00048558747
0.00048555148
0.00048551461
0.00048547712
0.00048543887
0.00048540014
0.00048536083
0.00048532119
0.00048528133
0.00048524125
0.00048520127
0.00048516136
0.00048512188
0.00048508281
0.00048504452
0.000485007
0.00048497065
0.00048493549
0.00048490183
0.00048486982
0.00048483966
0.00048481155
0.00048478567
0.00048476221
0.00048474133
0.00048472318
0.00048470792
0.00048469568
0.00048468657
0.00048468071
0.00048467818
0.00048467905
0.00048468336
0.00048469116
0.00048470243
0.0004847172
0.0004847354
0.00048475699
0.00048478189
0.00048481001
0.00048484123
0.0004848754
0.00048491238
0.00048495197
0.00048499399
0.00048503823
0.00048508444
0.0004851324
0.00048518186
0.00048523253
0.00048528416
0.00048533645
0.00048538913
0.0004854419
0.0004854788
0.00048551182
0.00048553075
0.00048555305
0.00048557868
0.00048560758
0.00048563967
0.00048567483
0.00048571291
0.00048575375
0.00048579716
0.00048584295
0.00048589091
0.00048594082
0.00048599247
0.00048604566
0.00048609201
0.00048613035
0.00048616114
0.00048617774
0.00048619262
0.00048620596
0.00048621798
0.00048622887
0.00048623889
0.00048624831
0.00048625742
0.00048626655
0.00048627611
0.00048628653
0.00048629835
0.00048631218
0.00048632876
0.00048634886
0.00048637351
0.00048640357
0.00048644037
0.00048648464
0.00048653787
0.00048660007
0.00048667269
0.00048675406
0.00048684491
0.00048694112
0.000487041
0.00048673411
0.00048652225
0.00048610175
0.00048608393
0.00048606666
0.00048604818
0.00048602976
0.00048601038
0.00048599071
0.00048597018
0.00048594915
0.00048592725
0.0004859047
0.00048588125
0.00048585707
0.00048583194
0.00048580601
0.0004857791
0.00048575137
0.00048572263
0.00048569307
0.00048566252
0.00048563118
0.00048559889
0.00048556585
0.00048553192
0.00048549734
0.00048546195
0.00048542603
0.00048538943
0.00048535244
0.00048531496
0.00048527723
0.00048523938
0.00048520137
0.00048516356
0.00048512587
0.00048508868
0.00048505194
0.00048501603
0.00048498093
0.00048494702
0.00048491431
0.0004848831
0.00048485354
0.00048482582
0.00048480013
0.00048477664
0.00048475553
0.00048473696
0.00048472109
0.00048470807
0.00048469803
0.0004846911
0.00048468739
0.00048468698
0.00048468995
0.00048469636
0.00048470626
0.00048471964
0.00048473652
0.00048475687
0.00048478064
0.00048480775
0.00048483812
0.00048487164
0.00048490816
0.00048494753
0.00048498957
0.00048503408
0.00048508084
0.00048512963
0.00048518019
0.00048523228
0.00048528559
0.00048533986
0.00048539479
0.00048544715
0.00048547806
0.00048549497
0.00048551016
0.00048552892
0.00048555125
0.00048557712
0.00048560645
0.00048563913
0.00048567505
0.00048571403
0.00048575591
0.00048580047
0.00048584749
0.00048589675
0.00048594801
0.00048600101
0.00048605553
0.00048611134
0.00048616824
0.00048621897
0.00048625676
0.00048628081
0.00048629389
0.00048630562
0.00048631623
0.00048632598
0.00048633516
0.00048634407
0.00048635307
0.00048636256
0.00048637297
0.00048638483
0.00048639871
0.0004864153
0.00048643527
0.00048645954
0.00048648885
0.00048652426
0.00048656635
0.00048661625
0.00048667385
0.00048674008
0.00048681347
0.00048689417
0.00048697891
0.00048706576
0.00048674574
0.00048647949
0.00048605864
0.00048604195
0.00048602504
0.0004860075
0.00048598975
0.00048597125
0.00048595237
0.00048593271
0.00048591251
0.00048589148
0.00048586979
0.00048584721
0.0004858239
0.00048579963
0.00048577459
0.00048574857
0.00048572175
0.00048569394
0.00048566534
0.00048563577
0.00048560544
0.00048557418
0.00048554221
0.00048550939
0.00048547595
0.00048544175
0.00048540705
0.00048537172
0.00048533604
0.0004852999
0.00048526355
0.00048522711
0.00048519054
0.00048515418
0.00048511797
0.00048508225
0.00048504698
0.00048501254
0.00048497889
0.0004849464
0.00048491508
0.00048488523
0.00048485698
0.00048483053
0.00048480606
0.00048478373
0.00048476375
0.00048474627
0.00048473145
0.00048471945
0.00048471041
0.00048470446
0.00048470173
0.00048470232
0.00048470631
0.00048471378
0.00048472477
0.00048473932
0.00048475744
0.00048477911
0.00048480428
0.0004848329
0.00048486488
0.00048490011
0.00048493844
0.00048497974
0.0004850238
0.00048507043
0.00048511942
0.00048517051
0.00048522344
0.00048527796
0.00048533377
0.00048539056
0.00048544147
0.00048546834
0.00048547558
0.00048548654
0.00048550125
0.00048551976
0.00048554206
0.0004855681
0.00048559781
0.00048563107
0.00048566776
0.00048570767
0.00048575063
0.00048579639
0.00048584471
0.00048589534
0.00048594802
0.00048600247
0.00048605843
0.00048611566
0.00048617391
0.00048623295
0.0004862926
0.00048633956
0.00048637602
0.00048638736
0.00048639755
0.00048640689
0.00048641568
0.00048642423
0.00048643291
0.0004864421
0.00048645225
0.00048646385
0.00048647745
0.00048649366
0.0004865131
0.00048653657
0.00048656469
0.00048659833
0.00048663796
0.00048668441
0.00048673752
0.00048679784
0.00048686412
0.00048693605
0.00048701102
0.00048708695
0.00048675572
0.0004864572
0.00048603638
0.00048602086
0.00048600449
0.00048598796
0.00048597098
0.00048595341
0.00048593538
0.0004859166
0.00048589726
0.00048587708
0.00048585624
0.00048583449
0.00048581201
0.00048578857
0.00048576434
0.00048573914
0.00048571313
0.00048568614
0.00048565835
0.0004856296
0.0004856001
0.00048556968
0.00048553856
0.00048550659
0.00048547401
0.00048544068
0.00048540686
0.00048537242
0.00048533763
0.00048530239
0.00048526694
0.00048523138
0.00048519568
0.00048516018
0.00048512479
0.00048508988
0.00048505538
0.00048502166
0.00048498868
0.00048495682
0.00048492607
0.00048489673
0.00048486894
0.00048484289
0.00048481876
0.00048479674
0.00048477701
0.00048475975
0.00048474514
0.00048473333
0.00048472448
0.00048471874
0.00048471626
0.00048471714
0.0004847215
0.0004847294
0.00048474093
0.00048475612
0.000484775
0.00048479755
0.00048482375
0.00048485354
0.00048488684
0.00048492353
0.00048496348
0.00048500654
0.00048505251
0.00048510118
0.00048515232
0.00048520568
0.00048526099
0.00048531798
0.00048537631
0.00048543042
0.00048545221
0.00048545463
0.00048546088
0.00048547108
0.00048548526
0.00048550348
0.00048552573
0.00048555195
0.00048558207
0.00048561595
0.00048565346
0.00048569438
0.0004857385
0.00048578556
0.00048583529
0.00048588742
0.00048594164
0.00048599766
0.00048605519
0.00048611395
0.00048617367
0.00048623412
0.00048629507
0.00048635631
0.00048641727
0.00048645372
0.00048647388
0.00048648274
0.00048649107
0.00048649919
0.00048650746
0.00048651629
0.00048652609
0.00048653733
0.00048655052
0.00048656622
0.000486585
0.0004866075
0.00048663428
0.00048666602
0.00048670308
0.00048674603
0.00048679469
0.00048684931
0.00048690878
0.00048697261
0.00048703867
0.00048710499
0.00048676417
0.00048644748
0.00048602698
0.0004860126
0.00048599685
0.0004859813
0.00048596509
0.00048594842
0.0004859312
0.00048591327
0.00048589473
0.00048587535
0.00048585528
0.0004858343
0.00048581255
0.00048578984
0.00048576633
0.00048574181
0.00048571649
0.00048569017
0.00048566305
0.00048563495
0.00048560609
0.0004855763
0.00048554581
0.00048551445
0.00048548248
0.00048544974
0.0004854165
0.00048538262
0.00048534837
0.00048531364
0.00048527868
0.00048524358
0.0004852083
0.00048517318
0.00048513813
0.00048510349
0.00048506922
0.00048503567
0.00048500279
0.00048497097
0.0004849402
0.00048491077
0.00048488283
0.00048485658
0.0004848322
0.00048480988
0.00048478983
0.00048477224
0.00048475727
0.00048474513
0.00048473599
0.00048472999
0.00048472732
0.00048472809
0.00048473243
0.00048474044
0.00048475221
0.00048476777
0.00048478719
0.00048481044
0.00048483752
0.00048486836
0.00048490289
0.000484941
0.00048498255
0.00048502737
0.00048507527
0.00048512604
0.00048517942
0.00048523515
0.00048529295
0.00048535253
0.00048541354
0.00048543617
0.00048543338
0.00048543452
0.00048543973
0.00048544913
0.00048546278
0.00048548071
0.00048550292
0.00048552936
0.00048555994
0.00048559453
0.00048563295
0.00048567498
0.00048572039
0.00048576888
0.00048582017
0.00048587394
0.00048592985
0.00048598759
0.00048604684
0.00048610727
0.00048616862
0.00048623058
0.00048629295
0.00048635547
0.00048641796
0.00048648024
0.00048652658
0.00048655438
0.00048656209
0.00048656961
0.0004865773
0.00048658554
0.00048659475
0.00048660537
0.00048661788
0.00048663278
0.00048665058