/*--------------------------------*- C++ -*----------------------------------*\
| =========                 |                                                 |
| \\      /  F ield         | foam-extend: Open Source CFD                    |
|  \\    /   O peration     | Version:     4.1                                |
|   \\  /    A nd           | Web:         http://www.foam-extend.org         |
|    \\/     M anipulation  |                                                 |
\*---------------------------------------------------------------------------*/
FoamFile
{
    version     2.0;
    format      ascii;
    class       volVectorField;
    location    "2.9";
    object      U;
}
// * * * * * * * * * * * * * * * * * * * * * * * * * * * * * * * * * * * * * //

dimensions      [0 1 -1 0 0 0 0];

internalField   nonuniform List<vector> 
16126
(
(0.083721585 4.6646357e-05 0)
(0.08333132 6.298484e-05 0)
(0.083138046 1.0777219e-05 0)
(0.082940243 3.8304313e-05 0)
(0.082606674 2.2066281e-05 0)
(0.082419813 3.3423012e-05 0)
(0.082040938 3.0319322e-05 0)
(0.081811936 3.2917094e-05 0)
(0.081429195 3.3193197e-05 0)
(0.081158862 3.2567004e-05 0)
(0.080787446 3.3359549e-05 0)
(0.080493324 3.2493592e-05 0)
(0.080142224 3.3766082e-05 0)
(0.079845695 3.3344183e-05 0)
(0.079523914 3.3425328e-05 0)
(0.079244479 3.0729431e-05 0)
(0.078962105 2.8053159e-05 0)
(0.078716148 2.6149671e-05 0)
(0.078483744 2.8129023e-05 0)
(0.078289158 2.8478344e-05 0)
(0.07811891 2.2011176e-05 0)
(0.077985831 1.459663e-05 0)
(0.077886815 1.9868427e-05 0)
(0.077836451 2.699271e-05 0)
(0.07783312 2.307045e-05 0)
(0.077888046 1.6554104e-05 0)
(0.077993289 1.2449913e-05 0)
(0.078151573 8.9197264e-06 0)
(0.078363233 5.5334943e-06 0)
(0.078632444 1.8062048e-06 0)
(0.078961824 -2.2671616e-06 0)
(0.079355428 -6.7295744e-06 0)
(0.079816297 -1.1522945e-05 0)
(0.080348057 -1.6641008e-05 0)
(0.080953687 -2.2038554e-05 0)
(0.08163631 -2.7696133e-05 0)
(0.082398539 -3.3573731e-05 0)
(0.08324286 -3.9646085e-05 0)
(0.084171283 -4.5878187e-05 0)
(0.085185514 -5.2247085e-05 0)
(0.086286788 -5.872846e-05 0)
(0.087475927 -6.5306037e-05 0)
(0.08875327 -7.197199e-05 0)
(0.09011871 -7.8719961e-05 0)
(0.091571632 -8.5552646e-05 0)
(0.093110961 -9.2474683e-05 0)
(0.094735108 -9.9493559e-05 0)
(0.096442012 -0.00010661593 0)
(0.098229091 -0.00011384492 0)
(0.10009326 -0.0001211795 0)
(0.10203092 -0.00012860984 0)
(0.10403794 -0.0001361166 0)
(0.10610963 -0.00014366969 0)
(0.10824079 -0.00015122614 0)
(0.11042563 -0.00015873007 0)
(0.11265787 -0.00016611433 0)
(0.11493067 -0.00017329953 0)
(0.11723671 -0.00018019619 0)
(0.11956818 -0.00018670744 0)
(0.12191689 -0.0001927295 0)
(0.12427429 -0.00019815495 0)
(0.12663156 -0.00020287652 0)
(0.12897967 -0.00020678812 0)
(0.13130953 -0.00020978884 0)
(0.13361203 -0.00021178487 0)
(0.13587821 -0.00021269354 0)
(0.13809933 -0.00021244398 0)
(0.14026701 -0.00021098015 0)
(0.14237336 -0.00020826362 0)
(0.14441107 -0.00020427392 0)
(0.14637353 -0.00019900998 0)
(0.14825499 -0.00019249203 0)
(0.15005059 -0.00018476002 0)
(0.1517565 -0.00017587484 0)
(0.15337001 -0.00016591722 0)
(0.15488959 -0.00015498711 0)
(0.15631495 -0.00014319984 0)
(0.15764711 -0.00013068841 0)
(0.15888841 -0.00011759384 0)
(0.16004258 -0.00010407172 0)
(0.16111468 -9.0278237e-05 0)
(0.16211114 -7.6378834e-05 0)
(0.16303973 -6.253806e-05 0)
(0.1639095 -4.8917615e-05 0)
(0.16473077 -3.5663811e-05 0)
(0.16551505 -2.2905599e-05 0)
(0.16627498 -1.0745464e-05 0)
(0.1670243 7.3428557e-07 0)
(0.16777778 1.1488118e-05 0)
(0.1685511 2.1493569e-05 0)
(0.169361 3.0780953e-05 0)
(0.17022502 3.9412986e-05 0)
(0.17116181 4.7532657e-05 0)
(0.17219081 5.5329467e-05 0)
(0.1733329 6.3113875e-05 0)
(0.17460976 7.1233636e-05 0)
(0.1760453 8.0197822e-05 0)
(0.17766429 9.0495092e-05 0)
(0.17949548 0.00010282003 0)
(0.18156862 0.00011762979 0)
(0.18392106 0.00013554317 0)
(0.18659151 0.00015628784 0)
(0.1896341 0.00017943695 0)
(0.19310492 0.0002019904 0)
(0.1970922 0.00021988975 0)
(0.20168678 0.00022270325 0)
(0.20704622 0.00019721556 0)
(0.21332839 0.00011633082 0)
(0.22082659 -5.1540453e-05 0)
(0.2298157 -0.0003647177 0)
(0.2408357 -0.00088326433 0)
(0.25432928 -0.0017130402 0)
(0.27124082 -0.0029423419 0)
(0.29216194 -0.0047324743 0)
(0.31863036 -0.0071684371 0)
(0.35112777 -0.01045969 0)
(0.3920283 -0.014603449 0)
(0.44087429 -0.019864635 0)
(0.50149155 -0.025962731 0)
(0.57024645 -0.03337504 0)
(0.65495458 -0.040695057 0)
(0.7410438 -0.049848485 0)
(0.85367787 -0.051314467 0)
(0.92415366 -0.06280211 0)
(0.25211481 0.00020065734 0)
(0.25158431 0.00034290969 0)
(0.25113511 0.00023251906 0)
(0.2506767 0.00033459881 0)
(0.2500493 0.00030986219 0)
(0.24954088 0.00035854615 0)
(0.24884389 0.00036477643 0)
(0.24826564 0.0003853274 0)
(0.24754819 0.00039630816 0)
(0.24692309 0.00040233084 0)
(0.2462156 0.00040743381 0)
(0.24558005 0.00040244616 0)
(0.24490993 0.00039687073 0)
(0.24430281 0.00038212864 0)
(0.24369847 0.00036727153 0)
(0.2431597 0.00034619672 0)
(0.24265704 0.00032473813 0)
(0.24222977 0.00029461405 0)
(0.24186218 0.00025705881 0)
(0.24157791 0.00021579495 0)
(0.24138109 0.0001809846 0)
(0.2413024 0.00014153662 0)
(0.24134103 8.00649e-05 0)
(0.24152236 8.9874467e-06 0)
(0.24182303 -5.7601286e-05 0)
(0.24224225 -0.00012348318 0)
(0.24278643 -0.0001886253 0)
(0.24346379 -0.00025617596 0)
(0.24428037 -0.00032703719 0)
(0.24524411 -0.00040199734 0)
(0.24636179 -0.00048114646 0)
(0.24764123 -0.00056460135 0)
(0.24908943 -0.00065222111 0)
(0.25071373 -0.00074391075 0)
(0.25252066 -0.00083941983 0)
(0.25451659 -0.00093849523 0)
(0.256707 -0.0010407712 0)
(0.25909678 -0.0011458557 0)
(0.2616898 -0.0012532729 0)
(0.26448896 -0.0013625188 0)
(0.26749598 -0.0014730328 0)
(0.27071142 -0.0015842282 0)
(0.27413443 -0.0016954952 0)
(0.27776286 -0.001806196 0)
(0.28159311 -0.0019156862 0)
(0.28562013 -0.0020233069 0)
(0.28983741 -0.0021283924 0)
(0.29423699 -0.0022302687 0)
(0.29880945 -0.0023282534 0)
(0.30354399 -0.0024216603 0)
(0.3084284 -0.0025097953 0)
(0.3134492 -0.0025919626 0)
(0.31859163 -0.0026674678 0)
(0.32383983 -0.0027356234 0)
(0.32917683 -0.0027957571 0)
(0.33458479 -0.0028472254 0)
(0.34004502 -0.0028894219 0)
(0.34553823 -0.0029217931 0)
(0.35104466 -0.0029438532 0)
(0.35654426 -0.0029551965 0)
(0.36201692 -0.002955512 0)
(0.36744266 -0.0029445988 0)
(0.37280188 -0.0029223741 0)
(0.37807555 -0.0028888847 0)
(0.38324548 -0.0028443133 0)
(0.38829454 -0.0027889857 0)
(0.39320688 -0.0027233699 0)
(0.39796815 -0.0026480786 0)
(0.40256568 -0.0025638678 0)
(0.40698875 -0.0024716313 0)
(0.41122866 -0.0023723936 0)
(0.415279 -0.0022673049 0)
(0.41913569 -0.0021576263 0)
(0.42279719 -0.0020447224 0)
(0.42626452 -0.0019300461 0)
(0.42954137 -0.0018151262 0)
(0.43263416 -0.0017015486 0)
(0.43555204 -0.0015909464 0)
(0.43830692 -0.0014849749 0)
(0.44091343 -0.0013853042 0)
(0.44338887 -0.0012935915 0)
(0.44575317 -0.0012114773 0)
(0.44802882 -0.0011405493 0)
(0.45024072 -0.0010823566 0)
(0.45241616 -0.0010383849 0)
(0.45458463 -0.0010100796 0)
(0.45677779 -0.00099881045 0)
(0.45902933 -0.0010059175 0)
(0.46137493 -0.0010326781 0)
(0.46385219 -0.0010803771 0)
(0.46650074 -0.0011502807 0)
(0.4693621 -0.0012437436 0)
(0.47248009 -0.0013621871 0)
(0.4759007 -0.001507273 0)
(0.47967279 -0.0016808538 0)
(0.48384796 -0.0018852504 0)
(0.48848188 -0.002123158 0)
(0.49363382 -0.0023981501 0)
(0.49936914 -0.002714479 0)
(0.50575796 -0.0030780596 0)
(0.51287974 -0.003495984 0)
(0.52081979 -0.0039784991 0)
(0.5296779 -0.0045378572 0)
(0.53955959 -0.0051922934 0)
(0.5505929 -0.0059631971 0)
(0.56290747 -0.0068830429 0)
(0.57666791 -0.0079882571 0)
(0.5920257 -0.0093347472 0)
(0.60918743 -0.010979959 0)
(0.62830685 -0.01301307 0)
(0.64962944 -0.015511041 0)
(0.67325293 -0.018598765 0)
(0.6994452 -0.022346191 0)
(0.72811177 -0.026896128 0)
(0.75952136 -0.032233455 0)
(0.79309471 -0.038480747 0)
(0.82913179 -0.045379656 0)
(0.86592659 -0.053035272 0)
(0.90411571 -0.060623791 0)
(0.93931993 -0.068536413 0)
(0.97388662 -0.074214804 0)
(0.99689829 -0.080406016 0)
(1.0166039 -0.074766101 0)
(1.0120324 -0.08016569 0)
(0.412428 0.0003867322 0)
(0.41192951 0.00073095929 0)
(0.41137884 0.00059585446 0)
(0.41086488 0.00077842265 0)
(0.41016063 0.00076121145 0)
(0.40956952 0.00084876586 0)
(0.4088188 0.00086689161 0)
(0.40816849 0.00090351398 0)
(0.40741875 0.00091849652 0)
(0.40675039 0.00092398191 0)
(0.40603838 0.00092167773 0)
(0.40540048 0.00090363839 0)
(0.4047671 0.00088023634 0)
(0.40421392 0.00084065244 0)
(0.40370491 0.0007919645 0)
(0.40328872 0.00072391038 0)
(0.40294837 0.00064490937 0)
(0.40271805 0.00055441048 0)
(0.40260581 0.00046107373 0)
(0.40264614 0.00034915246 0)
(0.40283722 0.0002039239 0)
(0.40320912 3.9107123e-05 0)
(0.40373425 -0.00012773852 0)
(0.40439745 -0.00029383115 0)
(0.40521873 -0.00045650934 0)
(0.40620882 -0.00062477331 0)
(0.40737902 -0.00080068805 0)
(0.40874003 -0.00098529558 0)
(0.41030036 -0.0011792105 0)
(0.41206959 -0.0013831505 0)
(0.41405625 -0.0015972111 0)
(0.41626945 -0.0018214763 0)
(0.41871749 -0.0020556261 0)
(0.42140858 -0.0022993038 0)
(0.42434999 -0.002551858 0)
(0.42754841 -0.0028125351 0)
(0.4310093 -0.0030803396 0)
(0.43473708 -0.0033541434 0)
(0.43873466 -0.0036326175 0)
(0.44300351 -0.0039143071 0)
(0.44754331 -0.0041976061 0)
(0.45235199 -0.0044808059 0)
(0.45742549 -0.0047621117 0)
(0.4627578 -0.0050396537 0)
(0.46834084 -0.0053115269 0)
(0.47416452 -0.0055757989 0)
(0.48021667 -0.0058305346 0)
(0.48648317 -0.0060738113 0)
(0.49294801 -0.0063037332 0)
(0.49959335 -0.0065184517 0)
(0.50639972 -0.0067161752 0)
(0.51334611 -0.0068951891 0)
(0.5204102 -0.0070538734 0)
(0.5275685 -0.007190721 0)
(0.53479663 -0.0073043596 0)
(0.54206949 -0.0073935781 0)
(0.54936151 -0.0074573471 0)
(0.55664693 -0.0074948453 0)
(0.56390005 -0.0075054848 0)
(0.5710955 -0.0074889305 0)
(0.5782085 -0.0074451214 0)
(0.58521515 -0.0073742889 0)
(0.59209269 -0.0072769662 0)
(0.59881976 -0.0071539984 0)
(0.60537663 -0.0070065445 0)
(0.61174549 -0.0068360782 0)
(0.61791062 -0.006644379 0)
(0.62385864 -0.0064335239 0)
(0.62957863 -0.0062058731 0)
(0.63506236 -0.005964052 0)
(0.64030439 -0.0057109279 0)
(0.6453022 -0.0054495903 0)
(0.65005624 -0.0051833185 0)
(0.65457008 -0.0049155581 0)
(0.65885034 -0.0046498851 0)
(0.66290679 -0.0043899811 0)
(0.66675229 -0.0041395888 0)
(0.67040277 -0.0039024942 0)
(0.67387713 -0.0036824705 0)
(0.6771972 -0.0034832751 0)
(0.68038761 -0.0033085805 0)
(0.68347563 -0.0031619906 0)
(0.68649103 -0.0030469831 0)
(0.68946589 -0.002966914 0)
(0.69243444 -0.0029249721 0)
(0.69543283 -0.0029242029 0)
(0.69849897 -0.0029674795 0)
(0.70167228 -0.0030575716 0)
(0.70499353 -0.0031971209 0)
(0.70850461 -0.003388753 0)
(0.71224842 -0.0036350579 0)
(0.71626863 -0.0039387487 0)
(0.72060965 -0.0043026427 0)
(0.72531639 -0.0047298859 0)
(0.73043439 -0.0052239197 0)
(0.73600943 -0.0057888351 0)
(0.74208799 -0.0064292953 0)
(0.74871646 -0.0071510926 0)
(0.75594215 -0.0079609092 0)
(0.76381173 -0.0088673235 0)
(0.77237323 -0.0098802052 0)
(0.7816727 -0.011012629 0)
(0.79175828 -0.012279402 0)
(0.80267301 -0.013700806 0)
(0.81446311 -0.015299087 0)
(0.82716246 -0.017105849 0)
(0.84081007 -0.019153696 0)
(0.85541639 -0.02149086 0)
(0.87100137 -0.024161387 0)
(0.88752176 -0.027234212 0)
(0.90495644 -0.03075676 0)
(0.92314925 -0.034814252 0)
(0.94200695 -0.039423176 0)
(0.96115378 -0.044659716 0)
(0.98040542 -0.050418901 0)
(0.99898068 -0.056717901 0)
(1.0166728 -0.063137858 0)
(1.0319464 -0.069614922 0)
(1.0449388 -0.074992349 0)
(1.0525974 -0.079379639 0)
(1.0565736 -0.079552252 0)
(1.0507506 -0.07750088 0)
(1.04035 -0.062569545 0)
(1.0190187 -0.047397382 0)
(0.55819046 0.00051529244 0)
(0.5579077 0.0010645251 0)
(0.55743184 0.00092130944 0)
(0.55708674 0.0011685806 0)
(0.55652755 0.0011574459 0)
(0.55611301 0.0012692776 0)
(0.55556288 0.0012889885 0)
(0.55512688 0.001329884 0)
(0.55462874 0.0013367389 0)
(0.55422637 0.0013304649 0)
(0.55381968 0.0013056778 0)
(0.55350628 0.0012556073 0)
(0.55323363 0.00118774 0)
(0.55306247 0.0010938613 0)
(0.55296932 0.00098428234 0)
(0.5530002 0.00085331507 0)
(0.55315508 0.00070689353 0)
(0.55346716 0.00052622432 0)
(0.55393092 0.00030537186 0)
(0.55457655 6.0672044e-05 0)
(0.55537129 -0.00019374638 0)
(0.55629572 -0.00045348439 0)
(0.55737306 -0.00071127563 0)
(0.55862007 -0.00098061831 0)
(0.56005409 -0.0012654407 0)
(0.56169008 -0.0015641838 0)
(0.56353641 -0.0018770151 0)
(0.56560381 -0.0022049535 0)
(0.56790106 -0.0025483934 0)
(0.5704376 -0.0029079398 0)
(0.57322182 -0.0032835203 0)
(0.57626214 -0.0036749836 0)
(0.57956607 -0.0040816701 0)
(0.58314062 -0.0045027575 0)
(0.58699166 -0.0049370005 0)
(0.59112407 -0.0053829172 0)
(0.59554128 -0.005838653 0)
(0.6002453 -0.0063020924 0)
(0.60523635 -0.0067707996 0)
(0.61051289 -0.0072421054 0)
(0.6160713 -0.0077130965 0)
(0.62190594 -0.008180685 0)
(0.62800892 -0.008641641 0)
(0.63437022 -0.0090926337 0)
(0.64097753 -0.0095302888 0)
(0.64781641 -0.0099512245 0)
(0.65487028 -0.010352098 0)
(0.66212054 -0.010729646 0)
(0.66954675 -0.011080716 0)
(0.67712673 -0.011402313 0)
(0.68483682 -0.011691622 0)
(0.69265205 -0.011946045 0)
(0.7005464 -0.012163232 0)
(0.70849308 -0.012341114 0)
(0.71646475 -0.012477929 0)
(0.7244338 -0.012572258 0)
(0.73237269 -0.012623052 0)
(0.74025415 -0.012629657 0)
(0.74805155 -0.012591842 0)
(0.75573909 -0.01250982 0)
(0.76329214 -0.012384257 0)
(0.77068746 -0.012216292 0)
(0.77790345 -0.012007535 0)
(0.78492038 -0.011760068 0)
(0.79172061 -0.011476436 0)
(0.79828876 -0.011159632 0)
(0.8046119 -0.010813079 0)
(0.81067969 -0.010440602 0)
(0.81648446 -0.010046401 0)
(0.82202138 -0.0096350128 0)
(0.82728847 -0.0092112762 0)
(0.83228666 -0.0087802913 0)
(0.83701985 -0.0083473704 0)
(0.84149484 -0.0079180003 0)
(0.84572137 -0.0074977855 0)
(0.849712 -0.0070924105 0)
(0.85348208 -0.0067075757 0)
(0.85704964 -0.006348965 0)
(0.86043523 -0.0060221738 0)
(0.86366181 -0.0057326855 0)
(0.86675451 -0.0054857937 0)
(0.86974051 -0.0052865919 0)
(0.87264874 -0.0051398763 0)
(0.87550968 -0.0050501758 0)
(0.87835511 -0.0050216901 0)
(0.88121779 -0.0050583338 0)
(0.88413114 -0.0051636536 0)
(0.88712902 -0.0053409212 0)
(0.89024533 -0.0055930657 0)
(0.89351375 -0.0059228048 0)
(0.89696743 -0.0063325968 0)
(0.90063865 -0.0068248201 0)
(0.90455857 -0.0074017405 0)
(0.90875684 -0.0080657767 0)
(0.91326143 -0.0088194277 0)
(0.91809809 -0.0096656119 0)
(0.92329041 -0.010607555 0)
(0.92885896 -0.011649319 0)
(0.93482167 -0.012795579 0)
(0.94119239 -0.014052535 0)
(0.94798183 -0.015427353 0)
(0.95519486 -0.01692987 0)
(0.96283277 -0.018571268 0)
(0.97088771 -0.02036734 0)
(0.9793478 -0.02233528 0)
(0.98818551 -0.024499988 0)
(0.99736897 -0.026886274 0)
(1.0068373 -0.029531001 0)
(1.0165263 -0.032464457 0)
(1.0263157 -0.035734139 0)
(1.0360892 -0.039361453 0)
(1.0456209 -0.043391052 0)
(1.0547204 -0.047793302 0)
(1.0629831 -0.052576372 0)
(1.0701495 -0.05756928 0)
(1.0755333 -0.062701479 0)
(1.078921 -0.067498639 0)
(1.0791958 -0.071840221 0)
(1.0765978 -0.07463004 0)
(1.0693464 -0.076060307 0)
(1.0590843 -0.073439621 0)
(1.0434841 -0.068805569 0)
(1.0261608 -0.054121115 0)
(1.0099694 -0.037778307 0)
(0.68575743 0.00054430611 0)
(0.68587872 0.0012670739 0)
(0.68563402 0.0011140165 0)
(0.68566114 0.0014044691 0)
(0.6854435 0.0013896807 0)
(0.68542579 0.0015062915 0)
(0.68528841 0.0015108403 0)
(0.68529276 0.0015341666 0)
(0.68526249 0.0015099198 0)
(0.6853467 0.0014667767 0)
(0.68545315 0.0013952681 0)
(0.68567004 0.0012951437 0)
(0.68595609 0.0011717215 0)
(0.68636705 0.0010173567 0)
(0.68688547 0.00083151123 0)
(0.68754403 0.00059992503 0)
(0.68833374 0.0003302317 0)
(0.68928028 3.3697246e-05 0)
(0.69034306 -0.00028001669 0)
(0.69151412 -0.00060877654 0)
(0.69281674 -0.00094256226 0)
(0.69427048 -0.0012973228 0)
(0.69589436 -0.0016783211 0)
(0.69770667 -0.0020812067 0)
(0.69971413 -0.0025031544 0)
(0.70192747 -0.0029458296 0)
(0.70435584 -0.0034091733 0)
(0.70700876 -0.0038940166 0)
(0.70989442 -0.0044004337 0)
(0.71302093 -0.0049286538 0)
(0.71639533 -0.0054782478 0)
(0.72002426 -0.0060486077 0)
(0.72391328 -0.0066385374 0)
(0.72806714 -0.0072465433 0)
(0.73248925 -0.007870591 0)
(0.73718181 -0.0085082777 0)
(0.74214542 -0.0091567081 0)
(0.74737911 -0.0098126096 0)
(0.75288002 -0.010472288 0)
(0.75864346 -0.011131727 0)
(0.76466265 -0.011786598 0)
(0.77092881 -0.01243235 0)
(0.77743096 -0.013064265 0)
(0.78415611 -0.013677524 0)
(0.79108913 -0.014267291 0)
(0.79821292 -0.01482877 0)
(0.80550848 -0.01535728 0)
(0.81295504 -0.015848311 0)
(0.82053025 -0.016297589 0)
(0.82821038 -0.016701126 0)
(0.8359705 -0.017055267 0)
(0.84378474 -0.017356741 0)
(0.85162657 -0.017602698 0)
(0.85946902 -0.017790752 0)
(0.86728498 -0.017919014 0)
(0.87504746 -0.017986126 0)
(0.88272988 -0.017991291 0)
(0.8903063 -0.017934296 0)
(0.89775174 -0.017815531 0)
(0.90504237 -0.017636008 0)
(0.91215577 -0.01739736 0)
(0.91907116 -0.017101847 0)
(0.92576958 -0.016752347 0)
(0.93223406 -0.016352341 0)
(0.93844981 -0.015905888 0)
(0.94440431 -0.015417601 0)
(0.95008747 -0.014892603 0)
(0.95549167 -0.014336496 0)
(0.96061187 -0.013755303 0)
(0.96544561 -0.01315543 0)
(0.96999305 -0.012543597 0)
(0.97425696 -0.011926794 0)
(0.97824268 -0.011312211 0)
(0.9819581 -0.010707183 0)
(0.98541356 -0.010119118 0)
(0.98862176 -0.0095554446 0)
(0.99159765 -0.0090235233 0)
(0.99435829 -0.0085306121 0)
(0.9969227 -0.0080837546 0)
(0.99931164 -0.0076897758 0)
(1.0015475 -0.0073551319 0)
(1.0036538 -0.0070859537 0)
(1.0056556 -0.0068879292 0)
(1.0075781 -0.0067662975 0)
(1.0094477 -0.0067257493 0)
(1.0112905 -0.0067704507 0)
(1.0131328 -0.0069039761 0)
(1.0150003 -0.0071294077 0)
(1.0169182 -0.0074492635 0)
(1.0189103 -0.0078656555 0)
(1.0209994 -0.0083802258 0)
(1.0232062 -0.008994355 0)
(1.0255496 -0.0097091004 0)
(1.0280458 -0.010525452 0)
(1.0307089 -0.011444259 0)
(1.0335497 -0.012466608 0)
(1.0365759 -0.013593742 0)
(1.0397916 -0.014827545 0)
(1.0431975 -0.016170304 0)
(1.0467895 -0.017625505 0)
(1.0505597 -0.019197297 0)
(1.0544941 -0.020891897 0)
(1.0585743 -0.02271629 0)
(1.0627731 -0.024680835 0)
(1.0670584 -0.026796199 0)
(1.0713839 -0.029078307 0)
(1.0756974 -0.031541128 0)
(1.079922 -0.034206301 0)
(1.0839756 -0.037086405 0)
(1.0877312 -0.040204396 0)
(1.0910639 -0.043555611 0)
(1.0937672 -0.047149696 0)
(1.0956697 -0.050925795 0)
(1.0964498 -0.054851216 0)
(1.0959276 -0.058731092 0)
(1.0936327 -0.062460562 0)
(1.0895233 -0.065573005 0)
(1.082941 -0.067931273 0)
(1.074333 -0.068528986 0)
(1.0627787 -0.067518429 0)
(1.049759 -0.06265981 0)
(1.0343501 -0.055541803 0)
(1.0187232 -0.041027285 0)
(1.0063668 -0.024391679 0)
(0.79362324 0.00038099131 0)
(0.79429401 0.0011946172 0)
(0.79438385 0.001028549 0)
(0.79491533 0.0013265072 0)
(0.79515461 0.0012921244 0)
(0.79565274 0.0013909672 0)
(0.79603337 0.0013655129 0)
(0.79658053 0.001358046 0)
(0.79710789 0.0012948615 0)
(0.79776404 0.0012105774 0)
(0.79845887 0.0010884747 0)
(0.79927155 0.00092574346 0)
(0.80015836 0.00072296918 0)
(0.80116328 0.00047651125 0)
(0.80227138 0.00019773902 0)
(0.8034855 -0.00011182513 0)
(0.8047813 -0.00044907224 0)
(0.80616084 -0.00080826463 0)
(0.80764968 -0.0011827526 0)
(0.80926293 -0.0015895657 0)
(0.81101906 -0.0020316615 0)
(0.81293565 -0.0025040171 0)
(0.81501715 -0.0030017212 0)
(0.81727262 -0.003527087 0)
(0.81971117 -0.0040796409 0)
(0.82234259 -0.0046591964 0)
(0.82517444 -0.0052653991 0)
(0.82821474 -0.0058984134 0)
(0.83146998 -0.0065578942 0)
(0.83494641 -0.0072435375 0)
(0.83864906 -0.0079543966 0)
(0.84258232 -0.0086892471 0)
(0.84674935 -0.0094462201 0)
(0.85115231 -0.010223033 0)
(0.85579195 -0.011016776 0)
(0.86066774 -0.011824065 0)
(0.86577752 -0.012640937 0)
(0.87111758 -0.013462966 0)
(0.87668241 -0.014285238 0)
(0.88246478 -0.015102462 0)
(0.88845554 -0.015908998 0)
(0.89464376 -0.01669897 0)
(0.90101655 -0.017466328 0)
(0.90755929 -0.018204959 0)
(0.91425553 -0.018908768 0)
(0.92108717 -0.019571776 0)
(0.92803458 -0.0201882 0)
(0.93507668 -0.020752544 0)
(0.9421912 -0.021259664 0)
(0.94935479 -0.021704848 0)
(0.95654331 -0.022083868 0)
(0.963732 -0.022393044 0)
(0.97089572 -0.022629286 0)
(0.97800924 -0.022790143 0)
(0.98504746 -0.022873836 0)
(0.99198563 -0.022879292 0)
(0.99879966 -0.02280617 0)
(1.0054663 -0.022654877 0)
(1.0119633 -0.022426581 0)
(1.0182699 -0.022123212 0)
(1.0243667 -0.021747463 0)
(1.0302358 -0.021302771 0)
(1.0358614 -0.020793298 0)
(1.0412295 -0.020223902 0)
(1.0463282 -0.019600097 0)
(1.0511477 -0.018928014 0)
(1.0556804 -0.01821434 0)
(1.059921 -0.017466271 0)
(1.0638666 -0.016691444 0)
(1.0675165 -0.015897876 0)
(1.0708722 -0.015093891 0)
(1.0739376 -0.014288054 0)
(1.0767186 -0.01348909 0)
(1.0792235 -0.012705817 0)
(1.0814623 -0.011947058 0)
(1.0834472 -0.011221581 0)
(1.0851919 -0.010537993 0)
(1.086712 -0.0099046927 0)
(1.0880244 -0.0093297557 0)
(1.0891474 -0.0088208939 0)
(1.0901003 -0.0083853395 0)
(1.0909032 -0.0080298262 0)
(1.0915769 -0.0077603877 0)
(1.0921427 -0.0075824335 0)
(1.0926216 -0.0075006493 0)
(1.0930349 -0.0075190688 0)
(1.093403 -0.0076408922 0)
(1.0937456 -0.0078686464 0)
(1.0940815 -0.0082040414 0)
(1.0944279 -0.0086481661 0)
(1.0948003 -0.0092013814 0)
(1.0952124 -0.0098635585 0)
(1.0956757 -0.010634014 0)
(1.0961993 -0.011511883 0)
(1.0967896 -0.012495993 0)
(1.09745 -0.01358522 0)
(1.098181 -0.01477836 0)
(1.0989796 -0.016074604 0)
(1.0998396 -0.01747339 0)
(1.1007506 -0.018975099 0)
(1.1016986 -0.020580574 0)
(1.1026646 -0.022292323 0)
(1.1036255 -0.024113409 0)
(1.1045511 -0.026049543 0)
(1.1054066 -0.028106449 0)
(1.1061461 -0.030293738 0)
(1.1067193 -0.032618635 0)
(1.1070565 -0.035093489 0)
(1.1070854 -0.037721248 0)
(1.1067001 -0.040510938 0)
(1.1058013 -0.043445087 0)
(1.10423 -0.046514582 0)
(1.1018668 -0.049646828 0)
(1.0984839 -0.052791531 0)
(1.0939872 -0.055759423 0)
(1.0880724 -0.058446814 0)
(1.0808009 -0.060447639 0)
(1.0717901 -0.06166627 0)
(1.0615168 -0.061284845 0)
(1.0495405 -0.059494138 0)
(1.0370479 -0.054556529 0)
(1.0239877 -0.047687555 0)
(1.0116616 -0.035198739 0)
(1.0034086 -0.02017269 0)
(0.88185457 1.0739537e-05 0)
(0.88310286 0.00083044297 0)
(0.88354542 0.00064770595 0)
(0.88460068 0.00092761707 0)
(0.88530532 0.00087042819 0)
(0.88632266 0.00093957812 0)
(0.88720908 0.00087761423 0)
(0.88827679 0.00082746394 0)
(0.88932108 0.00071245368 0)
(0.89049292 0.00056989661 0)
(0.89169724 0.00038352498 0)
(0.89300452 0.00016193129 0)
(0.89435501 -9.4528939e-05 0)
(0.89578197 -0.00039057509 0)
(0.8972537 -0.00071631325 0)
(0.89880588 -0.0010710906 0)
(0.90043823 -0.0014552789 0)
(0.90217081 -0.0018817376 0)
(0.90401538 -0.0023500023 0)
(0.90598758 -0.0028545817 0)
(0.90808828 -0.0033914413 0)
(0.91032593 -0.0039634306 0)
(0.9127081 -0.0045702347 0)
(0.91524438 -0.0052107018 0)
(0.91794083 -0.0058831987 0)
(0.92080507 -0.0065877426 0)
(0.9238431 -0.0073235392 0)
(0.92706094 -0.008090367 0)
(0.93046332 -0.0088873546 0)
(0.93405441 -0.0097135953 0)
(0.93783715 -0.010567519 0)
(0.94181364 -0.011447189 0)
(0.94598475 -0.012349984 0)
(0.95035027 -0.013272777 0)
(0.95490857 -0.014211756 0)
(0.95965681 -0.015162556 0)
(0.96459059 -0.016120183 0)
(0.96970412 -0.017079122 0)
(0.97498999 -0.018033336 0)
(0.98043928 -0.018976385 0)
(0.98604145 -0.019901468 0)
(0.99178445 -0.020801556 0)
(0.99765465 -0.021669469 0)
(1.003637 -0.022498003 0)
(1.0097149 -0.023280029 0)
(1.0158706 -0.024008606 0)
(1.0220852 -0.024677081 0)
(1.0283386 -0.025279192 0)
(1.0346099 -0.025809148 0)
(1.0408775 -0.026261719 0)
(1.0471193 -0.0266323 0)
(1.0533127 -0.026916979 0)
(1.0594352 -0.027112589 0)
(1.0654644 -0.027216755 0)
(1.071378 -0.027227928 0)
(1.0771545 -0.027145421 0)
(1.082773 -0.026969423 0)
(1.0882135 -0.026701012 0)
(1.0934572 -0.026342163 0)
(1.0984864 -0.025895733 0)
(1.1032852 -0.025365452 0)
(1.107839 -0.024755895 0)
(1.112135 -0.024072446 0)
(1.1161622 -0.023321256 0)
(1.1199114 -0.022509192 0)
(1.1233755 -0.021643776 0)
(1.1265493 -0.020733121 0)
(1.1294296 -0.019785865 0)
(1.1320152 -0.018811086 0)
(1.1343069 -0.017818237 0)
(1.1363075 -0.016817049 0)
(1.1380217 -0.015817468 0)
(1.139456 -0.014829546 0)
(1.1406186 -0.013863379 0)
(1.1415194 -0.012928988 0)
(1.1421701 -0.01203627 0)
(1.1425834 -0.011194855 0)
(1.1427735 -0.010414076 0)
(1.1427559 -0.0097027923 0)
(1.1425467 -0.0090694295 0)
(1.142163 -0.0085216732 0)
(1.1416224 -0.0080666249 0)
(1.1409429 -0.0077106386 0)
(1.1401427 -0.007459284 0)
(1.1392395 -0.0073171823 0)
(1.1382509 -0.0072880246 0)
(1.1371938 -0.0073744852 0)
(1.1360843 -0.0075783853 0)
(1.1349372 -0.0079005544 0)
(1.1337661 -0.0083410802 0)
(1.1325829 -0.0088991788 0)
(1.1313976 -0.0095735085 0)
(1.1302185 -0.010362055 0)
(1.1290511 -0.011262429 0)
(1.1278991 -0.012271719 0)
(1.1267636 -0.013386976 0)
(1.1256433 -0.014605179 0)
(1.1245339 -0.01592366 0)
(1.1234285 -0.017339858 0)
(1.1223173 -0.018851941 0)
(1.1211874 -0.020458415 0)
(1.1200222 -0.022159057 0)
(1.118802 -0.023953877 0)
(1.1175019 -0.025844758 0)
(1.1160936 -0.027833055 0)
(1.1145405 -0.029922573 0)
(1.1128028 -0.032114071 0)
(1.1108265 -0.034411156 0)
(1.1085567 -0.036807871 0)
(1.1059136 -0.039301355 0)
(1.1028264 -0.041864324 0)
(1.0991806 -0.044474667 0)
(1.0949012 -0.04705459 0)
(1.089834 -0.049544964 0)
(1.083943 -0.051766927 0)
(1.0770359 -0.053617523 0)
(1.0692173 -0.054734358 0)
(1.06026 -0.055024361 0)
(1.0505741 -0.053792162 0)
(1.0399305 -0.05117931 0)
(1.0291613 -0.045862344 0)
(1.0184571 -0.038766882 0)
(1.008522 -0.027703181 0)
(1.0022193 -0.01479354 0)
(0.95149917 -0.00057614438 0)
(0.95329985 0.00016405302 0)
(0.95404402 -3.6424583e-05 0)
(0.95554867 0.0002000062 0)
(0.95663797 0.00011218703 0)
(0.95807673 0.00014433124 0)
(0.95935925 4.6981544e-05 0)
(0.96082 -3.8877217e-05 0)
(0.96223297 -0.00019010673 0)
(0.96374817 -0.00036686493 0)
(0.96526073 -0.00058715531 0)
(0.96684362 -0.00083984995 0)
(0.96845927 -0.0011273407 0)
(0.97014536 -0.0014532536 0)
(0.97188592 -0.0018204032 0)
(0.9737077 -0.0022352795 0)
(0.97561053 -0.0026923976 0)
(0.97760872 -0.0031905565 0)
(0.97969899 -0.0037265604 0)
(0.98189088 -0.0043046136 0)
(0.98418964 -0.0049239404 0)
(0.98660418 -0.0055834341 0)
(0.98913858 -0.0062806275 0)
(0.99179939 -0.0070155895 0)
(0.99459177 -0.0077870717 0)
(0.99752155 -0.008594465 0)
(1.000593 -0.0094366434 0)
(1.0038103 -0.010312715 0)
(1.0071762 -0.011221249 0)
(1.010693 -0.01216065 0)
(1.0143617 -0.01312868 0)
(1.0181823 -0.014122659 0)
(1.0221538 -0.015139209 0)
(1.0262741 -0.016174385 0)
(1.0305396 -0.017223528 0)
(1.0349458 -0.018281384 0)
(1.0394867 -0.019342044 0)
(1.0441554 -0.020399057 0)
(1.0489432 -0.021445441 0)
(1.0538404 -0.022473809 0)
(1.0588361 -0.023476425 0)
(1.0639181 -0.02444535 0)
(1.0690727 -0.025372521 0)
(1.0742857 -0.026249908 0)
(1.0795413 -0.027069608 0)
(1.0848231 -0.027823981 0)
(1.0901136 -0.028505759 0)
(1.0953949 -0.029108156 0)
(1.1006481 -0.029624965 0)
(1.1058544 -0.03005065 0)
(1.1109942 -0.030380422 0)
(1.1160481 -0.030610312 0)
(1.1209967 -0.030737222 0)
(1.1258209 -0.030758978 0)
(1.1305019 -0.030674363 0)
(1.1350216 -0.030483146 0)
(1.1393626 -0.030186094 0)
(1.1435085 -0.029784982 0)
(1.1474438 -0.029282581 0)
(1.1511545 -0.028682649 0)
(1.1546276 -0.027989896 0)
(1.1578518 -0.027209955 0)
(1.1608172 -0.026349326 0)
(1.1635156 -0.025415329 0)
(1.1659404 -0.02441603 0)
(1.1680868 -0.023360181 0)
(1.1699514 -0.022257128 0)
(1.171533 -0.021116747 0)
(1.1728318 -0.019949337 0)
(1.1738499 -0.018765552 0)
(1.1745908 -0.017576292 0)
(1.1750598 -0.016392625 0)
(1.1752638 -0.015225676 0)
(1.1752109 -0.014086551 0)
(1.174911 -0.012986215 0)
(1.1743747 -0.011935425 0)
(1.1736144 -0.010944595 0)
(1.172643 -0.010023734 0)
(1.1714747 -0.0091823095 0)
(1.1701242 -0.0084291707 0)
(1.168607 -0.0077724787 0)
(1.1669387 -0.0072196663 0)
(1.1651354 -0.0067769948 0)
(1.1632133 -0.0064497928 0)
(1.1611881 -0.006242369 0)
(1.1590756 -0.0061581613 0)
(1.1568907 -0.0061993379 0)
(1.1546473 -0.0063671298 0)
(1.1523585 -0.006661563 0)
(1.1500361 -0.0070817876 0)
(1.1476902 -0.007625865 0)
(1.1453297 -0.0082910901 0)
(1.1429616 -0.0090738688 0)
(1.1405911 -0.009970383 0)
(1.1382215 -0.010976337 0)
(1.1358539 -0.012087355 0)
(1.1334873 -0.013298756 0)
(1.1311185 -0.014606039 0)
(1.1287423 -0.016004848 0)
(1.1263507 -0.01749156 0)
(1.1239338 -0.019062756 0)
(1.1214785 -0.02071613 0)
(1.1189694 -0.022449589 0)
(1.1163866 -0.024262507 0)
(1.1137082 -0.02615369 0)
(1.1109051 -0.028123669 0)
(1.1079466 -0.030169956 0)
(1.1047904 -0.032291671 0)
(1.1013947 -0.034478919 0)
(1.0976986 -0.036723076 0)
(1.0936502 -0.038993485 0)
(1.0891642 -0.041262463 0)
(1.0841904 -0.04345402 0)
(1.0786175 -0.045508174 0)
(1.0724334 -0.047264033 0)
(1.0655061 -0.048629133 0)
(1.0579397 -0.049296184 0)
(1.0495986 -0.049190712 0)
(1.0408216 -0.047750802 0)
(1.0315427 -0.045088307 0)
(1.0223866 -0.04019361 0)
(1.0137438 -0.033699225 0)
(1.0060364 -0.024113251 0)
(1.001412 -0.012684565 0)
(1.004242 -0.0013564539 0)
(1.0064926 -0.00074085227 0)
(1.0074238 -0.00093491465 0)
(1.0092609 -0.00074703043 0)
(1.0105834 -0.0008521246 0)
(1.0122931 -0.00084942696 0)
(1.0138049 -0.0009679986 0)
(1.0154986 -0.0010762043 0)
(1.0171258 -0.0012476104 0)
(1.0188525 -0.0014435514 0)
(1.0205718 -0.0016862638 0)
(1.0223618 -0.0019705879 0)
(1.0241798 -0.0023004983 0)
(1.026065 -0.0026749958 0)
(1.0279996 -0.0030920229 0)
(1.0300016 -0.0035530158 0)
(1.0320634 -0.0040570137 0)
(1.0341979 -0.0046083706 0)
(1.036406 -0.0052058496 0)
(1.0386968 -0.0058484548 0)
(1.0410716 -0.0065340549 0)
(1.0435364 -0.0072629853 0)
(1.0460949 -0.0080339822 0)
(1.0487524 -0.0088461685 0)
(1.0515124 -0.0096979237 0)
(1.0543789 -0.01058828 0)
(1.0573545 -0.011515645 0)
(1.0604416 -0.012478603 0)
(1.0636414 -0.013475142 0)
(1.0669544 -0.014503018 0)
(1.0703802 -0.015559334 0)
(1.0739172 -0.016640698 0)
(1.0775629 -0.01774302 0)
(1.0813138 -0.018861602 0)
(1.0851653 -0.019991027 0)
(1.0891119 -0.021125264 0)
(1.0931467 -0.022257626 0)
(1.0972622 -0.023380885 0)
(1.1014495 -0.024487288 0)
(1.105699 -0.025568696 0)
(1.1099999 -0.026616644 0)
(1.1143408 -0.027622497 0)
(1.118709 -0.028577535 0)