/*--------------------------------*- C++ -*----------------------------------*\
| =========                 |                                                 |
| \\      /  F ield         | foam-extend: Open Source CFD                    |
|  \\    /   O peration     | Version:     4.1                                |
|   \\  /    A nd           | Web:         http://www.foam-extend.org         |
|    \\/     M anipulation  |                                                 |
\*---------------------------------------------------------------------------*/
FoamFile
{
    version     2.0;
    format      ascii;
    class       surfaceScalarField;
    location    "2.4";
    object      phi;
}
// * * * * * * * * * * * * * * * * * * * * * * * * * * * * * * * * * * * * * //

dimensions      [0 3 -1 0 0 0 0];

internalField   nonuniform List<scalar> 
31929
(
-3.0934602e-05
-5.5075322e-08
-3.086495e-05
-6.965214e-08
-3.0817094e-05
-4.7855849e-08
-3.0747664e-05
-6.9429735e-08
-3.0683016e-05
-6.4647569e-08
-3.0605187e-05
-7.7829159e-08
-3.0524572e-05
-8.0615515e-08
-3.0435802e-05
-8.8769636e-08
-3.0341962e-05
-9.3840004e-08
-3.0242406e-05
-9.9555738e-08
-3.0137808e-05
-1.0459815e-07
-3.0029026e-05
-1.0878264e-07
-2.9916274e-05
-1.1275165e-07
-2.9800827e-05
-1.1544733e-07
-2.968307e-05
-1.1775649e-07
-2.9564373e-05
-1.1869684e-07
-2.944546e-05
-1.1891319e-07
-2.9327829e-05
-1.1763125e-07
-2.9212575e-05
-1.1525411e-07
-2.9101181e-05
-1.1139406e-07
-2.8994937e-05
-1.0624373e-07
-2.889531e-05
-9.9626713e-08
-2.8803645e-05
-9.1665039e-08
-2.8721762e-05
-8.188341e-08
-2.8651087e-05
-7.0674415e-08
-2.859263e-05
-5.8457152e-08
-2.8547471e-05
-4.5159431e-08
-2.8517946e-05
-2.9524962e-08
-2.8506647e-05
-1.1298654e-08
-2.8515923e-05
9.2755317e-09
-2.8545909e-05
2.9985982e-08
-2.8595171e-05
4.9262124e-08
-2.8663552e-05
6.8380957e-08
-2.8751386e-05
8.7834039e-08
-2.8859277e-05
1.0789165e-07
-2.898791e-05
1.2863283e-07
-2.9137971e-05
1.5006092e-07
-2.9310145e-05
1.7217365e-07
-2.9505103e-05
1.9495881e-07
-2.9723513e-05
2.1840918e-07
-2.9966027e-05
2.425145e-07
-3.0233282e-05
2.6725489e-07
-3.0525887e-05
2.9260528e-07
-3.0844407e-05
3.1851997e-07
-3.1189344e-05
3.4493725e-07
-3.1561116e-05
3.7177162e-07
-3.1960029e-05
3.989125e-07
-3.2386251e-05
4.262224e-07
-3.2839786e-05
4.5353464e-07
-3.3320442e-05
4.8065641e-07
-3.3827811e-05
5.0736877e-07
-3.4361241e-05
5.3343071e-07
-3.4919825e-05
5.5858366e-07
-3.5502383e-05
5.8255748e-07
-3.6107458e-05
6.0507489e-07
-3.6733319e-05
6.2586135e-07
-3.7377969e-05
6.4464999e-07
-3.8039158e-05
6.6118921e-07
-3.8714407e-05
6.7524934e-07
-3.9401036e-05
6.8662874e-07
-4.0096192e-05
6.9515635e-07
-4.0796891e-05
7.0069901e-07
-4.1500053e-05
7.0316186e-07
-4.2202545e-05
7.0249125e-07
-4.290122e-05
6.9867542e-07
-4.3592965e-05
6.9174542e-07
-4.4274741e-05
6.8177535e-07
-4.494362e-05
6.6887954e-07
-4.5596835e-05
6.5321504e-07
-4.6231814e-05
6.3497838e-07
-4.6846218e-05
6.1440448e-07
-4.7437984e-05
5.9176562e-07
-4.8005353e-05
5.6736915e-07
-4.8546907e-05
5.4155375e-07
-4.9061595e-05
5.1468833e-07
-4.9548763e-05
4.8716801e-07
-5.0008172e-05
4.5940891e-07
-5.0440018e-05
4.3184609e-07
-5.0844944e-05
4.0492621e-07
-5.1224048e-05
3.7910422e-07
-5.1578885e-05
3.5483672e-07
-5.1911464e-05
3.3257939e-07
-5.2224242e-05
3.1277726e-07
-5.2520109e-05
2.9586695e-07
-5.2802373e-05
2.8226481e-07
-5.3074747e-05
2.7237341e-07
-5.3341318e-05
2.6657074e-07
-5.3606539e-05
2.6522178e-07
-5.3875206e-05
2.6866663e-07
-5.4152446e-05
2.7723982e-07
-5.4443704e-05
2.9125794e-07
-5.4754753e-05
3.1104928e-07
-5.509169e-05
3.3693737e-07
-5.546098e-05
3.6928954e-07
-5.5869468e-05
4.0848777e-07
-5.6324485e-05
4.5501707e-07
-5.6833894e-05
5.0940976e-07
-5.740631e-05
5.7241605e-07
-5.8051206e-05
6.4489567e-07
-5.8779373e-05
7.2816661e-07
-5.9603163e-05
8.2379036e-07
-6.0537468e-05
9.3430447e-07
-6.1600235e-05
1.0627679e-06
-6.2814546e-05
1.2143107e-06
-6.4209627e-05
1.3950812e-06
-6.5825085e-05
1.6154576e-06
-6.771254e-05
1.8874551e-06
-6.9943712e-05
2.2311716e-06
-7.2611891e-05
2.668179e-06
-7.5846105e-05
3.2342141e-06
-7.9808592e-05
3.962487e-06
-8.4717485e-05
4.9088935e-06
-9.0829247e-05
6.1117615e-06
-9.8473924e-05
7.6446773e-06
-0.00010799836
9.5244361e-06
-0.00011982959
1.1831225e-05
-0.00013433106
1.4501477e-05
-0.00015195564
1.7624577e-05
-0.00017288826
2.0932625e-05
-0.00019752731
2.4639048e-05
-0.00022530459
2.7777277e-05
-0.00025684193
3.1537346e-05
-0.00028730087
3.0458932e-05
3.5279733e-05
-9.1843897e-05
-1.2697641e-07
-9.1726082e-05
-1.8746708e-07
-9.1616586e-05
-1.5735212e-07
-9.1479105e-05
-2.0691096e-07
-9.1337026e-05
-2.0672626e-07
-9.1176205e-05
-2.3865045e-07
-9.100571e-05
-2.5111056e-07
-9.0821439e-05
-2.7304085e-07
-9.0626818e-05
-2.8846076e-07
-9.0421637e-05
-3.0473653e-07
-9.0207557e-05
-3.1867825e-07
-8.9985861e-05
-3.3047854e-07
-8.9758018e-05
-3.4059476e-07
-8.9526048e-05
-3.4741705e-07
-8.929177e-05
-3.5203421e-07
-8.9057637e-05
-3.5283017e-07
-8.882592e-05
-3.5063021e-07
-8.8599414e-05
-3.4413763e-07
-8.8380832e-05
-3.3383533e-07
-8.8173344e-05
-3.1888264e-07
-8.7980547e-05
-2.9904066e-07
-8.78064e-05
-2.7377407e-07
-8.7654423e-05
-2.4364187e-07
-8.7527825e-05
-2.0848117e-07
-8.7430412e-05
-1.6808728e-07
-8.7368974e-05
-1.198954e-07
-8.7350127e-05
-6.400668e-08
-8.7379633e-05
-1.8335477e-11
-8.7458556e-05
6.7623815e-08
-8.7582418e-05
1.3313805e-07
-8.7750757e-05
1.983251e-07
-8.7965814e-05
2.6431838e-07
-8.8229095e-05
3.3166247e-07
-8.854212e-05
4.0085885e-07
-8.8906229e-05
4.7200113e-07
-8.9322705e-05
5.4510871e-07
-8.979272e-05
6.2007604e-07
-9.0317339e-05
6.967921e-07
-9.089751e-05
7.7513057e-07
-9.153406e-05
8.549583e-07
-9.2227693e-05
9.3614841e-07
-9.2978978e-05
1.0185399e-06
-9.3788343e-05
1.1019698e-06
-9.4656047e-05
1.1862245e-06
-9.5582163e-05
1.2710529e-06
-9.6566539e-05
1.3561473e-06
-9.7608763e-05
1.4411367e-06
-9.8708123e-05
1.525583e-06
-9.986356e-05
1.6089717e-06
-0.00010107362
1.6907195e-06
-0.00010233643
1.770174e-06
-0.00010364962
1.8466236e-06
-0.00010501035
1.9193091e-06
-0.00010641523
1.9874433e-06
-0.00010786038
2.0502222e-06
-0.00010934137
2.1068553e-06
-0.00011085331
2.1565834e-06
-0.00011239082
2.1987018e-06
-0.00011394815
2.2325825e-06
-0.00011551922
2.2576967e-06
-0.00011709769
2.2736233e-06
-0.00011867706
2.2800727e-06
-0.00012025079
2.2768899e-06
-0.00012181236
2.2640634e-06
-0.00012335541
2.2417262e-06
-0.00012487382
2.2101558e-06
-0.00012636182
2.1697738e-06
-0.00012781407
2.1211319e-06
-0.00012922577
2.0649147e-06
-0.00013059272
2.0019255e-06
-0.00013191139
1.9330783e-06
-0.00013317902
1.8593876e-06
-0.00013439361
1.7819596e-06
-0.00013555403
1.7019755e-06
-0.00013666003
1.6206852e-06
-0.00013771225
1.5393932e-06
-0.00013871228
1.459443e-06
-0.00013966265
1.3822082e-06
-0.0001405668
1.3090751e-06
-0.00014142912
1.2414302e-06
-0.00014225493
1.180647e-06
-0.00014305043
1.1280769e-06
-0.00014382268
1.0850294e-06
-0.00014457959
1.0527774e-06
-0.00014532986
1.0325342e-06
-0.00014608296
1.0254674e-06
-0.00014684907
1.0326824e-06
-0.00014763909
1.0552478e-06
-0.00014846461
1.0941812e-06
-0.00014933786
1.1504922e-06
-0.00015027178
1.2251739e-06
-0.00015127999
1.319263e-06
-0.00015237689
1.4338335e-06
-0.00015357769
1.5700912e-06
-0.00015489855
1.7293553e-06
-0.00015635675
1.9132142e-06
-0.00015797082
2.1234767e-06
-0.00015976084
2.3624412e-06
-0.00016174872
2.6327746e-06
-0.00016395856
2.9380085e-06
-0.00016641704
3.2822675e-06
-0.00016915395
3.6712144e-06
-0.00017220259
4.1114095e-06
-0.00017560048
4.6121931e-06
-0.00017938951
5.1841197e-06
-0.00018361676
5.8426984e-06
-0.0001883339
6.6046032e-06
-0.00019359774
7.4950055e-06
-0.00019946793
8.5383702e-06
-0.00020600661
9.7728983e-06
-0.00021327263
1.1228503e-05
-0.0002213197
1.295596e-05
-0.00023018389
1.4975957e-05
-0.00023988081
1.7341594e-05
-0.00025037999
2.0023622e-05
-0.0002616053
2.3056529e-05
-0.00027338004
2.6276216e-05
-0.00028544972
2.9694259e-05
-0.00029734711
3.2830013e-05
-0.00030851491
3.580685e-05
-0.0003179573
3.7219672e-05
-0.00032461926
3.8199307e-05
-0.00032737969
3.3219361e-05
3.048064e-05
-0.00014823822
-1.9904632e-07
-0.00014810299
-3.2268973e-07
-0.00014796855
-2.9179915e-07
-0.00014780555
-3.6991121e-07
-0.00014763377
-3.7850425e-07
-0.00014744365
-4.2876437e-07
-0.00014724282
-4.5194655e-07
-0.00014702879
-4.87074e-07
-0.00014680529
-5.1195754e-07
-0.00014657267
-5.3735617e-07
-0.00014633356
-5.5778589e-07
-0.00014608963
-5.7441448e-07
-0.00014584342
-5.8679714e-07
-0.0001455974
-5.9344214e-07
-0.00014535444
-5.9499659e-07
-0.00014511764
-5.896275e-07
-0.00014489054
-5.7772465e-07
-0.00014467721
-5.5747284e-07
-0.00014448197
-5.2907266e-07
-0.00014430926
-4.9159644e-07
-0.00014416345
-4.4484321e-07
-0.00014404904
-3.8818741e-07
-0.00014397194
-3.2074007e-07
-0.00014394034
-2.4008071e-07
-0.00014396176
-1.4667472e-07
-0.00014404184
-3.9815416e-08
-0.00014418321
7.7364411e-08
-0.00014437975
1.9652484e-07
-0.00014462886
3.1673096e-07
-0.00014493577
4.4005063e-07
-0.00014530412
5.666743e-07
-0.00014573703
6.9722962e-07
-0.0001462367
8.3133013e-07
-0.00014680483
9.6898878e-07
-0.00014744284
1.1100086e-06
-0.00014815188
1.2541571e-06
-0.00014893293
1.4011196e-06
-0.00014978669
1.5505509e-06
-0.00015071367
1.7021156e-06
-0.00015171416
1.8554443e-06
-0.00015278821
2.0102023e-06
-0.00015393566
2.1659862e-06
-0.0001551561
2.3224075e-06
-0.00015644887
2.4789953e-06
-0.00015781304
2.6352247e-06
-0.00015924737
2.7904836e-06
-0.0001607503
2.9440606e-06
-0.00016231985
3.0951399e-06
-0.00016395367
3.2427834e-06
-0.00016564889
3.3859449e-06
-0.00016740219
3.52347e-06
-0.00016920968
3.6541138e-06
-0.00017106693
3.7765616e-06
-0.00017296895
3.8894655e-06
-0.00017491019
3.9914639e-06
-0.00017688458
4.0812364e-06
-0.00017888553
4.1575362e-06
-0.00018090606
4.2192331e-06
-0.00018293883
4.2653506e-06
-0.00018497624
4.2951095e-06
-0.00018701056
4.3079397e-06
-0.00018903401
4.3035216e-06
-0.00019103891
4.2817916e-06
-0.0001930178
4.2429536e-06
-0.00019496355
4.1874792e-06
-0.0001968695
4.1161026e-06
-0.00019872954
4.0298174e-06
-0.00020053826
3.9298463e-06
-0.00020229098
3.8176405e-06
-0.00020398391
3.6948512e-06
-0.00020561414
3.5633093e-06
-0.00020717975
3.4250031e-06
-0.00020867985
3.2820597e-06
-0.00021011459
3.1367105e-06
-0.00021148518
2.9912779e-06
-0.00021279394
2.8481489e-06
-0.00021404424
2.709746e-06
-0.00021524054
2.5785102e-06
-0.00021638834
2.4568732e-06
-0.00021749414
2.3472327e-06
-0.00021856543
2.2519329e-06
-0.0002196106
2.1732485e-06
-0.00022063892
2.1133528e-06
-0.00022166047
2.074323e-06
-0.00022268604
2.0581044e-06
-0.0002237271
2.0665314e-06
-0.00022479572
2.1013011e-06
-0.00022590448
2.164009e-06
-0.00022706643
2.2561271e-06
-0.000228295
2.3790592e-06
-0.00022960395
2.5341323e-06
-0.00023100736
2.7226692e-06
-0.00023251951
2.9459836e-06
-0.00023415491
3.2054904e-06
-0.00023592824
3.5026845e-06
-0.00023785434
3.8393132e-06
-0.00023994818
4.2173202e-06
-0.00024222487
4.6391291e-06
-0.0002446996
5.1075051e-06
-0.00024738763
5.6260414e-06
-0.00025030423
6.1988682e-06
-0.00025346455
6.8315317e-06
-0.00025688345
7.5303127e-06
-0.00026057521
8.3039452e-06
-0.00026455304
9.1619544e-06
-0.00026882836
1.0118015e-05
-0.00027340977
1.118602e-05
-0.00027830135
1.2386583e-05
-0.0002835007
1.3737717e-05
-0.00028899548
1.5267679e-05
-0.00029476016
1.6993181e-05
-0.00030074996
1.8945763e-05
-0.00030689633
2.1122327e-05
-0.0003130981
2.354337e-05
-0.00031921659
2.6142109e-05
-0.00032506572
2.8905654e-05
-0.00033040723
3.1617733e-05
-0.00033494691
3.4233934e-05
-0.00033832604
3.6209142e-05
-0.00034013818
3.7618987e-05
-0.00033995023
3.7031729e-05
-0.00033719005
3.5439121e-05
-0.00033227614
2.8305453e-05
2.0785301e-05
-0.00019765788
-2.5385779e-07
-0.00019753793
-4.4263899e-07
-0.00019741711
-4.1261226e-07
-0.00019727169
-5.1533913e-07
-0.00019711902
-5.3117093e-07
-0.00019695299
-5.9479792e-07
-0.00019678037
-6.2456265e-07
-0.00019660014
-6.6730217e-07
-0.00019641624
-6.958593e-07
-0.00019622967
-7.2392693e-07
-0.00019604366
-7.4379322e-07
-0.00019586036
-7.5771656e-07
-0.00019568314
-7.640195e-07
-0.0001955151
-7.6147605e-07
-0.00019536003
-7.5006535e-07
-0.00019522167
-7.2799412e-07
-0.00019510413
-6.9526491e-07
-0.00019501154
-6.5005556e-07
-0.00019494829
-5.923269e-07
-0.00019491921
-5.2067968e-07
-0.00019493073
-4.3331653e-07
-0.00019499001
-3.2890689e-07
-0.00019510271
-2.0804158e-07
-0.00019527337
-6.9427681e-08
-0.00019550411
8.4067409e-08
-0.00019578847
2.4454753e-07
-0.00019612181
4.1070592e-07
-0.00019650973
5.8444143e-07
-0.00019695879
7.6578818e-07
-0.00019747398
9.5524942e-07
-0.0001980587
1.1513939e-06
-0.00019871499
1.3535143e-06
-0.00019944463
1.5609677e-06
-0.00020024894
1.7732985e-06
-0.00020112891
1.989985e-06
-0.00020208523
2.2104721e-06
-0.00020311829
2.434181e-06
-0.00020422822
2.6604819e-06
-0.0002054149
2.8887933e-06
-0.00020667792
3.1184645e-06
-0.00020801663
3.3489168e-06
-0.0002094301
3.5794582e-06
-0.00021091713
3.8094339e-06
-0.00021247621
4.0380718e-06
-0.00021410551
4.2645301e-06
-0.00021580288
4.4878523e-06
-0.00021756577
4.7069506e-06
-0.00021939123
4.9206026e-06
-0.00022127588
5.1274263e-06
-0.00022321584
5.3259042e-06
-0.00022520675
5.5143859e-06
-0.00022724375
5.691115e-06
-0.00022932145
5.8542605e-06
-0.00023143396
6.0019719e-06
-0.0002335749
6.1324056e-06
-0.00023573747
6.2438046e-06
-0.00023791448
6.3345433e-06
-0.00024009843
6.4031872e-06
-0.00024228162
6.4485433e-06
-0.00024445623
6.4697201e-06
-0.00024661443
6.4661392e-06
-0.0002487485
6.437592e-06
-0.00025085095
6.3842433e-06
-0.00025291464
6.3066431e-06
-0.00025493289
6.205723e-06
-0.00025689957
6.0827842e-06
-0.00025880924
5.9394896e-06
-0.00026065721
5.7778156e-06
-0.00026243962
5.6000466e-06
-0.0002641535
5.4087313e-06
-0.00026579684
5.206649e-06
-0.00026736861
4.9967741e-06
-0.0002688688
4.7822471e-06
-0.00027029841
4.5663214e-06
-0.00027165947
4.3523427e-06
-0.00027295503
4.1437093e-06
-0.00027418912
3.9438298e-06
-0.0002753667
3.7560975e-06
-0.00027649368
3.5838512e-06
-0.00027757679
3.4303393e-06
-0.00027862355
3.2986921e-06
-0.0002796422
3.1918983e-06
-0.0002806416
3.1127594e-06
-0.00028163118
3.0638992e-06
-0.00028262078
3.0477106e-06
-0.00028362063
3.0663806e-06
-0.00028464118
3.1218509e-06
-0.00028569304
3.2158608e-06
-0.00028678682
3.3499128e-06
-0.0002879331
3.5253407e-06
-0.00028914226
3.7432913e-06
-0.0002904244
4.004805e-06
-0.00029178922
4.3108051e-06
-0.00029324595
4.6622164e-06
-0.0002948032
5.0599387e-06
-0.00029646891
5.5050253e-06
-0.00029825021
5.9986188e-06
-0.00030015331
6.5422246e-06
-0.00030218337
7.1375665e-06
-0.00030434436
7.7870309e-06
-0.00030663888
8.49339e-06
-0.0003090679
9.2605543e-06
-0.00031163052
1.0092936e-05
-0.00031432347
1.099689e-05
-0.00031714066
1.1979151e-05
-0.00032007225
1.3049602e-05
-0.00032310384
1.421761e-05
-0.00032621457
1.549731e-05
-0.00032937587
1.6899021e-05
-0.00033254796
1.8439767e-05
-0.00033567828
2.0123504e-05
-0.00033869585
2.1963331e-05
-0.0003415108
2.3937271e-05
-0.00034400682
2.60394e-05
-0.00034604585
2.8181129e-05
-0.00034746035
3.0320157e-05
-0.00034807125
3.2228634e-05
-0.00034768154
3.384423e-05
-0.00034612993
3.4657529e-05
-0.0003432614
3.4750456e-05
-0.00033915899
3.2929316e-05
-0.00033378009
3.006022e-05
-0.00032844811
2.2973481e-05
1.4917787e-05
-0.00023886856
-2.7112461e-07
-0.00023879765
-5.1354477e-07
-0.00023872859
-4.8167507e-07
-0.00023864338
-6.0054885e-07
-0.00023855639
-6.181573e-07
-0.00023846424
-6.8695463e-07
-0.00023837285
-7.1594848e-07
-0.00023828249
-7.5766624e-07
-0.00023819712
-7.8122509e-07
-0.00023811845
-8.0260126e-07
-0.00023805002
-8.1221489e-07
-0.00023799439
-8.1335176e-07
-0.00023795509
-8.0332125e-07
-0.00023793516
-7.8140114e-07
-0.00023793825
-7.4698063e-07
-0.00023796776
-6.9847777e-07
-0.00023802784
-6.3519376e-07
-0.00023812319
-5.5469782e-07
-0.00023825893
-4.5658487e-07
-0.00023843962
-3.3999508e-07
-0.00023866857
-2.0436333e-07
-0.00023894906
-4.8418536e-08
-0.00023928092
1.2382104e-07
-0.00023965752
3.0717208e-07
-0.0002400755
5.0203917e-07
-0.00024054029
7.0933835e-07
-0.00024105881
9.2923006e-07
-0.0002416367
1.1623335e-06
-0.00024227795
1.4070335e-06
-0.00024298425
1.661551e-06
-0.00024375745
1.9245964e-06
-0.00024459916
2.1952229e-06
-0.00024551059
2.4723944e-06
-0.00024649257
2.7552784e-06
-0.00024754562
3.0430341e-06
-0.00024866994
3.334792e-06
-0.00024986548
3.6297207e-06
-0.0002511319
3.9269065e-06
-0.00025246863
4.2255271e-06
-0.00025387481
4.5246427e-06
-0.00025534932
4.8234211e-06
-0.00025689072
5.1208594e-06
-0.0002584973
5.4160118e-06
-0.000260167
5.7077739e-06
-0.00026189742
5.9949552e-06
-0.0002636858
6.2762248e-06
-0.00026552894
6.5500945e-06
-0.00026742326
6.814921e-06
-0.00026936471
7.0688769e-06
-0.00027134879
7.3099884e-06
-0.00027337055
7.5361421e-06
-0.00027542456
7.7451228e-06
-0.00027750495
7.9346555e-06
-0.00027960546
8.1024778e-06
-0.00028171942
8.2463705e-06
-0.00028383988
8.3642593e-06
-0.0002859596
8.4542681e-06
-0.0002880712
8.5147901e-06
-0.00029016721
8.5445471e-06
-0.00029224015
8.5426612e-06
-0.00029428267
8.5086626e-06
-0.00029628764
8.442557e-06
-0.00029824822
8.3448247e-06
-0.00030015801
8.2164301e-06
-0.0003020111
8.0588136e-06
-0.00030380218
7.8738711e-06
-0.00030552664
7.6639414e-06
-0.00030718056
7.4317402e-06
-0.00030876086
7.1803503e-06
-0.0003102653
6.9131637e-06
-0.00031169248
6.6338342e-06
-0.00031304194
6.3462316e-06
-0.00031431409
6.0544007e-06
-0.00031551026
5.7624931e-06
-0.00031663266
5.4747379e-06
-0.00031768434
5.1953911e-06
-0.00031866919
4.92868e-06
-0.00031959186
4.6787708e-06
-0.00032045773
4.4497172e-06
-0.00032127281
4.2454173e-06
-0.00032204369
4.069574e-06
-0.00032277746
3.9256715e-06
-0.00032348162
3.8169123e-06
-0.00032416394
3.7462273e-06
-0.00032483244
3.7162056e-06
-0.00032549519
3.7291276e-06
-0.00032616025
3.786914e-06
-0.00032683557
3.8911805e-06
-0.00032752884
4.0431847e-06
-0.00032824741
4.2439076e-06
-0.00032899814
4.4940268e-06
-0.00032978735
4.7940147e-06
-0.00033062067
5.1441179e-06
-0.00033150294
5.5444897e-06
-0.00033243816
5.9951557e-06
-0.00033342933
6.4962007e-06
-0.00033447841
7.0476984e-06
-0.00033558617
7.6499856e-06
-0.00033675213
8.3035208e-06
-0.00033797437
9.0092787e-06
-0.00033924948
9.7684996e-06
-0.00034057224
1.0583313e-05
-0.00034193547
1.1456161e-05
-0.00034332954
1.2390959e-05
-0.00034474205
1.3391668e-05
-0.00034615694
1.4464486e-05
-0.00034755389
1.5614558e-05
-0.00034890671
1.6850134e-05
-0.00035018269
1.8174998e-05
-0.00035133988
1.9596956e-05
-0.00035232706
2.1110684e-05
-0.0003530801
2.271637e-05
-0.0003535246
2.4381774e-05
-0.00035357204
2.6086843e-05
-0.00035312956
2.7738649e-05
-0.00035209618
2.9286778e-05
-0.00035038768
3.0520131e-05
-0.00034792608
3.1382628e-05
-0.00034470188
3.1433328e-05
-0.00034070779
3.0756365e-05
-0.0003361687
2.8390234e-05
-0.00033112468
2.5016197e-05
-0.00032664844
1.8497239e-05
1.0849946e-05
-0.00027168056
-2.308239e-07
-0.00027168918
-5.0492225e-07
-0.00027170326
-4.6760347e-07
-0.00027171254
-5.9126873e-07
-0.00027172711
-6.0358366e-07
-0.00027174608
-6.6798672e-07
-0.00027177421
-6.8781214e-07
-0.00027181268
-7.1920198e-07
-0.00027186506
-7.2884229e-07
-0.00027193326
-7.3439838e-07
-0.00027202052
-7.2496218e-07
-0.00027212913
-7.0473429e-07
-0.00027226247
-6.6998825e-07
-0.00027242357
-6.2030186e-07
-0.0002726159
-5.5464783e-07
-0.00027284255
-4.718213e-07
-0.00027310653
-3.7121935e-07
-0.00027341007
-2.5115259e-07
-0.00027375542
-1.1123643e-07
-0.00027414412
4.8697215e-08
-0.00027457281
2.2433481e-07
-0.00027503591
4.1467375e-07
-0.00027553359
6.2150152e-07
-0.00027607088
8.4446595e-07
-0.0002766529
1.0840582e-06
-0.00027728455
1.3409879e-06
-0.0002779693
1.6139767e-06
-0.00027870802
1.9010632e-06
-0.00027950187
2.2008744e-06
-0.00028035242
2.5121048e-06
-0.00028126094
2.8331199e-06
-0.00028222838
3.1626609e-06
-0.00028325545
3.4994597e-06
-0.00028434254
3.8423767e-06
-0.00028548985
4.1903409e-06
-0.00028669727
4.5422126e-06
-0.0002879645
4.8969438e-06
-0.00028929094
5.2533559e-06
-0.00029067581
5.6103955e-06
-0.000292118
5.9668298e-06
-0.00029361614
6.3215605e-06
-0.00029516853
6.6732512e-06
-0.00029677316
7.0206368e-06
-0.00029842763
7.3622489e-06
-0.00030012919
7.696518e-06
-0.00030187468
8.0217141e-06
-0.00030366052
8.3359324e-06
-0.00030548271
8.6371058e-06
-0.0003073368
8.9229745e-06
-0.00030921795
9.1911389e-06
-0.00031112088
9.4390724e-06
-0.00031303993
9.6641693e-06
-0.00031496907
9.8637965e-06
-0.00031690197
1.003538e-05
-0.00031883204
1.0176438e-05
-0.00032075248
1.0284698e-05
-0.00032265637
1.0358156e-05
-0.00032453673
1.0395155e-05
-0.00032638663
1.0394445e-05
-0.00032819924
1.0355267e-05
-0.00032996792
1.0277349e-05
-0.00033168635
1.0160985e-05
-0.00033334855
1.0007025e-05
-0.000334949
9.8168796e-06
-0.0003364827
9.5925116e-06
-0.00033794523
9.3364026e-06
-0.00033933283
9.0515371e-06
-0.00034064241
8.741322e-06
-0.00034187163
8.4095712e-06
-0.0003430189
8.0604362e-06
-0.00034408341
7.6983472e-06
-0.00034506514
7.3279577e-06
-0.00034596483
6.9540931e-06
-0.00034678401
6.5816707e-06
-0.00034752493
6.2156614e-06
-0.00034819057
5.8610312e-06
-0.00034878457
5.5226721e-06
-0.00034931116
5.2053668e-06
-0.00034977517
4.9137231e-06
-0.00035018188
4.6521278e-06
-0.000350537
4.4246966e-06
-0.00035084657
4.235243e-06
-0.00035111686
4.0872043e-06
-0.0003513543
3.983666e-06
-0.00035156537
3.9272682e-06
-0.00035175649
3.9202481e-06
-0.00035193395
3.9643734e-06
-0.00035210378
4.0610107e-06
-0.00035227165
4.2110559e-06
-0.00035244278
4.4150426e-06
-0.00035262185
4.6730985e-06
-0.0003528129
4.9850641e-06
-0.00035301924
5.350457e-06
-0.00035324338
5.768626e-06
-0.00035348693
6.2387095e-06
-0.00035375058
6.7598488e-06
-0.00035403399
7.3311043e-06
-0.00035433573
7.9517249e-06
-0.00035465321
8.6210047e-06
-0.00035498258
9.338648e-06
-0.00035531862
1.0104543e-05
-0.00035565458
1.0919268e-05
-0.00035598201
1.1783591e-05
-0.00035629042
1.2699376e-05
-0.00035656709
1.3668331e-05
-0.00035679631
1.4693705e-05
-0.00035695917
1.5777421e-05
-0.00035703236
1.6923322e-05
-0.000356988
1.8130643e-05
-0.00035679191
1.9400864e-05
-0.00035640432
2.0723092e-05
-0.00035577768
2.2089735e-05
-0.00035486027
2.3464359e-05
-0.00035359387
2.4820452e-05
-0.00035192411
2.6068879e-05
-0.00034979695
2.7159622e-05
-0.00034718341
2.7906595e-05
-0.00034406471
2.8263927e-05
-0.00034049659
2.7865209e-05
-0.0003365301
2.6789874e-05
-0.00033243747
2.4297597e-05
-0.00032832432
2.0903054e-05
-0.00032501691
1.518983e-05
8.4136327e-06
-0.00029668983
-1.2070294e-07
-0.00029679474
-4.0001349e-07
-0.00029690846
-3.5387739e-07
-0.00029702927
-4.7045875e-07
-0.00029716189
-4.7096329e-07
-0.0002973077
-5.2218293e-07
-0.0002974699
-5.2560888e-07
-0.00029765029
-5.3881207e-07
-0.00029785182
-5.2731824e-07
-0.00029807643
-5.0978737e-07
-0.00029832691
-4.7448238e-07
-0.00029860525
-4.2639161e-07
-0.00029891373
-3.615103e-07
-0.00029925394
-2.8008626e-07
-0.00029962787
-1.8072151e-07
-0.00030003709
-6.2597932e-08
-0.00030048204
7.3725952e-08
-0.00030096005
2.2686472e-07
-0.00030146813
3.9683756e-07
-0.00030200453
5.850986e-07
-0.00030257163
7.9143465e-07
-0.00030317314
1.016184e-06
-0.00030381161
1.2599696e-06
-0.00030449057
1.523424e-06
-0.00030521191
1.8053993e-06
-0.00030597561
2.1046889e-06
-0.00030678188
2.4202481e-06
-0.00030763182
2.7510075e-06
-0.00030852629
3.0953442e-06
-0.00030946586
3.4516663e-06
-0.00031045111
3.8183698e-06
-0.00031148254
4.1940927e-06
-0.00031256051
4.5774325e-06
-0.00031368519
4.9670535e-06
-0.00031485656
5.3617154e-06
-0.00031607441
5.760057e-06
-0.0003173383
6.1608405e-06
-0.00031864758
6.5626358e-06
-0.00032000135
6.9641595e-06
-0.00032139839
7.3638773e-06
-0.00032283724
7.7604077e-06
-0.00032431605
8.1520593e-06
-0.00032583264
8.5372232e-06
-0.00032738443
8.9140444e-06
-0.00032896847
9.2805562e-06
-0.00033058137
9.6346192e-06
-0.00033221936
9.9739134e-06
-0.00033387821
1.0295962e-05
-0.00033555334
1.0598102e-05
-0.00033723975
1.0877555e-05
-0.00033893212
1.1131442e-05
-0.0003406248
1.1356843e-05
-0.00034231186
1.1550857e-05
-0.00034398717
1.1710696e-05
-0.00034564446
1.1833722e-05
-0.00034727733
1.1917574e-05
-0.00034887941
1.1960228e-05
-0.00035044433
1.1960077e-05
-0.00035196588
1.1915998e-05
-0.00035343804
1.182743e-05
-0.00035485506
1.1694369e-05
-0.00035621153
1.1517448e-05
-0.00035750242
1.1297917e-05
-0.00035872319
1.1037652e-05
-0.00035986981
1.0739131e-05
-0.00036093881
1.0405399e-05
-0.00036192732
1.0040045e-05
-0.0003628331
9.6471105e-06
-0.0003636546
9.2310677e-06
-0.00036439091
8.796743e-06
-0.00036504181
8.3492464e-06
-0.00036560776
7.8939098e-06
-0.00036608989
7.4362257e-06
-0.00036648998
6.9817591e-06
-0.00036681042
6.5360997e-06
-0.00036705419
6.1047991e-06
-0.0003672248
5.6932886e-06
-0.00036732628
5.3068437e-06
-0.00036736306
4.950503e-06
-0.00036733996
4.6290267e-06
-0.00036726209
4.346825e-06
-0.00036713479
4.1079467e-06
-0.00036696357
3.9159808e-06
-0.00036675398
3.7740827e-06
-0.00036651157
3.6848574e-06
-0.00036624175
3.6504239e-06
-0.00036594971
3.6723388e-06
-0.0003656404
3.7516938e-06
-0.00036531835
3.8890078e-06
-0.00036498767
4.0843601e-06
-0.0003646519
4.3373328e-06
-0.00036431401
4.6471769e-06
-0.00036397631
5.0127496e-06
-0.00036364038
5.4326971e-06
-0.00036330707
5.9053995e-06
-0.00036297642
6.4292022e-06
-0.00036264763
7.0023089e-06
-0.00036231899
7.6230854e-06
-0.0003619879
8.2899163e-06
-0.00036165077
9.0015244e-06
-0.000361303
9.7567652e-06
-0.00036093878
1.055505e-05
-0.00036055108
1.1395893e-05
-0.00036013133
1.2279629e-05
-0.0003596693
1.3206298e-05
-0.00035915256
1.4176964e-05
-0.00035856636
1.5191226e-05
-0.0003578928
1.6249759e-05
-0.0003571109
1.7348741e-05
-0.00035619547
1.8485437e-05
-0.00035511821
1.9645832e-05
-0.00035384638
2.0817905e-05
-0.0003523465
2.1964473e-05
-0.00035058277
2.3056731e-05
-0.00034852639
2.4012495e-05
-0.00034615132
2.4784548e-05
-0.00034345565
2.5210927e-05
-0.00034044296
2.5251238e-05
-0.00033717931
2.4601562e-05
-0.00033371287
2.3323435e-05
-0.00033026806
2.0852788e-05
-0.00032693103
1.7566018e-05
-0.00032431363
1.2572435e-05
6.6808001e-06
-0.00031495245
6.1588367e-08
-0.00031515467
-1.9778644e-07
-0.00031536839
-1.4015791e-07
-0.0003155999
-2.3895111e-07
-0.0003158484
-2.2246079e-07
-0.00031611712
-2.5346101e-07
-0.00031640745
-2.3528737e-07
-0.0003167214
-2.2485713e-07
-0.00031706093
-1.8778772e-07
-0.00031742763
-1.4308665e-07
-0.00031782331
-7.8809364e-08
-0.00031824916
-5.3577037e-10
-0.00031870548
9.4809478e-08
-0.00031919098
2.054139e-07
-0.0003197047
3.3300033e-07
-0.00032024525
4.7794503e-07
-0.0003208121
6.4057991e-07
-0.00032140663
8.2139262e-07
-0.00032203026
1.0204728e-06
-0.00032268368
1.2385108e-06
-0.0003233686
1.4763559e-06
-0.00032408658
1.7341652e-06
-0.00032483764
2.011029e-06
-0.00032562091
2.306692e-06
-0.00032643603
2.6205283e-06
-0.00032728338
2.9520298e-06
-0.00032816311
3.2999847e-06
-0.00032907511
3.6630088e-06
-0.00033001942
4.0396511e-06
-0.00033099628
4.428531e-06
-0.00033200596
4.8280421e-06
-0.00033304866
5.2367963e-06
-0.00033412456
5.6533308e-06
-0.00033523368
6.0761759e-06
-0.00033637594
6.503977e-06
-0.00033755107
6.935185e-06
-0.00033875862
7.3683915e-06
-0.00033999791
7.8019233e-06
-0.00034126801
8.2342645e-06
-0.00034256771
8.6635736e-06
-0.00034389548
9.0881729e-06
-0.00034524942
9.5060059e-06
-0.00034662731
9.9151088e-06
-0.0003480265
1.0313234e-05
-0.00034944396
1.069802e-05
-0.00035087627
1.1066927e-05
-0.0003523196
1.1417241e-05
-0.00035376974
1.1746108e-05
-0.00035522215
1.2050508e-05
-0.00035667193
1.2327339e-05
-0.00035811393
1.2573439e-05
-0.00035954274
1.2785653e-05
-0.00036095278
1.2960894e-05
-0.00036233834
1.3096254e-05
-0.00036369365
1.318903e-05
-0.00036501293
1.3236863e-05
-0.0003662905
1.3237794e-05
-0.00036752077
1.3190349e-05
-0.00036869837
1.3093598e-05
-0.00036981818
1.2947236e-05
-0.00037087538
1.275157e-05
-0.00037186553
1.2507597e-05
-0.0003727846
1.2216984e-05
-0.000373629
1.1882062e-05
-0.00037439568
1.1505804e-05
-0.00037508206
1.109178e-05
-0.00037568615
1.0644133e-05
-0.00037620651
1.0167475e-05
-0.0003766423
9.6668611e-06
-0.00037699327
9.1477083e-06
-0.00037725974
8.6157142e-06
-0.00037744262
8.0767922e-06
-0.00037754339
7.5370008e-06
-0.00037756409
7.0024515e-06
-0.00037750724
6.4792512e-06
-0.00037737588
5.9734385e-06
-0.00037717348
5.4908887e-06
-0.00037690391
5.0372816e-06
-0.00037657141
4.6180024e-06
-0.0003761805
4.2381111e-06
-0.00037573593
3.9022592e-06
-0.00037524264
3.6146579e-06
-0.00037470563
3.3789711e-06
-0.00037412994
3.1983917e-06
-0.00037352056
3.0754772e-06
-0.00037288237
3.0122323e-06
-0.00037222004
3.0100122e-06
-0.00037153799
3.0696368e-06
-0.00037084024
3.1912594e-06
-0.00037013044
3.3745569e-06
-0.00036941174
3.6186396e-06
-0.00036868682
3.9222514e-06
-0.00036795774
4.2836679e-06
-0.00036722596
4.7009172e-06
-0.00036649226
5.171707e-06
-0.00036575679
5.6937289e-06
-0.00036501899
6.2645109e-06
-0.00036427763
6.8817189e-06
-0.00036353069
7.5429842e-06
-0.00036277541
8.2462405e-06
-0.00036200817
8.9895288e-06
-0.00036122445
9.771331e-06
-0.00036041873
1.0590172e-05
-0.00035958428
1.144518e-05
-0.00035871308
1.2335096e-05
-0.00035779542
1.32593e-05
-0.00035681983
1.4215639e-05
-0.00035577251
1.5202435e-05
-0.00035463748
1.6213712e-05
-0.00035339581
1.7243771e-05
-0.00035202669
1.8276715e-05
-0.00035050649
1.9297703e-05
-0.00034881202
2.0270002e-05
-0.0003469192
2.1163909e-05
-0.00034481118
2.1904474e-05
-0.00034247411
2.2447478e-05
-0.0003399167
2.2653518e-05
-0.00033715223
2.2486765e-05
-0.00033425135
2.1700688e-05
-0.0003312703
2.034238e-05
-0.00032841109
1.7993581e-05
-0.00032577128
1.4926203e-05
-0.00032378005
1.0581212e-05
5.481347e-06
-0.00032774129
3.1120765e-07
-0.00032803059
9.1508025e-08
-0.00032833171
1.6096054e-07
-0.00032865869
8.8035942e-08
-0.00032900588
1.2472949e-07
-0.00032937778
1.1843145e-07
-0.00032977378
1.6071903e-07
-0.0003301955
1.9685995e-07
-0.00033064328
2.5998985e-07
-0.00033111743
3.3106088e-07
-0.00033161802
4.2178922e-07
-0.00033214456
5.259991e-07
-0.0003326974
6.4765095e-07
-0.00033327718
7.8519034e-07
-0.00033388407
9.3989491e-07
-0.00033451784
1.111711e-06
-0.00033517857
1.3013076e-06
-0.00033586666
1.5094863e-06
-0.00033658244