/*--------------------------------*- C++ -*----------------------------------*\
| =========                 |                                                 |
| \\      /  F ield         | foam-extend: Open Source CFD                    |
|  \\    /   O peration     | Version:     4.1                                |
|   \\  /    A nd           | Web:         http://www.foam-extend.org         |
|    \\/     M anipulation  |                                                 |
\*---------------------------------------------------------------------------*/
FoamFile
{
    version     2.0;
    format      ascii;
    class       volScalarField;
    location    "2.4";
    object      rAU;
}
// * * * * * * * * * * * * * * * * * * * * * * * * * * * * * * * * * * * * * //

dimensions      [0 0 1 0 0 0 0];

internalField   nonuniform List<scalar> 
16126
(
0.00049573376
0.000495316
0.00049531818
0.00049531969
0.00049532187
0.00049532391
0.00049532634
0.00049532888
0.00049533167
0.00049533462
0.00049533774
0.00049534104
0.00049534445
0.000495348
0.00049535163
0.00049535534
0.00049535906
0.00049536281
0.0004953665
0.00049537013
0.00049537363
0.00049537698
0.0004953801
0.00049538299
0.00049538556
0.00049538779
0.00049538963
0.00049539106
0.00049539198
0.00049539206
0.00049539111
0.00049538957
0.00049538743
0.00049538466
0.00049538128
0.00049537723
0.00049537252
0.0004953671
0.00049536098
0.00049535411
0.0004953465
0.00049533809
0.0004953289
0.00049531889
0.00049530805
0.00049529637
0.00049528383
0.00049527044
0.00049525619
0.00049524109
0.00049522515
0.00049520839
0.00049519084
0.00049517255
0.00049515354
0.00049513389
0.00049511364
0.00049509288
0.00049507167
0.00049505012
0.00049502829
0.00049500629
0.00049498422
0.00049496217
0.00049494024
0.00049491853
0.00049489714
0.00049487615
0.00049485565
0.00049483573
0.00049481645
0.00049479789
0.00049478009
0.00049476311
0.00049474696
0.00049473168
0.00049471728
0.00049470373
0.00049469104
0.00049467915
0.00049466802
0.00049465759
0.00049464779
0.00049463851
0.00049462966
0.00049462112
0.00049461277
0.00049460445
0.00049459603
0.00049458734
0.00049457821
0.00049456846
0.0004945579
0.00049454633
0.00049453353
0.00049451927
0.0004945033
0.00049448537
0.00049446516
0.00049444235
0.00049441655
0.00049438729
0.000494354
0.00049431598
0.00049427231
0.00049422174
0.00049416268
0.00049409287
0.00049400942
0.00049390831
0.00049378448
0.00049363117
0.00049344042
0.00049320203
0.00049290535
0.00049253731
0.00049208695
0.00049154071
0.00049089352
0.00049013392
0.00048928037
0.00048831489
0.00048738603
0.00048591085
0.00049475988
0.00049434384
0.00049434819
0.00049435096
0.0004943554
0.00049435945
0.00049436438
0.00049436948
0.00049437507
0.000494381
0.00049438725
0.00049439384
0.00049440064
0.0004944077
0.00049441488
0.0004944222
0.00049442952
0.00049443683
0.00049444399
0.00049445097
0.00049445762
0.00049446388
0.00049446958
0.00049447466
0.00049447897
0.00049448243
0.00049448476
0.00049448586
0.00049448339
0.00049447925
0.00049447332
0.00049446598
0.00049445716
0.00049444673
0.00049443472
0.00049442102
0.00049440565
0.00049438852
0.00049436966
0.00049434898
0.00049432653
0.00049430223
0.00049427611
0.00049424815
0.00049421835
0.00049418671
0.00049415326
0.00049411802
0.00049408103
0.00049404235
0.00049400203
0.00049396017
0.00049391686
0.00049387221
0.00049382636
0.00049377945
0.00049373164
0.00049368312
0.00049363406
0.00049358466
0.00049353514
0.00049348569
0.00049343651
0.00049338783
0.00049333983
0.0004932927
0.00049324663
0.00049320177
0.00049315826
0.00049311624
0.0004930758
0.00049303702
0.00049299995
0.00049296462
0.00049293102
0.00049289912
0.00049286886
0.00049284013
0.00049281284
0.0004927868
0.00049276186
0.00049273781
0.0004927144
0.00049269138
0.00049266847
0.00049264535
0.00049262171
0.00049259718
0.00049257141
0.00049254399
0.00049251453
0.00049248258
0.00049244769
0.00049240937
0.00049236712
0.00049232038
0.00049226857
0.00049221104
0.00049214708
0.00049207593
0.0004919967
0.00049190839
0.00049180991
0.00049169993
0.00049157698
0.0004914393
0.00049128496
0.0004911116
0.00049091675
0.00049069746
0.00049045094
0.0004901739
0.00048986416
0.00048951911
0.00048913932
0.00048872482
0.00048828313
0.00048781944
0.00048735624
0.00048690398
0.00048652211
0.00048620623
0.00048615528
0.00048575118
0.00049299495
0.00049258046
0.00049258557
0.00049258823
0.00049259328
0.00049259765
0.00049260315
0.00049260873
0.00049261488
0.00049262134
0.00049262812
0.00049263521
0.00049264246
0.00049264992
0.00049265741
0.00049266496
0.00049267237
0.00049267966
0.00049268659
0.00049269316
0.00049269913
0.00049270447
0.00049270895
0.00049271247
0.0004927147
0.00049271556
0.00049271241
0.00049270633
0.00049269647
0.00049268492
0.00049267142
0.00049265592
0.00049263832
0.00049261849
0.00049259647
0.00049257214
0.00049254556
0.00049251663
0.00049248542
0.00049245183
0.00049241597
0.00049237776
0.00049233728
0.00049229452
0.00049224954
0.00049220239
0.00049215311
0.0004921018
0.00049204854
0.00049199343
0.00049193661
0.00049187822
0.00049181841
0.00049175737
0.0004916953
0.0004916324
0.00049156892
0.00049150508
0.00049144112
0.00049137732
0.00049131391
0.00049125114
0.00049118926
0.0004911285
0.00049106907
0.00049101116
0.00049095497
0.00049090062
0.00049084824
0.00049079793
0.00049074975
0.00049070371
0.00049065983
0.00049061804
0.00049057828
0.00049054043
0.00049050435
0.00049046985
0.00049043673
0.00049040473
0.0004903736
0.00049034301
0.00049031266
0.00049028219
0.00049025122
0.00049021938
0.00049018625
0.00049015142
0.00049011446
0.00049007491
0.00049003233
0.00048998626
0.00048993622
0.00048988173
0.00048982231
0.00048975745
0.00048968664
0.00048960936
0.00048952506
0.00048943317
0.0004893331
0.00048922423
0.0004891059
0.00048897743
0.00048883808
0.00048868705
0.0004885236
0.00048834685
0.00048815616
0.00048795078
0.0004877306
0.00048749549
0.00048724694
0.00048698646
0.00048671917
0.00048644972
0.00048619028
0.00048594937
0.00048575232
0.00048560758
0.00048557056
0.00048562437
0.00048592352
0.00048589631
0.00049145893
0.00049104454
0.00049104917
0.00049105051
0.00049105471
0.0004910579
0.00049106229
0.00049106656
0.00049107133
0.00049107626
0.00049108136
0.00049108662
0.00049109187
0.00049109717
0.00049110229
0.00049110728
0.00049111189
0.00049111618
0.0004911199
0.00049112304
0.00049112536
0.00049112679
0.00049112702
0.00049112607
0.00049112109
0.00049111234
0.00049109965
0.00049108402
0.00049106641
0.00049104672
0.00049102472
0.00049100043
0.00049097379
0.00049094468
0.00049091319
0.00049087919
0.0004908428
0.00049080391
0.00049076265
0.00049071892
0.00049067289
0.00049062447
0.00049057381
0.00049052092
0.0004904659
0.00049040881
0.00049034978
0.00049028891
0.00049022634
0.00049016222
0.00049009672
0.00049003003
0.00048996236
0.00048989394
0.00048982499
0.00048975577
0.00048968654
0.00048961757
0.00048954911
0.00048948145
0.00048941482
0.00048934947
0.00048928565
0.00048922355
0.00048916337
0.00048910527
0.0004890494
0.00048899584
0.00048894467
0.00048889594
0.00048884965
0.00048880576
0.00048876421
0.00048872491
0.0004886877
0.00048865244
0.00048861892
0.00048858691
0.00048855616
0.00048852639
0.00048849729
0.00048846855
0.00048843983
0.00048841077
0.00048838102
0.00048835021
0.00048831796
0.0004882839
0.00048824768
0.00048820891
0.00048816725
0.00048812234
0.00048807386
0.00048802148
0.00048796489
0.00048790381
0.00048783795
0.00048776707
0.00048769091
0.00048760926
0.00048752192
0.0004874287
0.00048732943
0.00048722397
0.0004871122
0.00048699403
0.00048686948
0.00048673857
0.00048660162
0.00048645901
0.00048631182
0.00048616125
0.00048601013
0.00048586136
0.00048572111
0.00048559485
0.00048549447
0.00048542723
0.00048541444
0.00048545849
0.00048560014
0.00048581088
0.00048618814
0.00048618979
0.0004901863
0.0004897709
0.00048977397
0.00048977297
0.00048977506
0.00048977582
0.0004897777
0.00048977923
0.00048978109
0.00048978289
0.00048978466
0.00048978637
0.00048978786
0.00048978918
0.00048979011
0.00048979073
0.0004897908
0.00048979038
0.00048978919
0.00048978726
0.00048978437
0.00048978058
0.00048977187
0.00048976034
0.00048974491
0.00048972573
0.00048970467
0.00048968162
0.00048965632
0.00048962885
0.00048959905
0.000489567
0.00048953269
0.000489496
0.00048945706
0.00048941576
0.00048937225
0.00048932643
0.00048927846
0.00048922826
0.00048917603
0.0004891217
0.00048906542
0.00048900727
0.00048894733
0.00048888573
0.00048882259
0.00048875808
0.00048869235
0.00048862559
0.000488558
0.0004884898
0.00048842123
0.00048835254
0.00048828398
0.00048821582
0.00048814833
0.00048808178
0.00048801644
0.00048795255
0.00048789037
0.0004878301
0.00048777196
0.00048771611
0.00048766272
0.00048761189
0.00048756373
0.00048751829
0.00048747558
0.0004874356
0.00048739831
0.00048736362
0.00048733144
0.00048730161
0.00048727397
0.00048724832
0.00048722444
0.00048720208
0.00048718099
0.00048716087
0.00048714143
0.00048712236
0.00048710336
0.0004870841
0.00048706427
0.00048704355
0.00048702165
0.00048699827
0.00048697313
0.00048694596
0.00048691653
0.00048688461
0.00048685001
0.00048681254
0.00048677207
0.00048672846
0.00048668163
0.00048663152
0.00048657809
0.00048652131
0.00048646122
0.00048639786
0.0004863313
0.00048626167
0.00048618913
0.00048611386
0.00048603621
0.00048595654
0.00048587552
0.00048579393
0.00048571318
0.00048563481
0.00048556174
0.00048549681
0.00048544549
0.00048541211
0.00048540607
0.00048543162
0.00048550442
0.00048562228
0.00048581454
0.00048605396
0.00048640424
0.00048636757
0.00048917946
0.00048876236
0.00048876303
0.000488759
0.00048875814
0.00048875563
0.00048875413
0.00048875203
0.0004887501
0.00048874788
0.00048874546
0.0004887428
0.00048873975
0.00048873638
0.00048873247
0.00048872811
0.00048872307
0.0004887175
0.00048871118
0.00048870276
0.00048868961
0.00048867549
0.00048865647
0.00048863447
0.00048861067
0.00048858506
0.00048855736
0.00048852769
0.0004884959
0.00048846216
0.00048842631
0.00048838848
0.00048834867
0.00048830678
0.00048826299
0.00048821717
0.00048816951
0.00048811991
0.00048806857
0.00048801539
0.00048796062
0.00048790417
0.00048784625
0.00048778692
0.00048772631
0.00048766456
0.00048760182
0.00048753826
0.00048747409
0.00048740949
0.0004873447
0.00048727997
0.00048721552
0.00048715165
0.00048708861
0.00048702666
0.00048696608
0.00048690712
0.00048685003
0.00048679506
0.0004867424
0.00048669225
0.00048664477
0.00048660011
0.00048655836
0.00048651961
0.0004864839
0.00048645123
0.00048642158
0.0004863949
0.0004863711
0.00048635005
0.00048633163
0.00048631565
0.00048630192
0.00048629021
0.00048628029
0.0004862719
0.00048626478
0.00048625865
0.00048625321
0.00048624819
0.00048624329
0.00048623824
0.00048623275
0.00048622657
0.00048621944
0.00048621114
0.00048620145
0.00048619018
0.00048617718
0.00048616231
0.00048614546
0.00048612655
0.00048610552
0.00048608237
0.00048605709
0.00048602973
0.00048600034
0.00048596901
0.00048593587
0.00048590105
0.00048586474
0.00048582714
0.00048578852
0.00048574915
0.00048570946
0.0004856699
0.00048563119
0.00048559416
0.00048556013
0.00048553056
0.00048550797
0.00048549472
0.00048549525
0.00048551275
0.00048555444
0.0004856226
0.00048572892
0.00048586933
0.00048606477
0.00048629154
0.00048658947
0.0004864909
0.00048841731
0.00048799842
0.00048799631
0.00048798912
0.00048798502
0.00048797905
0.00048797396
0.0004879681
0.00048796226
0.00048795599
0.00048794939
0.00048794241
0.00048793495
0.0004879271
0.00048791869
0.00048790985
0.00048789818
0.00048788365
0.00048786812
0.00048785035
0.00048782767
0.00048780357
0.00048777777
0.00048775032
0.000487721
0.00048768994
0.00048765702
0.00048762242
0.000487586
0.00048754795
0.00048750813
0.00048746669
0.00048742367
0.00048737896
0.00048733277
0.00048728497
0.00048723578
0.00048718508
0.00048713311
0.00048707977
0.0004870253
0.00048696966
0.00048691305
0.00048685555
0.00048679731
0.00048673848
0.00048667923
0.00048661977
0.00048656029
0.00048650102
0.00048644219
0.00048638407
0.00048632689
0.00048627094
0.00048621647
0.00048616374
0.000486113
0.00048606451
0.00048601847
0.00048597511
0.00048593459
0.00048589707
0.00048586268
0.00048583151
0.00048580362
0.00048577903
0.00048575775
0.00048573975
0.00048572494
0.00048571323
0.00048570449
0.00048569857
0.0004856953
0.00048569446
0.00048569584
0.00048569918
0.00048570425
0.00048571077
0.00048571847
0.00048572708
0.0004857363
0.00048574588
0.00048575553
0.00048576499
0.00048577402
0.00048578239
0.00048578989
0.00048579632
0.00048580152
0.00048580534
0.0004858077
0.00048580848
0.00048580764
0.00048580515
0.00048580101
0.00048579525
0.00048578792
0.00048577909
0.00048576887
0.00048575736
0.00048574472
0.0004857311
0.00048571668
0.00048570169
0.00048568637
0.000485671
0.00048565596
0.00048564169
0.00048562883
0.00048561811
0.00048561071
0.00048560784
0.00048561163
0.00048562395
0.00048564836
0.00048568718
0.00048574609
0.00048582638
0.00048593717
0.00048607462
0.00048625442
0.00048645846
0.00048671119
0.0004865648
0.00048786353
0.00048744511
0.00048744031
0.00048743031
0.00048742321
0.00048741413
0.00048740581
0.00048739662
0.00048738738
0.00048737762
0.0004873675
0.00048735697
0.00048734309
0.00048732837
0.0004873127
0.0004872963
0.0004872768
0.00048725411
0.00048722993
0.00048720438
0.00048717724
0.00048714862
0.00048711833
0.00048708656
0.00048705317
0.00048701836
0.000486982
0.00048694429
0.00048690509
0.00048686465
0.0004868228
0.00048677974
0.00048673548
0.00048668995
0.00048664336
0.00048659558
0.00048654684
0.00048649702
0.00048644639
0.00048639483
0.00048634262
0.0004862897
0.0004862363
0.00048618251
0.0004861285
0.00048607442
0.00048602047
0.00048596685
0.00048591377
0.00048586147
0.00048581019
0.00048576017
0.00048571168
0.00048566498
0.00048562031
0.00048557791
0.00048553803
0.00048550088
0.00048546664
0.0004854355
0.0004854076
0.00048538304
0.00048536192
0.00048534428
0.00048533015
0.0004853195
0.00048531229
0.00048530844
0.00048530784
0.00048531035
0.00048531581
0.00048532402
0.00048533479
0.00048534788
0.00048536304
0.00048538002
0.00048539855
0.00048541835
0.00048543915
0.00048546065
0.0004854826
0.00048550471
0.00048552672
0.0004855484
0.0004855695
0.00048558982
0.00048560917
0.00048562738
0.00048564431
0.00048565985
0.00048567393
0.00048568648
0.00048569746
0.00048570689
0.00048571478
0.00048572118
0.00048572615
0.0004857298
0.00048573222
0.00048573354
0.0004857339
0.00048573346
0.0004857324
0.00048573091
0.00048572923
0.00048572763
0.00048572646
0.00048572612
0.00048572721
0.00048573039
0.0004857367
0.00048574722
0.00048576379
0.00048578799
0.00048582283
0.00048587017
0.00048593464
0.00048601708
0.00048612457
0.00048625357
0.00048641509
0.00048659484
0.00048680684
0.00048661737
0.00048747208
0.00048705956
0.00048705037
0.00048704049
0.0004870299
0.00048701865
0.00048700658
0.00048699382
0.00048698018
0.00048696582
0.00048695058
0.00048693463
0.00048691494
0.00048689403
0.00048687168
0.00048684808
0.00048682304
0.00048679671
0.00048676889
0.00048673977
0.00048670916
0.00048667729
0.00048664402
0.00048660956
0.00048657376
0.00048653684
0.00048649868
0.00048645951
0.0004864192
0.00048637798
0.00048633571
0.00048629257
0.0004862486
0.00048620371
0.00048615814
0.00048611174
0.00048606476
0.00048601709
0.00048596899
0.00048592035
0.00048587147
0.00048582229
0.00048577305
0.00048572386
0.00048567487
0.00048562627
0.00048557825
0.00048553103
0.0004854848
0.00048543982
0.00048539632
0.00048535454
0.00048531472
0.00048527713
0.00048524198
0.0004852095
0.0004851799
0.00048515336
0.00048513005
0.00048511012
0.00048509365
0.00048508074
0.00048507143
0.00048506572
0.00048506361
0.00048506503
0.00048506991
0.00048507812
0.00048508954
0.00048510397
0.00048512125
0.00048514114
0.00048516343
0.00048518786
0.00048521416
0.00048524207
0.00048527131
0.00048530158
0.00048533262
0.00048536413
0.00048539585
0.00048542749
0.00048545881
0.00048548957
0.00048551954
0.00048554852
0.00048557635
0.00048560285
0.00048562792
0.00048565145
0.00048567338
0.00048569366
0.00048571229
0.00048572926
0.00048574461
0.00048575841
0.00048577072
0.00048578164
0.00048579128
0.00048579975
0.00048580721
0.00048581379
0.00048581968
0.00048582506
0.00048583016
0.00048583523
0.00048584063
0.00048584673
0.00048585411
0.00048586341
0.00048587559
0.00048589164
0.00048591321
0.00048594169
0.00048597967
0.00048602871
0.00048609263
0.00048617207
0.00048627257
0.0004863912
0.00048653563
0.00048669489
0.00048687607
0.00048665376
0.00048720392
0.00048679457
0.00048678126
0.00048677145
0.00048675762
0.00048674441
0.00048672891
0.00048671291
0.00048669522
0.00048667658
0.00048665646
0.00048663523
0.00048661259
0.00048658875
0.00048656352
0.00048653708
0.00048650927
0.00048648029
0.00048644999
0.00048641861
0.00048638599
0.00048635234
0.00048631752
0.00048628178
0.00048624497
0.00048620734
0.00048616876
0.00048612945
0.00048608928
0.00048604849
0.00048600693
0.00048596478
0.00048592211
0.00048587879
0.00048583507
0.00048579083
0.0004857463
0.00048570137
0.00048565632
0.00048561104
0.00048556584
0.00048552065
0.00048547574
0.00048543121
0.00048538722
0.00048534397
0.00048530163
0.00048526044
0.0004852206
0.00048518233
0.00048514588
0.00048511147
0.00048507934
0.00048504972
0.00048502281
0.00048499883
0.00048497795
0.00048496033
0.00048494611
0.00048493542
0.0004849283
0.00048492483
0.000484925
0.00048492881
0.00048493621
0.00048494711
0.00048496142
0.00048497898
0.00048499963
0.00048502319
0.00048504944
0.00048507814
0.00048510907
0.00048514194
0.0004851765
0.00048521245
0.0004852495
0.00048528738
0.00048532579
0.00048536444
0.00048540306
0.00048544137
0.00048547913
0.00048551609
0.00048555203
0.00048558677
0.00048562013
0.00048565196
0.00048568214
0.00048571059
0.00048573726
0.00048576209
0.00048578509
0.00048580627
0.00048582568
0.00048584339
0.00048585946
0.00048587403
0.00048588719
0.00048589906
0.00048590982
0.0004859196
0.00048592859
0.00048593701
0.00048594508
0.00048595309
0.00048596139
0.00048597037
0.00048598062
0.00048599276
0.00048600772
0.00048602643
0.00048605037
0.00048608081
0.00048611995
0.00048616913
0.00048623144
0.00048630725
0.0004864007
0.00048650915
0.00048663757
0.00048677737
0.00048693163
0.00048668141
0.00048702822
0.00048661621
0.00048660124
0.00048658909
0.00048657325
0.0004865578
0.00048654015
0.00048652193
0.00048650205
0.00048648122
0.00048645893
0.00048643556
0.00048641082
0.00048638498
0.00048635785
0.00048632967
0.00048630028
0.00048626991
0.0004862384
0.00048620599
0.00048617254
0.0004861383
0.00048610313
0.00048606726
0.00048603057
0.00048599327
0.00048595524
0.00048591671
0.00048587753
0.00048583794
0.00048579779
0.00048575726
0.00048571639
0.00048567509
0.00048563359
0.00048559176
0.00048554986
0.00048550776
0.00048546574
0.00048542372
0.00048538199
0.0004853405
0.00048529952
0.00048525914
0.00048521954
0.00048518091
0.00048514344
0.00048510734
0.00048507281
0.00048504009
0.00048500939
0.00048498093
0.00048495493
0.00048493162
0.00048491117
0.00048489379
0.00048487962
0.00048486882
0.00048486149
0.00048485774
0.00048485761
0.00048486113
0.0004848683
0.00048487908
0.00048489342
0.0004849112
0.00048493232
0.0004849566
0.00048498389
0.00048501396
0.00048504661
0.00048508159
0.00048511865
0.00048515751
0.0004851979
0.00048523952
0.00048528207
0.00048532527
0.00048536883
0.00048541243
0.00048545581
0.00048549868
0.0004855408
0.00048558192
0.00048562181
0.00048565719
0.0004856922
0.00048572774
0.00048576365
0.00048579689
0.00048582626
0.00048585361
0.00048587896
0.00048590232
0.00048592375
0.00048594332
0.00048596111
0.00048597725
0.00048599187
0.00048600509
0.00048601709
0.00048602804
0.00048603813
0.0004860476
0.0004860567
0.00048606571
0.00048607502
0.00048608505
0.00048609635
0.00048610956
0.00048612554
0.0004861452
0.00048616984
0.00048620062
0.0004862394
0.00048628731
0.00048634683
0.00048641821
0.0004865045
0.00048660348
0.00048671821
0.00048684199
0.00048697526
0.00048670279
0.00048691568
0.00048650133
0.00048648526
0.0004864713
0.00048645406
0.00048643699
0.00048641786
0.00048639811
0.00048637678
0.00048635453
0.00048633091
0.00048630629
0.00048628042
0.00048625356
0.00048622554
0.00048619662
0.00048616663
0.00048613582
0.00048610406
0.0004860716
0.00048603828
0.00048600436
0.00048596968
0.00048593449
0.00048589863
0.00048586234
0.00048582548
0.00048578826
0.00048575054
0.00048571254
0.0004856741
0.0004856354
0.00048559649
0.00048555726
0.00048551796
0.00048547843
0.00048543896
0.0004853994
0.00048536007
0.00048532084
0.00048528204
0.00048524362
0.00048520583
0.00048516879
0.00048513267
0.00048509766
0.00048506394
0.00048503172
0.00048500121
0.00048497263
0.00048494618
0.00048492209
0.00048490055
0.00048488179
0.00048486597
0.00048485327
0.00048484384
0.00048483782
0.0004848353
0.00048483637
0.00048484108
0.00048484943
0.00048486142
0.00048487701
0.00048489612
0.00048491864
0.00048494445
0.00048497339
0.00048500528
0.0004850399
0.00048507702
0.00048511641
0.0004851578
0.00048520091
0.00048524545
0.00048529113
0.00048533765
0.00048538469
0.00048543197
0.00048547916
0.000485526
0.00048556502
0.00048559861
0.00048563324
0.00048566876
0.00048570194
0.00048573695
0.00048577467
0.00048581494
0.00048585465
0.00048589254
0.0004859304
0.00048596814
0.00048600012
0.00048602246
0.00048604279
0.00048606124
0.00048607793
0.00048609298
0.00048610658
0.00048611889
0.00048613012
0.00048614047
0.00048615022
0.00048615962
0.000486169
0.00048617874
0.00048618928
0.00048620117
0.00048621504
0.00048623169
0.00048625196
0.00048627702
0.00048630787
0.00048634607
0.00048639254
0.0004864492
0.00048651614
0.0004865955
0.0004866853
0.00048678724
0.0004868961
0.00048701103
0.00048671984
0.00048684441
0.00048642812
0.00048641145
0.00048639617
0.0004863781
0.00048636001
0.00048634003
0.00048631943
0.00048629734
0.0004862744
0.00048625018
0.00048622507
0.0004861988
0.00048617169
0.00048614355
0.00048611464
0.00048608483
0.00048605435
0.00048602306
0.00048599121
0.00048595865
0.00048592562
0.00048589197
0.00048585793
0.00048582333
0.00048578841
0.00048575299
0.00048571732
0.0004856812
0.00048564487
0.00048560816
0.00048557125
0.00048553417
0.00048549682
0.00048545944
0.00048542188
0.00048538443
0.00048534694
0.00048530972
0.00048527267
0.0004852361
0.00048519996
0.00048516453
0.0004851299
0.00048509626
0.00048506379
0.00048503268
0.00048500313
0.00048497535
0.00048494955
0.00048492594
0.00048490474
0.00048488613
0.00048487034
0.00048485752
0.00048484786
0.0004848415
0.00048483856
0.00048483914
0.00048484334
0.00048485118
0.00048486269
0.00048487785
0.00048489662
0.00048491892
0.00048494465
0.00048497369
0.00048500586
0.00048504098
0.00048507884
0.00048511921
0.00048516182
0.00048520643
0.00048525274
0.00048530046
0.00048534926
0.00048539886
0.00048544891
0.00048549913
0.00048553925
0.00048557162
0.00048559818
0.00048562145
0.00048564804
0.00048567785
0.00048571079
0.00048574671
0.00048578548
0.00048582689
0.00048587076
0.0004859169
0.00048596507
0.00048601507
0.00048606113
0.00048609923
0.00048613692
0.00048615567
0.00048617245
0.00048618752
0.00048620107
0.00048621329
0.0004862244
0.00048623463
0.00048624427
0.0004862536
0.00048626295
0.00048627272
0.00048628335
0.00048629538
0.00048630941
0.00048632619
0.00048634648
0.00048637132
0.00048640157
0.00048643856
0.000486483
0.00048653641
0.00048659879
0.00048667159
0.00048675313
0.00048684417
0.00048694056
0.00048704062
0.00048673392
0.00048679924
0.00048638144
0.00048636456
0.00048634842
0.00048632998
0.00048631134
0.00048629102
0.00048627007
0.00048624777
0.00048622468
0.00048620043
0.00048617538
0.00048614931
0.0004861225
0.00048609478
0.00048606642
0.00048603727
0.00048600758
0.00048597719
0.00048594635
0.00048591491
0.00048588308
0.00048585072
0.00048581803
0.00048578485
0.0004857514
0.00048571749
0.00048568334
0.00048564877
0.000485614
0.00048557885
0.0004855435
0.00048550797
0.00048547216
0.00048543631
0.00048540029
0.00048536435
0.00048532839
0.00048529268
0.00048525714
0.00048522209
0.00048518748
0.00048515358
0.0004851205
0.00048508841
0.00048505751
0.00048502798
0.00048500005
0.00048497389
0.00048494973
0.00048492778
0.00048490825
0.00048489135
0.00048487728
0.00048486621
0.00048485832
0.00048485376
0.00048485266
0.00048485512
0.00048486123
0.00048487104
0.00048488456
0.00048490179
0.00048492269
0.00048494719
0.00048497518
0.00048500654
0.0004850411
0.00048507867
0.00048511904
0.00048516197
0.0004852072
0.00048525446
0.00048530345
0.00048535385
0.00048540535
0.00048545763
0.00048551033
0.00048554062
0.00048556248
0.00048557864
0.00048559839
0.00048562171
0.00048564854
0.0004856788
0.00048571236
0.00048574908
0.00048578877
0.00048583123
0.00048587625
0.00048592359
0.00048597302
0.0004860243
0.00048607718
0.00048613145
0.00048618688
0.0004862248
0.00048626021
0.00048627511
0.00048628845
0.00048630043
0.00048631129
0.00048632129
0.00048633072
0.00048633989
0.00048634913
0.00048635887
0.00048636952
0.00048638161
0.00048639571
0.00048641251
0.00048643271
0.00048645719
0.0004864867
0.00048652231
0.0004865646
0.00048661469
0.00048667248
0.0004867389
0.00048681249
0.00048689338
0.00048697831
0.00048706536
0.00048674554
0.00048676997
0.0004863511
0.00048633428
0.00048631766
0.00048629919
0.00048628036
0.00048626008
0.00048623917
0.00048621704
0.0004861942
0.00048617029
0.00048614569
0.00048612016
0.000486094
0.00048606704
0.00048603953
0.00048601133
0.00048598268
0.00048595341
0.00048592377
0.00048589358
0.00048586307
0.00048583206
0.00048580075
0.00048576897
0.00048573692
0.00048570442
0.00048567165
0.00048563845
0.00048560501
0.00048557116
0.00048553706
0.00048550274
0.0004854681
0.00048543338
0.00048539843
0.00048536352
0.00048532855
0.0004852938
0.00048525918
0.00048522502
0.00048519126
0.00048515819
0.00048512592
0.00048509463
0.00048506451
0.00048503575
0.00048500857
0.00048498317
0.00048495977
0.00048493858
0.00048491983
0.00048490372
0.00048489047
0.00048488026
0.00048487326
0.00048486964
0.00048486954
0.00048487307
0.00048488032
0.00048489136
0.0004849062
0.00048492486
0.00048494729
0.00048497342
0.00048500316
0.00048503639
0.00048507293
0.00048511259
0.00048515515
0.00048520038
0.00048524799
0.0004852977
0.00048534921
0.00048540218
0.00048545628
0.00048550691
0.00048553581
0.00048554413
0.000485556
0.00048557168
0.0004855912
0.00048561451
0.00048564156
0.00048567224
0.00048570642
0.00048574393
0.00048578458
0.00048582813
0.00048587434
0.00048592298
0.00048597375
0.00048602641
0.00048608068
0.0004861363
0.00048619303
0.00048625065
0.00048630714
0.0004863442
0.00048637001
0.00048638164
0.00048639213
0.00048640177
0.00048641084
0.00048641968
0.00048642863
0.0004864381
0.00048644852
0.00048646037
0.00048647422
0.00048649067
0.00048651035
0.00048653405
0.00048656239
0.00048659625
0.0004866361
0.00048668275
0.00048673607
0.0004867966
0.00048686308
0.00048693522
0.00048701039
0.00048708653
0.00048675551
0.00048675016
0.00048633058
0.00048631403
0.00048629718
0.00048627891
0.00048626016
0.00048624016
0.00048621953
0.00048619782
0.00048617544
0.00048615212
0.00048612818
0.0004861034
0.00048607808
0.00048605204
0.00048602552
0.00048599839
0.00048597086
0.00048594277
0.00048591435
0.00048588542
0.00048585618
0.00048582646
0.00048579644
0.00048576593
0.00048573513
0.00048570384
0.00048567225
0.00048564017
0.0004856078
0.00048557495
0.0004855418
0.00048550836
0.00048547452
0.00048544054
0.00048540626
0.00048537196
0.00048533753
0.00048530327
0.00048526908
0.00048523529
0.00048520186
0.00048516907
0.00048513705
0.00048510596
0.00048507602
0.00048504742
0.00048502038
0.00048499512
0.00048497185
0.0004849508
0.00048493221
0.00048491628
0.00048490325
0.0004848933
0.00048488664
0.00048488342
0.00048488381
0.00048488793
0.00048489589
0.00048490774
0.00048492354
0.00048494329
0.00048496696
0.00048499448
0.00048502577
0.00048506069
0.00048509908
0.00048514073
0.00048518543
0.00048523291
0.0004852829
0.00048533509
0.00048538916
0.00048544476
0.00048549791
0.00048552106
0.00048552422
0.00048553132
0.00048554242
0.00048555759
0.00048557684
0.00048560013
0.00048562741
0.00048565855
0.00048569341
0.00048573179
0.00048577349
0.00048581823
0.00048586577
0.0004859158
0.00048596805
0.00048602219
0.00048607796
0.00048613506
0.00048619323
0.0004862522
0.00048631177
0.00048637172
0.00048642128
0.00048645732
0.00048646798
0.00048647717
0.00048648583
0.00048649427
0.00048650285
0.00048651198
0.00048652207
0.0004865336
0.00048654706
0.00048656303
0.00048658206
0.00048660482
0.00048663183
0.00048666381
0.0004867011
0.00048674428
0.00048679316
0.000486848
0.00048690769
0.00048697173
0.00048703801
0.00048710455
0.00048676395
0.00048673579
0.00048631582
0.00048629963
0.00048628276
0.00048626484
0.00048624633
0.00048622675
0.00048620656
0.0004861854
0.00048616363
0.000486141
0.00048611781
0.00048609388
0.00048606945
0.00048604437
0.00048601888
0.00048599281
0.00048596639
0.00048593944
0.00048591218
0.00048588442
0.00048585634
0.00048582777
0.00048579888
0.00048576948
0.00048573973
0.00048570944
0.0004856788
0.0004856476
0.00048561604
0.00048558393
0.00048555143
0.00048551857
0.00048548523
0.00048545166
0.00048541772
0.00048538369
0.00048534945
0.0004853153
0.00048528116
0.00048524736
0.00048521386
0.00048518095
0.00048514875
0.00048511746
0.00048508727
0.00048505839
0.00048503107
0.0004850055
0.00048498194
0.00048496061
0.00048494176
0.00048492561
0.00048491242
0.00048490237
0.00048489569
0.00048489256
0.00048489315
0.00048489759
0.00048490602
0.00048491849
0.00048493508
0.00048495578
0.00048498059
0.00048500943
0.00048504222
0.00048507883
0.00048511908
0.00048516278
0.00048520967
0.00048525951
0.00048531198
0.00048536678
0.00048542355
0.00048548194
0.00048550635
0.00048550414
0.00048550597
0.00048551201
0.00048552231
0.00048553696
0.00048555596
0.00048557928
0.00048560684
0.00048563852
0.00048567414
0.0004857135
0.00048575636
0.00048580243
0.00048585142
0.00048590301
0.00048595688
0.00048601268
0.00048607011
0.00048612883
0.00048618857
0.00048624903
0.00048630998
0.00048637118
0.00048643243
0.00048649355
0.00048652968
0.00048654838
0.00048655646
0.00048656433
0.00048657236
0.00048658093
0.00048659046
0.00048660139
0.0004866142
0.00048662939
0.00048664746
0.00048666898