/*--------------------------------*- C++ -*----------------------------------*\
| =========                 |                                                 |
| \\      /  F ield         | foam-extend: Open Source CFD                    |
|  \\    /   O peration     | Version:     4.1                                |
|   \\  /    A nd           | Web:         http://www.foam-extend.org         |
|    \\/     M anipulation  |                                                 |
\*---------------------------------------------------------------------------*/
FoamFile
{
    version     2.0;
    format      ascii;
    class       volVectorField;
    location    "2.4";
    object      U;
}
// * * * * * * * * * * * * * * * * * * * * * * * * * * * * * * * * * * * * * //

dimensions      [0 1 -1 0 0 0 0];

internalField   nonuniform List<vector> 
16126
(
(0.096066464 4.6204226e-05 0)
(0.095728733 4.3921451e-05 0)
(0.095636579 1.2640215e-05 0)
(0.095425137 3.0589381e-05 0)
(0.09521519 1.9732571e-05 0)
(0.095014866 2.9316904e-05 0)
(0.094741452 2.7518902e-05 0)
(0.094507378 3.1942563e-05 0)
(0.094197494 3.3394617e-05 0)
(0.093920368 3.5833937e-05 0)
(0.093584384 3.8065666e-05 0)
(0.09326863 3.96303e-05 0)
(0.092912431 4.1409461e-05 0)
(0.092567664 4.2025412e-05 0)
(0.09219811 4.2695012e-05 0)
(0.091836482 4.248478e-05 0)
(0.091463015 4.2493758e-05 0)
(0.09109861 4.2339413e-05 0)
(0.090734166 4.244616e-05 0)
(0.090383691 4.1997898e-05 0)
(0.090043788 4.0265166e-05 0)
(0.089724779 3.677797e-05 0)
(0.089426251 3.3690291e-05 0)
(0.089156364 3.2734005e-05 0)
(0.088918653 3.3186734e-05 0)
(0.08871809 2.7924184e-05 0)
(0.088556253 1.7718256e-05 0)
(0.08843812 1.9765378e-05 0)
(0.088373185 2.8428693e-05 0)
(0.088368041 2.4421013e-05 0)
(0.088430717 1.6077402e-05 0)
(0.088553961 1.1173644e-05 0)
(0.088736143 7.2630218e-06 0)
(0.088977919 3.8385712e-06 0)
(0.089280725 2.7231531e-07 0)
(0.089646843 -3.5325534e-06 0)
(0.090078258 -7.6398096e-06 0)
(0.090577219 -1.2073387e-05 0)
(0.091145744 -1.6862482e-05 0)
(0.091785963 -2.2045973e-05 0)
(0.092499891 -2.7658859e-05 0)
(0.093289554 -3.3734735e-05 0)
(0.094156879 -4.0300498e-05 0)
(0.095103711 -4.7369354e-05 0)
(0.096131709 -5.4944311e-05 0)
(0.097242326 -6.3012296e-05 0)
(0.098436697 -7.1545478e-05 0)
(0.099715588 -8.049965e-05 0)
(0.10107928 -8.9814877e-05 0)
(0.1025275 -9.9417859e-05 0)
(0.10405935 -0.00010922227 0)
(0.10567319 -0.00011913202 0)
(0.10736662 -0.00012904439 0)
(0.10913641 -0.00013885194 0)
(0.11097847 -0.00014844579 0)
(0.11288787 -0.00015771919 0)
(0.11485881 -0.00016656832 0)
(0.1168847 -0.00017489438 0)
(0.11895818 -0.00018260538 0)
(0.12107124 -0.00018961498 0)
(0.12321527 -0.00019584303 0)
(0.1253812 -0.00020121618 0)
(0.1275596 -0.00020566582 0)
(0.1297408 -0.0002091287 0)
(0.13191504 -0.00021154615 0)
(0.13407258 -0.00021286563 0)
(0.13620385 -0.00021304006 0)
(0.13829958 -0.0002120298 0)
(0.14035089 -0.00020980539 0)
(0.1423495 -0.00020634834 0)
(0.14428775 -0.00020165363 0)
(0.1461588 -0.0001957328 0)
(0.14795669 -0.00018861397 0)
(0.14967648 -0.00018034429 0)
(0.15131431 -0.00017099053 0)
(0.15286753 -0.00016063892 0)
(0.15433474 -0.00014939339 0)
(0.15571586 -0.00013737593 0)
(0.15701218 -0.00012472144 0)
(0.1582264 -0.00011157667 0)
(0.15936262 -9.8095875e-05 0)
(0.16042639 -8.4437036e-05 0)
(0.16142461 -7.0756221e-05 0)
(0.16236561 -5.7212031e-05 0)
(0.16325899 -4.3952542e-05 0)
(0.16411565 -3.1118353e-05 0)
(0.16494771 -1.8826052e-05 0)
(0.1657684 -7.173105e-06 0)
(0.16659209 3.782212e-06 0)
(0.16743414 1.4007788e-05 0)
(0.16831098 2.3528654e-05 0)
(0.16923995 3.2407975e-05 0)
(0.1702395 4.0791676e-05 0)
(0.17132896 4.8869763e-05 0)
(0.17252912 5.6949823e-05 0)
(0.17386158 6.5371356e-05 0)
(0.17535025 7.4638832e-05 0)
(0.1770199 8.5236192e-05 0)
(0.17889929 9.7857811e-05 0)
(0.18101819 0.00011295896 0)
(0.18341403 0.0001311589 0)
(0.18612555 0.00015218589 0)
(0.18920696 0.0001756139 0)
(0.19271442 0.00019844282 0)
(0.19673622 0.0002166145 0)
(0.20136327 0.00021969342 0)
(0.20675324 0.00019446091 0)
(0.21306406 0.00011380983 0)
(0.22058918 -5.3859018e-05 0)
(0.22960352 -0.00036688509 0)
(0.24064728 -0.00088534424 0)
(0.25416321 -0.0017151171 0)
(0.27109593 -0.0029445 0)
(0.29203705 -0.0047348001 0)
(0.31852455 -0.0071709831 0)
(0.35103993 -0.010462479 0)
(0.39195746 -0.014606437 0)
(0.44081908 -0.019867735 0)
(0.50145066 -0.025965794 0)
(0.57021793 -0.033377903 0)
(0.65493664 -0.040697536 0)
(0.74103391 -0.049850436 0)
(0.85367404 -0.051315772 0)
(0.92415301 -0.062802702 0)
(0.28493749 0.00018122062 0)
(0.28449523 0.00024472286 0)
(0.28420952 0.00018560129 0)
(0.28380872 0.00025719202 0)
(0.28336684 0.00024821129 0)
(0.28291797 0.0002932988 0)
(0.28237879 0.00030665088 0)
(0.2818531 0.00033604206 0)
(0.28124278 0.000355615 0)
(0.28064124 0.00037687477 0)
(0.27997479 0.0003955534 0)
(0.27931073 0.00041134274 0)
(0.27860276 0.00042603733 0)
(0.27789621 0.0004366246 0)
(0.27716598 0.00044556838 0)
(0.27644261 0.00044971458 0)
(0.27571517 0.00045063528 0)
(0.27500536 0.00044547576 0)
(0.27431129 0.00043550486 0)
(0.27364981 0.00041994386 0)
(0.27302513 0.00040037151 0)
(0.27245429 0.00037653528 0)
(0.27194556 0.00034667174 0)
(0.2715119 0.0003069645 0)
(0.2711607 0.00025991896 0)
(0.27090795 0.00021480718 0)
(0.27077993 0.00017033945 0)
(0.27079081 0.00010302852 0)
(0.2709629 1.832016e-05 0)
(0.27128034 -6.2800402e-05 0)
(0.27173073 -0.0001402679 0)
(0.27232405 -0.00021528583 0)
(0.27306409 -0.00029065311 0)
(0.27395639 -0.00036789715 0)
(0.27500486 -0.00044750205 0)
(0.27621386 -0.00052970661 0)
(0.27758702 -0.00061445301 0)
(0.27912795 -0.00070171802 0)
(0.28083967 -0.00079141071 0)
(0.28272501 -0.00088347499 0)
(0.28478629 -0.00097781915 0)
(0.28702554 -0.0010743416 0)
(0.28944427 -0.0011729008 0)
(0.2920436 -0.0012732989 0)
(0.29482404 -0.0013752762 0)
(0.29778552 -0.0014784914 0)
(0.30092718 -0.0015825147 0)
(0.30424732 -0.0016868183 0)
(0.30774322 -0.001790773 0)
(0.31141103 -0.0018936523 0)
(0.31524561 -0.0019946346 0)
(0.31924042 -0.0020928166 0)
(0.3233874 -0.0021872298 0)
(0.32767692 -0.0022768584 0)
(0.33209769 -0.0023606643 0)
(0.33663683 -0.0024376145 0)
(0.34127985 -0.0025067059 0)
(0.34601081 -0.0025669935 0)
(0.35081243 -0.0026176176 0)
(0.35566628 -0.0026578245 0)
(0.36055304 -0.0026869882 0)
(0.36545277 -0.002704628 0)
(0.37034515 -0.0027104189 0)
(0.37520988 -0.0027042014 0)
(0.3800269 -0.002685985 0)
(0.38477678 -0.0026559521 0)
(0.38944103 -0.0026144532 0)
(0.39400236 -0.0025620056 0)
(0.39844499 -0.0024992887 0)
(0.40275489 -0.0024271359 0)
(0.40692005 -0.0023465264 0)
(0.41093066 -0.0022585785 0)
(0.4147793 -0.0021645356 0)
(0.41846111 -0.0020657578 0)
(0.42197391 -0.001963707 0)
(0.42531829 -0.0018599352 0)
(0.4284977 -0.0017560637 0)
(0.43151849 -0.0016537754 0)
(0.43438993 -0.0015547847 0)
(0.43712421 -0.0014608343 0)
(0.43973635 -0.0013736617 0)
(0.44224423 -0.0012949988 0)
(0.44466843 -0.0012265354 0)
(0.4470322 -0.0011699234 0)
(0.44936128 -0.0011267416 0)
(0.45168387 -0.0010985188 0)
(0.45403047 -0.0010867065 0)
(0.45643377 -0.0010927215 0)
(0.45892863 -0.001117917 0)
(0.46155197 -0.0011636502 0)
(0.46434281 -0.0012312593 0)
(0.46734225 -0.0013221732 0)
(0.47059375 -0.0014378826 0)
(0.47414302 -0.0015801056 0)
(0.47803874 -0.00175074 0)
(0.48233239 -0.0019521442 0)
(0.48707959 -0.0021870402 0)
(0.49233959 -0.0024590309 0)
(0.4981778 -0.0027723915 0)
(0.50466439 -0.0031330546 0)
(0.51187893 -0.0035481274 0)
(0.51990682 -0.0040278679 0)
(0.528848 -0.0045845358 0)
(0.53880812 -0.0052363735 0)
(0.54991538 -0.0060047732 0)
(0.56229955 -0.0069222162 0)
(0.5761254 -0.0080251302 0)
(0.59154453 -0.0093694321 0)
(0.60876367 -0.011012567 0)
(0.62793667 -0.013043723 0)
(0.64930911 -0.015539852 0)
(0.67297874 -0.018625848 0)
(0.69921356 -0.02237163 0)
(0.72791899 -0.026919985 0)
(0.75936388 -0.032255726 0)
(0.79296882 -0.038501385 0)
(0.8290339 -0.045398529 0)
(0.86585296 -0.053052221 0)
(0.90406282 -0.060638603 0)
(0.93928405 -0.068548909 0)
(0.97386443 -0.074224818 0)
(0.99688624 -0.080413489 0)
(1.0165992 -0.074771011 0)
(1.0120315 -0.080168095 0)
(0.45976114 0.0003428599 0)
(0.45931375 0.00052958098 0)
(0.45892935 0.0004640951 0)
(0.45846901 0.00059725454 0)
(0.45793094 0.00060542865 0)
(0.45739257 0.000692206 0)
(0.45676219 0.00073029939 0)
(0.45613911 0.000791498 0)
(0.45544188 0.0008356133 0)
(0.45474813 0.00088159932 0)
(0.45400377 0.00092051861 0)
(0.45326249 0.00095348923 0)
(0.4524938 0.0009805815 0)
(0.45173419 0.00099815311 0)
(0.45096983 0.0010082471 0)
(0.45022679 0.0010073471 0)
(0.44950247 0.00099732478 0)
(0.44881824 0.00097571425 0)
(0.44818023 0.00094323602 0)
(0.44760745 0.00089714236 0)
(0.44710966 0.00083476696 0)
(0.44670324 0.0007540461 0)
(0.44640043 0.00065935756 0)
(0.44622521 0.00055418503 0)
(0.44620467 0.00043493661 0)
(0.44635775 0.00028051094 0)
(0.44670096 9.3009001e-05 0)
(0.44723464 -0.00010346888 0)
(0.44791953 -0.00029736684 0)
(0.44877886 -0.0004869697 0)
(0.44982251 -0.0006787315 0)
(0.45106259 -0.00087627314 0)
(0.45250659 -0.0010790283 0)
(0.45416052 -0.0012875714 0)
(0.45602901 -0.0015017779 0)
(0.45811615 -0.0017215185 0)
(0.46042513 -0.00194638 0)
(0.46295861 -0.0021759661 0)
(0.46571844 -0.0024098009 0)
(0.4687059 -0.0026474405 0)
(0.47192147 -0.0028883966 0)
(0.47536503 -0.0031321615 0)
(0.47903565 -0.0033781622 0)
(0.48293174 -0.0036257326 0)
(0.48705083 -0.0038740923 0)
(0.4913896 -0.0041223115 0)
(0.49594372 -0.0043692909 0)
(0.50070773 -0.0046137419 0)
(0.50567497 -0.0048541767 0)
(0.51083736 -0.005088911 0)
(0.51618536 -0.0053160723 0)
(0.52170779 -0.0055336251 0)
(0.52739179 -0.0057394068 0)
(0.53322275 -0.005931172 0)
(0.53918432 -0.0061066487 0)
(0.54525844 -0.0062636026 0)
(0.55142547 -0.0063999001 0)
(0.55766434 -0.0065135768 0)
(0.56395275 -0.0066029016 0)
(0.57026749 -0.006666433 0)
(0.5765847 -0.0067030692 0)
(0.58288024 -0.0067120896 0)
(0.58913007 -0.0066931799 0)
(0.59531062 -0.0066464508 0)
(0.60139917 -0.006572442 0)
(0.60737427 -0.0064721203 0)
(0.61321603 -0.0063468643 0)
(0.61890652 -0.006198447 0)
(0.62443005 -0.0060290114 0)
(0.62977341 -0.0058410426 0)
(0.63492617 -0.0056373347 0)
(0.63988083 -0.0054209626 0)
(0.64463297 -0.0051952423 0)
(0.64918143 -0.0049637009 0)
(0.65352831 -0.0047300352 0)
(0.65767909 -0.004498081 0)
(0.66164259 -0.0042717653 0)
(0.66543096 -0.0040550804 0)
(0.66905965 -0.0038520297 0)
(0.6725473 -0.0036666059 0)
(0.67591562 -0.0035027386 0)
(0.67918927 -0.0033642774 0)
(0.68239568 -0.0032549413 0)
(0.68556487 -0.003178334 0)
(0.68872925 -0.0031378879 0)
(0.69192341 -0.0031368967 0)
(0.69518385 -0.0031784736 0)
(0.69854884 -0.0032656143 0)
(0.70205817 -0.003401168 0)
(0.70575291 -0.0035879472 0)
(0.70967529 -0.0038287074 0)
(0.71386846 -0.0041263038 0)
(0.71837642 -0.004483675 0)
(0.72324379 -0.0049040753 0)
(0.72851591 -0.005391046 0)
(0.73423842 -0.0059487773 0)
(0.74045774 -0.0065820069 0)
(0.74722023 -0.0072965944 0)
(0.75457325 -0.0080992695 0)
(0.76256351 -0.008998653 0)
(0.77123914 -0.010004647 0)
(0.78064632 -0.011130348 0)
(0.79083331 -0.01239058 0)
(0.80184328 -0.013805637 0)
(0.81372262 -0.015397768 0)
(0.82650533 -0.017198581 0)
(0.84023058 -0.019240676 0)
(0.85490897 -0.021572284 0)
(0.87056058 -0.024237439 0)
(0.88714227 -0.027305074 0)
(0.90463309 -0.030822593 0)
(0.92287693 -0.03487521 0)
(0.94178074 -0.039479377 0)
(0.9609688 -0.044711259 0)
(0.98025698 -0.050465824 0)
(0.99886417 -0.056760218 0)
(1.0165838 -0.063175508 0)
(1.0318807 -0.069647839 0)
(1.0448924 -0.075020425 0)
(1.0525665 -0.079402825 0)
(1.0565548 -0.079570515 0)
(1.0507406 -0.077514319 0)
(1.0403462 -0.062578269 0)
(1.0190181 -0.047401683 0)
(0.61291197 0.00047961013 0)
(0.61256003 0.00080455059 0)
(0.6121842 0.00074233154 0)
(0.61179325 0.00093223903 0)
(0.61129901 0.00095963388 0)
(0.61083268 0.0010807048 0)
(0.6102811 0.0011384942 0)
(0.60975332 0.0012225507 0)
(0.60917082 0.0012813366 0)
(0.60860764 0.0013403563 0)
(0.60801828 0.0013859092 0)
(0.60745121 0.0014216757 0)
(0.60688421 0.0014458087 0)
(0.60635064 0.0014557656 0)
(0.60584374 0.00145221 0)
(0.60538822 0.0014310285 0)
(0.60498661 0.0013919636 0)
(0.60465892 0.0013298264 0)
(0.60441301 0.0012447799 0)
(0.60426641 0.0011357439 0)
(0.60423294 0.001004841 0)
(0.60433778 0.00085181382 0)
(0.60460065 0.00066810984 0)
(0.60503632 0.00043924659 0)
(0.60565848 0.00017107488 0)
(0.60646721 -0.00011594006 0)
(0.60742177 -0.00041138702 0)
(0.60853356 -0.00070774901 0)
(0.60982687 -0.0010114694 0)
(0.61131781 -0.0013316606 0)
(0.61302108 -0.0016634745 0)
(0.61494307 -0.0020057193 0)
(0.61709005 -0.0023574119 0)
(0.61946681 -0.0027180563 0)
(0.6220768 -0.0030869053 0)
(0.62492265 -0.0034631982 0)
(0.62800597 -0.0038459661 0)
(0.63132762 -0.0042342696 0)
(0.63488756 -0.0046270977 0)
(0.63868501 -0.0050234784 0)
(0.64271831 -0.0054223948 0)
(0.64698503 -0.0058228075 0)
(0.65148185 -0.0062235939 0)
(0.6562046 -0.0066235134 0)
(0.66114813 -0.007021168 0)
(0.6663063 -0.0074149568 0)
(0.67167182 -0.0078030428 0)
(0.67723623 -0.0081833263 0)
(0.6829897 -0.0085534313 0)
(0.68892101 -0.0089107107 0)
(0.69501745 -0.0092522637 0)
(0.70126469 -0.0095749777 0)
(0.70764685 -0.0098755854 0)
(0.71414643 -0.010150739 0)
(0.72074439 -0.010397098 0)
(0.72742027 -0.01061143 0)
(0.73415231 -0.010790713 0)
(0.74091771 -0.010932237 0)
(0.74769282 -0.0110337 0)
(0.7544535 -0.011093301 0)
(0.7611754 -0.011109803 0)
(0.76783434 -0.011082597 0)
(0.77440664 -0.011011733 0)
(0.78086953 -0.010897943 0)
(0.7872015 -0.010742636 0)
(0.79338264 -0.010547887 0)
(0.79939493 -0.010316403 0)
(0.80522259 -0.010051488 0)
(0.81085233 -0.0097569907 0)
(0.8162735 -0.0094372546 0)
(0.82147837 -0.0090970544 0)
(0.8264622 -0.0087415427 0)
(0.83122335 -0.0083761814 0)
(0.83576335 -0.008006687 0)
(0.84008693 -0.0076389601 0)
(0.84420195 -0.0072790348 0)
(0.84811939 -0.0069330013 0)
(0.85185326 -0.0066069658 0)
(0.85542043 -0.0063069649 0)
(0.85884052 -0.0060389401 0)
(0.86213568 -0.0058086445 0)
(0.86533042 -0.0056216385 0)
(0.86845131 -0.0054831922 0)
(0.87152675 -0.0053982912 0)
(0.87458668 -0.0053715501 0)
(0.87766231 -0.0054072601 0)
(0.88078575 -0.0055093257 0)
(0.88398973 -0.0056813525 0)
(0.88730724 -0.0059265792 0)
(0.89077121 -0.0062480061 0)
(0.89441419 -0.0066483543 0)
(0.898268 -0.0071302559 0)
(0.90236345 -0.0076962069 0)
(0.90672991 -0.0083488123 0)
(0.91139517 -0.0090907247 0)
(0.91638489 -0.0099249925 0)
(0.92172261 -0.01085494 0)
(0.92742893 -0.011884727 0)
(0.93352185 -0.013019107 0)
(0.94001528 -0.014264341 0)
(0.94692008 -0.015627642 0)
(0.95424124 -0.017118884 0)
(0.9619802 -0.018749272 0)
(0.97012931 -0.020534617 0)
(0.97867686 -0.022492122 0)
(0.98759551 -0.024646693 0)
(0.99685358 -0.027023137 0)
(1.0063904 -0.029658322 0)
(1.016142 -0.032582525 0)
(1.0259882 -0.035843245 0)
(1.0358131 -0.039461869 0)
(1.0453908 -0.043483048 0)
(1.0545312 -0.047877113 0)
(1.0628301 -0.052652219 0)
(1.0700279 -0.057637334 0)
(1.0754388 -0.062761894 0)
(1.0788495 -0.067551515 0)
(1.0791434 -0.071885673 0)
(1.076561 -0.074668165 0)
(1.0693219 -0.076091287 0)
(1.0590694 -0.073463668 0)
(1.0434761 -0.068823036 0)
(1.0261578 -0.054132342 0)
(1.0099689 -0.03778376 0)
(0.74055462 0.0005694722 0)
(0.74041382 0.0010246993 0)
(0.74014716 0.00096280578 0)
(0.73995744 0.0011973465 0)
(0.73964184 0.0012353829 0)
(0.73940015 0.0013771992 0)
(0.73908426 0.0014424135 0)
(0.73882312 0.0015349597 0)
(0.73853183 0.0015942057 0)
(0.73828802 0.0016511967 0)
(0.7380484 0.0016877921 0)
(0.73786059 0.001709614 0)
(0.73770584 0.0017115648 0)
(0.73761516 0.0016910389 0)
(0.7375836 0.0016473356 0)
(0.73763333 0.0015771137 0)
(0.73776728 0.0014807401 0)
(0.73800529 0.0013560432 0)
(0.73835889 0.0012027687 0)
(0.73884664 0.0010161658 0)
(0.73947942 0.00078620102 0)
(0.74026581 0.00050678919 0)
(0.7412184 0.00018986865 0)
(0.74232359 -0.00015362265 0)
(0.74355355 -0.00051812021 0)
(0.74491473 -0.00089420613 0)
(0.74643513 -0.001286586 0)
(0.74812975 -0.0017082218 0)
(0.75001806 -0.0021536192 0)
(0.75210541 -0.0026163903 0)
(0.75439717 -0.0030951342 0)
(0.75689925 -0.0035881723 0)
(0.75961578 -0.0040937674 0)
(0.76255008 -0.0046106263 0)
(0.76570408 -0.0051372205 0)
(0.76907897 -0.0056721454 0)
(0.77267489 -0.0062138331 0)
(0.7764913 -0.006760778 0)
(0.78052674 -0.0073114138 0)
(0.78477904 -0.0078642126 0)
(0.78924507 -0.0084175942 0)
(0.79392095 -0.0089699401 0)
(0.79880178 -0.0095195179 0)
(0.80388174 -0.010064443 0)
(0.80915394 -0.010602621 0)
(0.81461038 -0.011131701 0)
(0.82024185 -0.011649032 0)
(0.82603788 -0.012151639 0)
(0.83198663 -0.012636211 0)
(0.83807488 -0.013099115 0)
(0.84428796 -0.013536433 0)
(0.85060977 -0.013944018 0)
(0.8570228 -0.014317583 0)
(0.86350822 -0.014652798 0)
(0.87004594 -0.014945413 0)
(0.8766148 -0.015191393 0)
(0.88319276 -0.015387041 0)
(0.88975709 -0.01552914 0)
(0.89628469 -0.015615073 0)
(0.90275231 -0.015642924 0)
(0.90913692 -0.015611575 0)
(0.91541595 -0.01552076 0)
(0.9215677 -0.015371113 0)
(0.92757155 -0.015164173 0)
(0.93340837 -0.014902384 0)
(0.93906071 -0.014589058 0)
(0.9445131 -0.01422833 0)
(0.9497523 -0.013825094 0)
(0.95476743 -0.013384931 0)
(0.95955017 -0.012914034 0)
(0.9640949 -0.012419111 0)
(0.96839871 -0.011907312 0)
(0.97246153 -0.011386127 0)
(0.97628605 -0.010863311 0)
(0.97987778 -0.01034678 0)
(0.9832449 -0.0098445448 0)
(0.9863982 -0.0093646009 0)
(0.98935096 -0.0089148716 0)
(0.99211877 -0.008503097 0)
(0.99471932 -0.0081367849 0)
(0.99717224 -0.0078231049 0)
(0.99949879 -0.0075688473 0)
(1.0017216 -0.0073803194 0)
(1.0038645 -0.0072633743 0)
(1.0059521 -0.0072232879 0)
(1.0080092 -0.0072648049 0)
(1.0100611 -0.0073920452 0)
(1.0121326 -0.0076085899 0)
(1.0142481 -0.0079174081 0)
(1.0164309 -0.0083210148 0)
(1.0187032 -0.0088214088 0)
(1.0210855 -0.0094202722 0)
(1.0235963 -0.010118913 0)
(1.026252 -0.01091854 0)
(1.0290664 -0.011820208 0)
(1.0320504 -0.012825209 0)
(1.0352117 -0.013934937 0)
(1.0385547 -0.015151408 0)
(1.0420799 -0.016477001 0)
(1.0457836 -0.017915285 0)
(1.0496579 -0.019470479 0)
(1.0536892 -0.021148843 0)
(1.0578592 -0.022957402 0)
(1.0621411 -0.02490654 0)
(1.0665028 -0.027006943 0)
(1.0708983 -0.029274548 0)
(1.0752758 -0.031723326 0)
(1.0795586 -0.034374921 0)
(1.0836649 -0.037241904 0)
(1.0874678 -0.040347234 0)
(1.0908429 -0.043686228 0)
(1.0935837 -0.047268528 0)
(1.0955194 -0.051033248 0)
(1.0963284 -0.054947687 0)
(1.0958311 -0.058816936 0)
(1.0935575 -0.062536129 0)
(1.089466 -0.065638605 0)
(1.0828987 -0.067987241 0)
(1.0743029 -0.068575647 0)
(1.0627584 -0.06755618 0)
(1.0497465 -0.062689058 0)
(1.0343433 -0.055563052 0)
(1.0187205 -0.041040969 0)
(1.0063663 -0.024398308 0)
(0.8421023 0.00055156942 0)
(0.84228621 0.0010981395 0)
(0.84221102 0.0010285413 0)
(0.84233128 0.0012853416 0)
(0.84229993 0.0013202225 0)
(0.84239867 0.0014628043 0)
(0.84243425 0.00151752 0)
(0.84256101 0.0015974264 0)
(0.84268149 0.0016355923 0)
(0.84287944 0.0016669187 0)
(0.84310894 0.0016700256 0)
(0.84341708 0.0016527848 0)
(0.84378477 0.0016093139 0)
(0.84424203 0.0015392613 0)
(0.84478484 0.0014408412 0)
(0.84543359 0.001310859 0)
(0.8461908 0.001146034 0)
(0.84706975 0.00093804267 0)
(0.84807314 0.00068535592 0)
(0.8492105 0.00038901253 0)
(0.85048319 5.7727246e-05 0)
(0.85186862 -0.00030634258 0)
(0.85335446 -0.00069987273 0)
(0.85495397 -0.001114412 0)
(0.85668564 -0.0015567288 0)
(0.85856258 -0.0020378306 0)
(0.86060195 -0.002553837 0)
(0.86280791 -0.0030957409 0)
(0.86518208 -0.0036620498 0)
(0.86772974 -0.0042513742 0)
(0.87045551 -0.0048600724 0)
(0.87336259 -0.0054857547 0)
(0.87645364 -0.0061259012 0)
(0.87973038 -0.0067784791 0)
(0.88319367 -0.0074413684 0)
(0.88684367 -0.008112577 0)
(0.8906797 -0.0087900186 0)
(0.89470044 -0.0094716608 0)
(0.89890371 -0.010155413 0)
(0.90328661 -0.010839196 0)
(0.9078453 -0.011520852 0)
(0.91257506 -0.012198147 0)
(0.91747014 -0.012868689 0)
(0.92252374 -0.013529891 0)
(0.9277279 -0.014178908 0)
(0.93307344 -0.01481259 0)
(0.93854993 -0.015427446 0)
(0.94414564 -0.016019625 0)
(0.94984748 -0.016584917 0)
(0.95564105 -0.017118782 0)
(0.96151062 -0.017616404 0)
(0.96743922 -0.01807277 0)
(0.97340871 -0.018482776 0)
(0.9793999 -0.018841358 0)
(0.9853927 -0.019143632 0)
(0.99136631 -0.019385045 0)
(0.99729942 -0.019561536 0)
(1.0031704 -0.01966968 0)
(1.0089577 -0.019706825 0)
(1.0146398 -0.01967121 0)
(1.0201958 -0.01956206 0)
(1.0256056 -0.019379644 0)
(1.0308501 -0.019125316 0)
(1.0359113 -0.018801522 0)
(1.0407729 -0.018411773 0)
(1.0454202 -0.017960608 0)
(1.0498405 -0.017453519 0)
(1.0540233 -0.01689688 0)
(1.0579599 -0.016297838 0)
(1.0616444 -0.015664225 0)
(1.065073 -0.015004436 0)
(1.0682444 -0.01432733 0)
(1.0711597 -0.013642104 0)
(1.0738225 -0.012958201 0)
(1.0762386 -0.012285175 0)
(1.0784162 -0.01163261 0)
(1.0803656 -0.011009986 0)
(1.0820989 -0.010426611 0)
(1.0836304 -0.0098914764 0)
(1.0849758 -0.0094132227 0)
(1.086152 -0.0089999688 0)
(1.0871775 -0.008659333 0)
(1.0880714 -0.008398254 0)
(1.0888534 -0.0082229947 0)
(1.0895435 -0.0081389856 0)
(1.0901619 -0.0081509078 0)
(1.0907285 -0.0082625789 0)
(1.0912622 -0.0084771012 0)
(1.0917814 -0.0087967061 0)
(1.092303 -0.0092229435 0)
(1.0928424 -0.0097565939 0)
(1.0934133 -0.010397952 0)
(1.094027 -0.011146726 0)
(1.0946926 -0.01200235 0)
(1.0954166 -0.012963889 0)
(1.0962026 -0.014030413 0)
(1.0970513 -0.015200855 0)
(1.0979598 -0.01647457 0)
(1.0989221 -0.017851125 0)
(1.0999281 -0.019330991 0)
(1.1009642 -0.020915093 0)
(1.1020116 -0.022605995 0)
(1.1030473 -0.024406804 0)
(1.1040415 -0.026323264 0)
(1.1049598 -0.028361117 0)
(1.1057566 -0.030529991 0)
(1.1063816 -0.032837117 0)
(1.1067657 -0.035294847 0)
(1.1068367 -0.037906127 0)
(1.1064891 -0.04067998 0)
(1.1056237 -0.04359892 0)
(1.1040821 -0.046653828 0)
(1.1017449 -0.049772082 0)
(1.0983848 -0.052903377 0)
(1.0939076 -0.055858409 0)
(1.0880097 -0.058533485 0)
(1.0807525 -0.060522509 0)
(1.0717538 -0.061729875 0)
(1.0614905 -0.061337705 0)
(1.0495225 -0.059536831 0)
(1.0370365 -0.054589609 0)
(1.0239815 -0.04771163 0)
(1.0116592 -0.035214299 0)
(1.0034082 -0.020180231 0)
(0.9194253 0.00040297294 0)
(0.92000158 0.0009886071 0)
(0.92015959 0.00090416798 0)
(0.92064765 0.001158267 0)
(0.92094993 0.0011742801 0)
(0.92144105 0.0012977653 0)
(0.92187406 0.0013249534 0)
(0.92243262 0.0013747222 0)
(0.92300236 0.0013763998 0)
(0.92367513 0.0013680569 0)
(0.92439984 0.0013260355 0)
(0.92522466 0.001259852 0)
(0.92612802 0.0011598914 0)
(0.92713547 0.0010245488 0)
(0.92823863 0.00085144804 0)
(0.92945289 0.00063858807 0)
(0.93077636 0.00038686727 0)
(0.93221117 9.8308651e-05 0)
(0.93374041 -0.00022687866 0)
(0.93536114 -0.00059027218 0)
(0.9370662 -0.00098405239 0)
(0.93887686 -0.0014075226 0)
(0.9407957 -0.0018700237 0)
(0.94283536 -0.0023771205 0)
(0.94500535 -0.0029244065 0)
(0.94730758 -0.0035050211 0)
(0.94974026 -0.0041176215 0)
(0.9523065 -0.0047622582 0)
(0.95500991 -0.0054350542 0)
(0.95785219 -0.0061320161 0)
(0.9608352 -0.0068501056 0)
(0.96396074 -0.0075864252 0)
(0.96723009 -0.0083382126 0)
(0.97064415 -0.0091029767 0)
(0.9742031 -0.009878157 0)
(0.97790665 -0.010661309 0)
(0.98175376 -0.011449889 0)
(0.98574279 -0.01224138 0)
(0.98987131 -0.013033172 0)
(0.99413611 -0.013822619 0)
(0.99853303 -0.014606945 0)
(1.0030569 -0.015383245 0)
(1.0077016 -0.016148401 0)
(1.0124598 -0.016899053 0)
(1.0173228 -0.017631537 0)
(1.0222808 -0.018341853 0)
(1.0273228 -0.019025633 0)
(1.0324363 -0.019678141 0)
(1.0376077 -0.020294291 0)
(1.0428221 -0.020868691 0)
(1.0480635 -0.021395714 0)
(1.0533148 -0.021869606 0)
(1.058558 -0.022284603 0)
(1.0637745 -0.022635082 0)
(1.068945 -0.02291572 0)
(1.0740497 -0.023121662 0)
(1.0790688 -0.023248688 0)
(1.0839825 -0.023293373 0)
(1.0887713 -0.023253225 0)
(1.0934162 -0.023126812 0)
(1.0978987 -0.022913845 0)
(1.1022017 -0.022615247 0)
(1.1063088 -0.022233177 0)
(1.1102052 -0.021771029 0)
(1.1138776 -0.021233397 0)
(1.1173142 -0.020626019 0)
(1.1205053 -0.019955689 0)
(1.123443 -0.019230165 0)
(1.1261212 -0.018458044 0)
(1.1285362 -0.017648656 0)
(1.1306863 -0.016811914 0)
(1.1325718 -0.015958205 0)
(1.1341952 -0.015098238 0)
(1.135561 -0.014242932 0)
(1.1366757 -0.013403264 0)
(1.1375477 -0.012590174 0)
(1.1381871 -0.011814401 0)
(1.1386055 -0.011086411 0)
(1.1388162 -0.01041623 0)
(1.1388335 -0.0098133781 0)
(1.138673 -0.009286733 0)
(1.1383507 -0.0088444367 0)
(1.1378837 -0.0084937503 0)
(1.1372892 -0.0082411564 0)
(1.1365843 -0.0080921364 0)
(1.1357862 -0.008051254 0)
(1.1349114 -0.0081220017 0)
(1.1339756 -0.0083069206 0)
(1.1329936 -0.0086074797 0)
(1.1319789 -0.0090243371 0)
(1.1309434 -0.0095572198 0)
(1.1298972 -0.010205195 0)
(1.1288485 -0.010966549 0)
(1.1278034 -0.011839149 0)
(1.1267658 -0.012820352 0)
(1.1257369 -0.013907523 0)
(1.1247158 -0.01509785 0)
(1.1236984 -0.016388834 0)
(1.1226783 -0.017778008 0)
(1.1216457 -0.019263654 0)
(1.1205882 -0.020844368 0)
(1.1194894 -0.022519973 0)
(1.1183301 -0.024290535 0)
(1.1170856 -0.026157969 0)
(1.115728 -0.02812365 0)
(1.1142208 -0.030191399 0)
(1.1125247 -0.032361977 0)
(1.1105858 -0.034638993 0)
(1.1083497 -0.037016481 0)
(1.1057367 -0.039491573 0)
(1.1026764 -0.042036966 0)
(1.0990545 -0.044630536 0)
(1.0947962 -0.047194458 0)
(1.0897474 -0.049669588 0)
(1.0838727 -0.051877027 0)
(1.0769798 -0.053713808 0)
(1.0691734 -0.054817498 0)
(1.0602266 -0.055095032 0)
(1.0505497 -0.053851001 0)
(1.0399136 -0.05122697 0)
(1.0291506 -0.045899419 0)
(1.0184512 -0.038793972 0)
(1.0085196 -0.027720754 0)
(1.0022189 -0.014802054 0)
(0.97582878 9.657883e-05 0)
(0.97680761 0.00066487685 0)
(0.9771979 0.00055891744 0)
(0.97805526 0.000786568 0)
(0.9786854 0.00077283787 0)
(0.97956072 0.00086107106 0)
(0.98037539 0.0008481691 0)
(0.98134442 0.00085299191 0)
(0.98233307 0.00080384903 0)
(0.98344185 0.00073966158 0)
(0.98461193 0.00063565462 0)
(0.9858913 0.00050268488 0)
(0.98725477 0.00033410692 0)
(0.98871877 0.00013281625 0)
(0.99026607 -0.00010468514 0)
(0.99190301 -0.00037952917 0)
(0.99361813 -0.00069037609 0)
(0.995417 -0.0010343941 0)
(0.99730447 -0.0014120944 0)
(0.99928332 -0.0018278935 0)
(1.0013558 -0.0022877231 0)
(1.0035298 -0.0027928072 0)
(1.0058073 -0.0033374061 0)
(1.0081863 -0.0039191865 0)
(1.0106636 -0.0045378333 0)
(1.0132401 -0.0051944198 0)
(1.0159171 -0.0058861044 0)
(1.0186944 -0.0066086334 0)
(1.0215715 -0.0073592611 0)
(1.0245492 -0.0081351343 0)
(1.0276281 -0.0089329232 0)
(1.0308091 -0.0097496922 0)
(1.0340929 -0.010582402 0)
(1.0374797 -0.011428252 0)
(1.0409695 -0.012284353 0)
(1.0445617 -0.013147875 0)
(1.0482553 -0.014015868 0)
(1.0520485 -0.014885344 0)
(1.0559389 -0.015753173 0)
(1.0599231 -0.016616123 0)
(1.063997 -0.017470768 0)
(1.0681553 -0.018313499 0)
(1.0723915 -0.019140436 0)
(1.0766982 -0.019947422 0)
(1.0810665 -0.020729964 0)
(1.0854864 -0.021483219 0)
(1.0899468 -0.022201981 0)
(1.0944351 -0.022880695 0)
(1.0989377 -0.023513495 0)
(1.10344 -0.024094266 0)
(1.1079264 -0.024616735 0)
(1.1123804 -0.025074589 0)
(1.116785 -0.025461615 0)
(1.1211226 -0.025771857 0)
(1.1253755 -0.025999789 0)
(1.1295255 -0.026140489 0)
(1.1335551 -0.026189807 0)
(1.1374465 -0.026144531 0)
(1.1411827 -0.026002523 0)
(1.1447476 -0.025762841 0)
(1.1481255 -0.025425818 0)
(1.1513022 -0.024993121 0)
(1.1542644 -0.024467768 0)
(1.1570004 -0.023854115 0)
(1.1594998 -0.023157808 0)
(1.1617538 -0.022385717 0)
(1.1637553 -0.021545829 0)
(1.1654991 -0.020647144 0)
(1.1669816 -0.019699536 0)
(1.168201 -0.018713625 0)
(1.1691575 -0.017700621 0)
(1.1698531 -0.016672188 0)
(1.1702914 -0.015640283 0)
(1.1704779 -0.01461703 0)
(1.1704197 -0.013614544 0)
(1.1701254 -0.012644833 0)
(1.1696052 -0.011719608 0)
(1.1688705 -0.010850221 0)
(1.1679339 -0.01004744 0)
(1.166809 -0.0093214635 0)
(1.1655103 -0.0086816137 0)
(1.1640527 -0.0081364917 0)
(1.1624519 -0.0076936869 0)
(1.1607233 -0.0073597635 0)
(1.1588826 -0.0071400111 0)
(1.1569451 -0.0070386216 0)
(1.1549258 -0.0070585247 0)
(1.1528387 -0.0072017003 0)
(1.150697 -0.0074688282 0)
(1.1485127 -0.0078595901 0)
(1.1462962 -0.0083725019 0)
(1.1440568 -0.0090054173 0)
(1.1418017 -0.0097553216 0)
(1.1395365 -0.010618759 0)
(1.1372647 -0.011591696 0)
(1.1349876 -0.012669947 0)
(1.1327048 -0.013848912 0)
(1.1304133 -0.015124296 0)
(1.1281083 -0.01649194 0)
(1.1257823 -0.017948282 0)
(1.1234256 -0.019490001 0)
(1.1210254 -0.021114845 0)
(1.1185667 -0.022820763 0)
(1.1160299 -0.024607155 0)
(1.1133933 -0.026472844 0)
(1.1106283 -0.028418365 0)
(1.1077042 -0.03044123 0)
(1.1045792 -0.032540552 0)
(1.1012117 -0.03470642 0)
(1.0975409 -0.036930198 0)
(1.0935153 -0.0391812 0)
(1.0890497 -0.041431724 0)
(1.0840942 -0.043605742 0)
(1.0785376 -0.045643248 0)
(1.0723679 -0.047383304 0)
(1.0654534 -0.048733425 0)
(1.0578982 -0.049386271 0)
(1.0495669 -0.049267355 0)
(1.0407984 -0.047814709 0)
(1.0315266 -0.045140176 0)
(1.0223765 -0.040234062 0)
(1.0137382 -0.033728862 0)
(1.0060341 -0.024132535 0)
(1.0014116 -0.012693922 0)
(1.015278 -0.00035062422 0)
(1.0166292 0.00015245679 0)
(1.0172187 2.0430363e-05 0)
(1.0184001 0.00020091593 0)
(1.0193091 0.00014638839 0)
(1.020511 0.0001861524 0)
(1.0216426 0.00012381969 0)
(1.0229477 7.5791242e-05 0)
(1.0242697 -2.8344161e-05 0)
(1.0257155 -0.00014890157 0)
(1.0272151 -0.00031048129 0)
(1.0288154 -0.0005006162 0)
(1.0304823 -0.00072569275 0)
(1.0322411 -0.00098147553 0)
(1.0340782 -0.0012714165 0)
(1.036003 -0.0015961207 0)
(1.0380081 -0.001958241 0)
(1.0400991 -0.0023619045 0)
(1.0422746 -0.0028069108 0)
(1.0445368 -0.00329173 0)
(1.0468817 -0.0038146098 0)
(1.0493051 -0.0043753154 0)
(1.0518035 -0.0049754163 0)
(1.0543763 -0.0056157211 0)
(1.0570219 -0.0062941046 0)
(1.059738 -0.0070075863 0)
(1.0625218 -0.0077541904 0)
(1.0653721 -0.0085320555 0)
(1.0682884 -0.0093382123 0)
(1.0712704 -0.010169572 0)
(1.0743178 -0.011023097 0)
(1.077431 -0.011895776 0)
(1.0806102 -0.01278457 0)
(1.0838554 -0.013686501 0)
(1.0871665 -0.014598455 0)
(1.090543 -0.015517288 0)
(1.0939839 -0.016439672 0)
(1.0974875 -0.017362167 0)
(1.1010515 -0.018281118 0)
(1.1046727 -0.019192695 0)
(1.108347 -0.020092809 0)
(1.1120691 -0.020977132 0)
(1.1158329 -0.021841017 0)
(1.119631 -0.022679511 0)
(1.1234547 -0.02348731 0)