/*--------------------------------*- C++ -*----------------------------------*\
| =========                 |                                                 |
| \\      /  F ield         | foam-extend: Open Source CFD                    |
|  \\    /   O peration     | Version:     4.1                                |
|   \\  /    A nd           | Web:         http://www.foam-extend.org         |
|    \\/     M anipulation  |                                                 |
\*---------------------------------------------------------------------------*/
FoamFile
{
    version     2.0;
    format      ascii;
    class       volScalarField;
    location    "2.7";
    object      p;
}
// * * * * * * * * * * * * * * * * * * * * * * * * * * * * * * * * * * * * * //

dimensions      [0 2 -2 0 0 0 0];

internalField   nonuniform List<scalar> 
16126
(
-0.00029560257
-0.00071323203
-0.0015561599
-0.0019188482
-0.00281191
-0.0032608543
-0.0041414397
-0.0047121292
-0.005584803
-0.0062708423
-0.0071563168
-0.0079422307
-0.008858574
-0.0097298806
-0.010688
-0.01163212
-0.012635406
-0.013641363
-0.014688551
-0.01574689
-0.016836204
-0.017938168
-0.019062091
-0.020200447
-0.02136196
-0.022536191
-0.023728871
-0.024936137
-0.026160253
-0.027396959
-0.02864581
-0.029903535
-0.031168006
-0.032435717
-0.033703413
-0.034967065
-0.036222539
-0.037465195
-0.038690183
-0.039892297
-0.041066142
-0.042206065
-0.043306303
-0.044360915
-0.045363924
-0.046309248
-0.047190807
-0.048002471
-0.04873812
-0.049391611
-0.049956808
-0.050427555
-0.0507977
-0.051061089
-0.05121158
-0.051243075
-0.051149543
-0.050925072
-0.050563927
-0.050060612
-0.049409946
-0.048607159
-0.04764796
-0.04652865
-0.045246186
-0.043798296
-0.042183533
-0.040401365
-0.038452223
-0.036337567
-0.034059896
-0.0316228
-0.029030919
-0.026289984
-0.023406722
-0.020388878
-0.01724507
-0.013984799
-0.010618244
-0.0071562738
-0.0036101947
8.2354396e-06
0.0036871071
0.0074143146
0.011177899
0.014965965
0.01876704
0.022569972
0.026364245
0.030139918
0.033887789
0.037599497
0.04126736
0.044884866
0.048445855
0.0519459
0.055380094
0.058746406
0.062040539
0.065263544
0.06841052
0.071487463
0.074486803
0.077424438
0.080286785
0.083112251
0.085875583
0.088667998
0.091440711
0.094406092
0.097457594
0.10107389
0.10497583
0.11020847
0.11594599
0.1244655
0.13326834
0.14765063
0.16012203
0.18493707
0.1985399
0.24888154
0.24505945
0.41409225
-0.00030470295
-0.00072187861
-0.0015868352
-0.0019401927
-0.0028433064
-0.0032900112
-0.0041746745
-0.0047464011
-0.005620946
-0.0063088035
-0.0071953103
-0.007982634
-0.0088991631
-0.0097704716
-0.010727221
-0.011669766
-0.012671221
-0.013675946
-0.014721629
-0.015776778
-0.016859142
-0.017955578
-0.019079956
-0.020216186
-0.021363057
-0.022525224
-0.023713764
-0.024914875
-0.026131708
-0.027360982
-0.028602171
-0.029851998
-0.031108266
-0.032367458
-0.033626299
-0.03488076
-0.036126707
-0.037359511
-0.038574335
-0.039765996
-0.040929134
-0.042058137
-0.043147301
-0.044190749
-0.045182581
-0.0461168
-0.046987422
-0.047788416
-0.048513769
-0.049157443
-0.049713407
-0.05017561
-0.050537997
-0.050794504
-0.050939073
-0.050965674
-0.050868338
-0.0506412
-0.050278557
-0.049774934
-0.049125155
-0.04832444
-0.047368473
-0.046253516
-0.044976473
-0.043535003
-0.041927574
-0.040153561
-0.038213286
-0.03610809
-0.03384034
-0.031413488
-0.028832029
-0.02610154
-0.023228593
-0.020220774
-0.017086539
-0.01383523
-0.010476866
-0.0070221616
-0.0034822696
0.00013120045
0.0038064807
0.0075315986
0.011294726
0.015084095
0.018888362
0.022696505
0.026498147
0.030283485
0.034043482
0.037769951
0.04145543
0.045093656
0.04867881
0.052206839
0.055673369
0.059076929
0.062414083
0.065686719
0.068891312
0.072035025
0.075112439
0.078140825
0.081109799
0.08405869
0.086966704
0.089923559
0.092886448
0.096059264
0.099344573
0.10319664
0.10735642
0.1128114
0.11879375
0.12744653
0.13644665
0.15071438
0.16335115
0.18699177
0.20122943
0.24144084
0.24943529
0.30937876
-0.00034461042
-0.00067528431
-0.0016146934
-0.0019189298
-0.002850692
-0.0032794363
-0.0041708271
-0.0047373032
-0.005610671
-0.0062969264
-0.0071799162
-0.007966256
-0.0088793395
-0.0097506198
-0.010706321
-0.011650098
-0.012650357
-0.013653269
-0.014693651
-0.015746958
-0.016835259
-0.017935487
-0.019044488
-0.020165513
-0.021326056
-0.022500065
-0.023686389
-0.024887577
-0.026104086
-0.027333534
-0.028574947
-0.029825293
-0.031082294
-0.032342508
-0.03360264
-0.034858688
-0.036106507
-0.037341476
-0.038558748
-0.039753139
-0.040919278
-0.042051546
-0.043144235
-0.044191461
-0.045187326
-0.046125833
-0.047001
-0.047806805
-0.048537236
-0.049186263
-0.049747856
-0.050215957
-0.050584503
-0.050847409
-0.050998587
-0.051031967
-0.050941527
-0.050721338
-0.050365625
-0.049868829
-0.049225684
-0.048431314
-0.047481302
-0.046371808
-0.045099635
-0.043662344
-0.042058312
-0.040286825
-0.038348128
-0.036243496
-0.033975237
-0.031546763
-0.028962536
-0.026228119
-0.023350081
-0.020336023
-0.017194427
-0.013934678
-0.010566851
-0.0071017303
-0.0035505474
7.4987604e-05
0.0037630154
0.0075014579
0.011278398
0.015081951
0.018900674
0.022723424
0.026539729
0.030339673
0.034114143
0.03785485
0.04155428
0.045206034
0.048804249
0.052344682
0.05582296
0.059237363
0.062584585
0.065866176
0.069079151
0.072230321
0.07531592
0.078353072
0.081335747
0.084303588
0.087245811
0.090252195
0.093300013
0.096587376
0.10005165
0.10411508
0.10857257
0.11430001
0.1206235
0.1293792
0.13850285
0.15212727
0.16434982
0.18545843
0.19936116
0.23252852
0.24560055
0.28932157
-0.00048072425
-0.00061840444
-0.0016934531
-0.0019127557
-0.0028919461
-0.0032899298
-0.0041931237
-0.0047499767
-0.0056235132
-0.0063073058
-0.0071877257
-0.0079733684
-0.0088831464
-0.0097517126
-0.010700416
-0.011636731
-0.012628954
-0.013628828
-0.014670665
-0.01572198
-0.016786123
-0.017861218
-0.018984805
-0.02012631
-0.02127403
-0.022435185
-0.023615743
-0.02481044
-0.026020976
-0.027244256
-0.028479574
-0.029723917
-0.030975041
-0.032229564
-0.033484205
-0.034735013
-0.035977868
-0.037208197
-0.03842119
-0.039611713
-0.040774448
-0.04190383
-0.042994218
-0.044039791
-0.045034722
-0.045973086
-0.046848974
-0.047656431
-0.048389509
-0.049042232
-0.049608613
-0.050082621
-0.050458204
-0.050729267
-0.050889689
-0.050933347
-0.050854144
-0.05064605
-0.050303168
-0.049819799
-0.049190512
-0.048410256
-0.047474423
-0.046378971
-0.045120492
-0.043696334
-0.042104655
-0.04034453
-0.038415992
-0.036320113
-0.03405901
-0.031635916
-0.029055128
-0.026322063
-0.02344316
-0.020425918
-0.017278729
-0.014010924
-0.010632531
-0.0071543272
-0.0035875432
5.6089475e-05
0.0037646743
0.0075260484
0.011328221
0.015159202
0.019007498
0.022861886
0.026711883
0.030547532
0.034359775
0.038140349
0.041881915
0.045578262
0.049223956
0.052815181
0.056348338
0.059822405
0.063235441
0.066590095
0.069885696
0.073130562
0.076324721
0.07948687
0.082616882
0.085754605
0.088897821
0.092130994
0.095443002
0.099011286
0.10278944
0.10714345
0.11189907
0.11780083
0.12426236
0.13282228
0.14170553
0.15428313
0.16565437
0.18363962
0.19598163
0.21965952
0.23072183
0.24879085
-0.00073011655
-0.00052141883
-0.001797455
-0.0018818521
-0.0029290484
-0.0032781467
-0.0041975962
-0.0047360282
-0.0056069769
-0.0062809894
-0.0071516599
-0.0079283355
-0.0088253183
-0.0096861061
-0.010628063
-0.011563535
-0.012551649
-0.013542326
-0.014555732
-0.015582889
-0.016667937
-0.017769636
-0.018879886
-0.020001381
-0.02114745
-0.022308742
-0.023486354
-0.024678991
-0.02588696
-0.027108271
-0.028341884
-0.029585155
-0.030835821
-0.032090668
-0.033346466
-0.034599368
-0.035845324
-0.037079847
-0.038298199
-0.039495324
-0.040665974
-0.041804643
-0.042905755
-0.043963529
-0.044972178
-0.045925795
-0.046818474
-0.047644244
-0.048397118
-0.049071057
-0.049659982
-0.050157746
-0.050558149
-0.050854923
-0.051041744
-0.051112261
-0.051060122
-0.050879024
-0.050562777
-0.050105375
-0.049501074
-0.0487445
-0.047830726
-0.046755397
-0.045514797
-0.044105986
-0.042526852
-0.040776221
-0.038853902
-0.03676078
-0.034498809
-0.032071101
-0.029481862
-0.026736464
-0.023841333
-0.020804002
-0.017632933
-0.014337572
-0.010928098
-0.0074154879
-0.0038111915
-0.00012725202
0.0036241521
0.0074305344
0.011279637
0.015159114
0.019057156
0.022962158
0.026863337
0.030750398
0.034614065
0.038445847
0.042238338
0.045985109
0.049680742
0.053321252
0.056903267
0.060425753
0.063887329
0.067290719
0.070636454
0.073933059
0.077182999
0.080405214
0.083604305
0.086819689
0.090057653
0.093398727
0.096845636
0.10055991
0.10451598
0.10903135
0.11396637
0.11994173
0.12645682
0.13476307
0.1433735
0.15497384
0.16566176
0.18138311
0.19310837
0.21242028
0.22373239
0.23604385
-0.0011141195
-0.00041490779
-0.0019523961
-0.0018613676
-0.0029893705
-0.0032732829
-0.0042098756
-0.0047220347
-0.0055895281
-0.00625082
-0.0071133918
-0.0078826706
-0.0087727135
-0.0096250307
-0.010550369
-0.011460371
-0.012419289
-0.013395079
-0.014428276
-0.015474113
-0.016531368
-0.017603501
-0.018704474
-0.019823172
-0.020958137
-0.022108397
-0.023276673
-0.024460208
-0.025659868
-0.026873292
-0.028099621
-0.029336304
-0.030581174
-0.031831175
-0.033083181
-0.034333503
-0.035578215
-0.036812987
-0.038033224
-0.039234019
-0.040410273
-0.041556613
-0.042667593
-0.043737542
-0.044760758
-0.045731397
-0.046643584
-0.047491341
-0.048268637
-0.048969346
-0.049587262
-0.050116066
-0.050549343
-0.050880567
-0.051103119
-0.051210317
-0.051195446
-0.051051813
-0.050772816
-0.050352023
-0.049783248
-0.049060679
-0.048178945
-0.047133258
-0.045919483
-0.044534278
-0.04297515
-0.041240578
-0.039330052
-0.037244176
-0.034984659
-0.032554418
-0.029957502
-0.027199185
-0.02428583
-0.02122498
-0.018025133
-0.014695863
-0.011247487
-0.0076912198
-0.0040387631
-0.00030242391
0.0035053089
0.0073715066
0.01128348
0.01522838
0.019194038
0.023168412
0.027140429
0.031099428
0.035035922
0.038941112
0.042807478
0.046628538
0.050399143
0.054115608
0.057775135
0.061377166
0.064921398
0.068411353
0.071849318
0.075244706
0.078602621
0.081942366
0.085272107
0.08862939
0.092024809
0.095530781
0.099154868
0.10303606
0.10715584
0.11177927
0.11678669
0.12268592
0.12904891
0.13687887
0.14493722
0.15529799
0.1648555
0.17787353
0.18776277
0.20170233
0.2102857
0.21645603
-0.0015796693
-0.00027782577
-0.0021197373
-0.0018186459
-0.0030419923
-0.0032496764
-0.0042082549
-0.0046880954
-0.0055507445
-0.0061919003
-0.0070375525
-0.007785723
-0.008646145
-0.0094740163
-0.010383797
-0.011297692
-0.012266637
-0.013235985
-0.014234587
-0.015248225
-0.016298478
-0.017366507
-0.018454565
-0.019558221
-0.020683284
-0.021825118
-0.022985185
-0.024161652
-0.025354713
-0.026562606
-0.027784334
-0.029017679
-0.030260556
-0.031510147
-0.032763487
-0.034017093
-0.035267227
-0.036509756
-0.037740275
-0.038954061
-0.040146182
-0.041311415
-0.042444435
-0.043539656
-0.044591426
-0.045593898
-0.046541146
-0.04742709
-0.048245531
-0.048990125
-0.049654384
-0.050231653
-0.05071513
-0.051097854
-0.051372725
-0.051532548
-0.051570065
-0.051478019
-0.051249232
-0.05087669
-0.050353632
-0.04967368
-0.048830916
-0.047820035
-0.046636414
-0.045276267
-0.043736698
-0.042015836
-0.04011287
-0.038028167
-0.035763251
-0.033320927
-0.030705182
-0.027921315
-0.024975757
-0.021876214
-0.018631397
-0.015251165
-0.011746198
-0.0081281326
-0.004409107
-0.00060213737
0.0032796757
0.0072227556
0.011213936
0.015239688
0.019287187
0.023343637
0.027397327
0.031436908
0.035452401
0.0394346
0.043375891
0.047269347
0.051109735
0.054892944
0.058616402
0.062279562
0.065882657
0.069429296
0.072922795
0.076372774
0.079786088
0.083182007
0.086571595
0.089991061
0.093455423
0.09703162
0.10073351
0.10468377
0.10887354
0.11352671
0.11854538
0.12434374
0.13056331
0.13800103
0.14565063
0.15510661
0.16397149
0.17532263
0.18443806
0.19583912
0.20364228
0.20779349
-0.0020996206
-0.00014970961
-0.0023083748
-0.0017833134
-0.003098131
-0.0032176188
-0.0041914406
-0.0046305851
-0.0054838676
-0.006101232
-0.0069328887
-0.0076676795
-0.0085274292
-0.009351563
-0.010241575
-0.011125249
-0.012057382
-0.013002801
-0.013990826
-0.014994637
-0.016022636
-0.017068118
-0.018138625
-0.019227826
-0.020337228
-0.021464473
-0.022611087
-0.023775145
-0.024957016
-0.026154926
-0.027368012
-0.028594234
-0.029831673
-0.031077745
-0.032329693
-0.033584283
-0.034838012
-0.036086997
-0.037327072
-0.038553749
-0.039762308
-0.040947713
-0.042104792
-0.043228068
-0.044311943
-0.045350571
-0.046337957
-0.047267886
-0.048133954
-0.048929538
-0.049647801
-0.050281677
-0.050823884
-0.051266932
-0.051603143
-0.051824704
-0.051923707
-0.051892231
-0.051722417
-0.051406575
-0.050937273
-0.050307481
-0.049510656
-0.048540902
-0.047393045
-0.046062797
-0.044546808
-0.042842819
-0.040949681
-0.038867502
-0.036597597
-0.034142654
-0.03150659
-0.028694738
-0.025713606
-0.022571098
-0.019276134
-0.015838968
-0.012270605
-0.008583258
-0.004789652
-0.0009032066
0.0030624572
0.0070929316
0.011174181
0.015291711
0.019432112
0.023581819
0.027728677
0.031860697
0.035967564
0.040039409
0.04406809
0.048046423
0.051969341
0.055833151
0.059635577
0.063376275
0.067056178
0.070679445
0.074250456
0.077779171
0.081273886
0.084753416
0.088230323
0.09173813
0.095293028
0.098954025
0.10273573
0.10674196
0.11096616
0.11559193
0.1205346
0.12612503
0.1320598
0.13895683
0.14599416
0.15435368
0.16217796
0.17158387
0.1792237
0.18777815
0.19382997
0.1964009
-0.0025803596
8.527343e-06
-0.0024738399
-0.0017203504
-0.0031355004
-0.0031702497
-0.0041675059
-0.0045676321
-0.0054152987
-0.0060069364
-0.0068193248
-0.0075276014
-0.0083538495
-0.0091472819
-0.010015392
-0.010883793
-0.011802209
-0.012729216
-0.01369022
-0.014668241
-0.0156772
-0.016705623
-0.017757941
-0.018829372
-0.019923207
-0.021036444
-0.022170318
-0.02332322
-0.024495295
-0.025685113
-0.026891843
-0.028113742
-0.02934907
-0.030595529
-0.031850604
-0.033111345
-0.034374516
-0.035636507
-0.03689341
-0.038140973
-0.03937469
-0.040589696
-0.041780942
-0.04294302
-0.044070334
-0.045156968
-0.04619678
-0.047183327
-0.048109893
-0.048969467
-0.049754743
-0.050458115
-0.051071695
-0.05158733
-0.051996635
-0.052291052
-0.052461904
-0.052500489
-0.052398165
-0.052146471
-0.051737223
-0.051162673
-0.050415598
-0.049489477
-0.04837856
-0.047078055
-0.045584166
-0.043894272
-0.042006923
-0.039922024
-0.037640747
-0.03516574
-0.032500941
-0.029651819
-0.026625067
-0.023428896
-0.020072607
-0.016566873
-0.012923328
-0.0091547188
-0.0052742365
-0.0012965931
0.0027635567
0.0068909078
0.011071066
0.015288697
0.019529433
0.023778643
0.028023257
0.032250272
0.036448554
0.040607875
0.044720459
0.048778446
0.052776711
0.056710521
0.060577965
0.064378871
0.068114737
0.071789632
0.075408794
0.078982321
0.08251954
0.086039014
0.089554736
0.093098497
0.096688281
0.10037764
0.10418344
0.10819564
0.11241206
0.11698501
0.12184445
0.12725472
0.13296499
0.13945234
0.14606088
0.15366335
0.16085216
0.16907168
0.17597215
0.18304743
0.18832271
0.19010087
-0.0030133076
0.00013544575
-0.0026284356
-0.001666103
-0.0031642867
-0.0031105808
-0.0041204017
-0.0044762187
-0.0053126031
-0.005876017
-0.006670903
-0.0073584884
-0.0081688493
-0.0089435642
-0.0097871932
-0.010627652
-0.011515565
-0.012416528
-0.013355143
-0.014311778
-0.015296576
-0.016301476
-0.017332042
-0.018383627
-0.019458354
-0.020554023
-0.021671785
-0.022810228
-0.023969596
-0.025148622
-0.026346639
-0.027562144
-0.028793623
-0.030039063
-0.031296221
-0.032562449
-0.033834801
-0.035109959
-0.036384293
-0.037653804
-0.038914207
-0.040160818
-0.04138871
-0.042592539
-0.043766698
-0.044905183
-0.04600168
-0.047049486
-0.048041538
-0.048970391
-0.049828222
-0.050606833
-0.051297674
-0.051891872
-0.052380271
-0.052753509
-0.05300208
-0.05311644
-0.053087107
-0.052904794
-0.052560514
-0.052045756
-0.051352574
-0.050473783
-0.049403024
-0.048134974
-0.046665364
-0.044991195
-0.043110699
-0.041023567
-0.038730817
-0.036235062
-0.03354025
-0.030652003
-0.027577196
-0.024324398
-0.020903208
-0.017324979
-0.013601623
-0.0097468997
-0.005775152
-0.001701141
0.0024601502
0.0066922473
0.0109792
0.015304108
0.019652069
0.024007452
0.028356809
0.032686376
0.036985011
0.041241444
0.045446375
0.049591517
0.053671927
0.057684218
0.061626419
0.065498031
0.069300885
0.073039688
0.076720168
0.080352358
0.083946343
0.087519768
0.091086966
0.094676932
0.098307236
0.10202456
0.10584468
0.1098428
0.11401688
0.11848951
0.12319968
0.12835286
0.13373853
0.13971366
0.14575107
0.15247121
0.15880697
0.16570307
0.17153947
0.17708605
0.18133364
0.18265243
-0.0033466095
0.00025813359
-0.0027417765
-0.001598216
-0.0031700613
-0.0030392637
-0.0040619464
-0.0043770174
-0.0052022298
-0.005735844
-0.006508417
-0.0071672612
-0.0079484663
-0.0086943288
-0.0095122322
-0.010329132
-0.011193857
-0.012070533
-0.012982446
-0.013913302
-0.014874375
-0.015857048
-0.016866027
-0.017897284
-0.018953353
-0.020032113
-0.021134695
-0.022259934
-0.023408082
-0.024578156
-0.025769631
-0.026981297
-0.028211883
-0.029459681
-0.03072274
-0.031998722
-0.033284981
-0.034578494
-0.035875899
-0.037173444
-0.038467046
-0.039752174
-0.041023994
-0.042277187
-0.043506091
-0.044704567
-0.045866069
-0.046983578
-0.04804962
-0.049056251
-0.049995061
-0.050857191
-0.051633357
-0.052313894
-0.052888807
-0.053347858
-0.053680644
-0.053876719
-0.0539257
-0.053817421
-0.053542045
-0.053090257
-0.052453354
-0.051623465
-0.050593606
-0.049357915
-0.047911651
-0.046251451
-0.044375242
-0.042282534
-0.039974219
-0.037452923
-0.034722647
-0.031789232
-0.028659787
-0.025343282
-0.021849846
-0.018191175
-0.014380365
-0.010431469
-0.0063585057
-0.0021787796
0.002090668
0.0064322601
0.010830735
0.015268536
0.019729258
0.024195895
0.028653825
0.033087803
0.03748484
0.041833577
0.046126981
0.050355658
0.054514823
0.058597989
0.0626039
0.066533022
0.070388003
0.074172679
0.077893673
0.081561187
0.08518563
0.088784322
0.092372075
0.095975998
0.099614039
0.10332792
0.10713371
0.1110955
0.11521315
0.11958627
0.124164
0.12910606
0.13423973
0.13983044
0.14546216
0.15156991
0.15735551
0.16341218
0.16862951
0.17328803
0.17694671
0.17790486
-0.0035895271
0.0003527093
-0.0028252626
-0.0015350533
-0.0031599543
-0.0029586082
-0.0039852817
-0.0042595804
-0.005070396
-0.0055746255
-0.0063266342
-0.0069605808
-0.0077193958
-0.0084405646
-0.0092318291
-0.010020692
-0.01085641
-0.01170567
-0.012591235
-0.013496631
-0.014432029
-0.015389989
-0.016375458
-0.017384793
-0.018420272
-0.019480207
-0.020565754
-0.021676005
-0.022811353
-0.023971055
-0.025154795
-0.026361638
-0.027590582
-0.028840226
-0.030108921
-0.031394646
-0.03269506
-0.034007439
-0.035328697
-0.036655327
-0.037983447
-0.039308682
-0.040626284
-0.041930957
-0.043216976
-0.044478057
-0.045707418
-0.046897709
-0.048041034
-0.049128932
-0.050152393
-0.051101871
-0.051967327
-0.052738278
-0.053403859
-0.053952925
-0.054374139
-0.054656117
-0.054787531
-0.054757299
-0.054554689
-0.054169541
-0.053592354
-0.052814528
-0.051828414
-0.050627577
-0.049206766
-0.047562223
-0.045691538
-0.043594018
-0.0412704
-0.038723308
-0.035956779
-0.03297686
-0.029790888
-0.02640832
-0.022839473
-0.019097289
-0.015194205
-0.011146198
-0.0069704644
-0.0026826663
0.0017013954
0.0061613004
0.010678755
0.015234896
0.019813548
0.02439653
0.028969056
0.033514949
0.038022677
0.0424768
0.046867587
0.051184805
0.055423859
0.059583296
0.063661151
0.067655623
0.071569074
0.075407196
0.07917647
0.082886419
0.086548234
0.090177922
0.093790101
0.097409326
0.10105239
0.10475541
0.10853276
0.11243727
0.11646824
0.12070409
0.12510034
0.1297771
0.13459054
0.13973068
0.14486758
0.1502933
0.15541397
0.16058061
0.16505511
0.16885551
0.17190137
0.17269813
-0.0037294593
0.00042997725
-0.0028656943
-0.0014669644
-0.0031282889
-0.0028700418
-0.0038969243
-0.0041348727
-0.0049297709
-0.0054042277
-0.0061324712
-0.0067376382
-0.0074687153
-0.008161452
-0.0089255028
-0.0096877461
-0.010496985
-0.011319686
-0.012178186
-0.0130573
-0.013967408
-0.014901343
-0.015863852
-0.016851706
-0.017867334
-0.018909297
-0.019978845
-0.021075328
-0.022199276
-0.023350219
-0.024528057
-0.025732153
-0.026961784
-0.028215864
-0.029493053
-0.030791649
-0.03210962
-0.033444535
-0.034793579
-0.036153479
-0.037520545
-0.038890542
-0.040258793
-0.041620006
-0.042968374
-0.044297447
-0.045600185
-0.046868884
-0.048095199
-0.049270127
-0.050384023
-0.051426629
-0.052387111
-0.05325413
-0.054015907
-0.054660347
-0.055175133
-0.055547887
-0.055766291
-0.055818294
-0.055692217
-0.055377008
-0.05486232
-0.05413879
-0.053198061
-0.052033099
-0.050638117
-0.049008949
-0.047142831
-0.045038873
-0.042697648
-0.040121808
-0.037315411
-0.034284792
-0.03103748
-0.02758339
-0.023933634
-0.020100716
-0.016100528
-0.011948234
-0.0076586097
-0.00325401
0.0012485336
0.005829655
0.010471322
0.015152382
0.019855056
0.024559296
0.029249232
0.033907177
0.038520242
0.043075271
0.047562482
0.051973182
0.056299006
0.060531444
0.064670678
0.068719635
0.072682616
0.076561338
0.08036374
0.084100384
0.087781544
0.091423233
0.09504003
0.098654544
0.10228345
0.10595853
0.10969375
0.1135334
0.11747758
0.12158851
0.12582884
0.1302885
0.13484987
0.13964664
0.14442003
0.14935811
0.15402153
0.15859049
0.16257886
0.16582379
0.16845257
0.16906148
-0.00378648
0.00048252749
-0.0028740443
-0.0014026315
-0.0030800915
-0.0027752801
-0.0037946486
-0.0039989082
-0.004775515
-0.0052217096
-0.005927099
-0.0065058829
-0.0072118975
-0.0078779069
-0.0086145561
-0.0093487024
-0.010129487
-0.010924376
-0.011755527
-0.012608058
-0.013492053
-0.014400921
-0.015339511
-0.016304958
-0.017299718
-0.018322683
-0.019375225
-0.020456972
-0.021568641
-0.02271004
-0.023881315
-0.025082127
-0.026312046
-0.027570307
-0.028855887
-0.030167409
-0.031503151
-0.032860986
-0.034238371
-0.035632279
-0.037039216
-0.038455094
-0.039875317
-0.041294604
-0.042707078
-0.044106132
-0.045484476
-0.04683406
-0.048146096
-0.04941104
-0.050618614
-0.051757836
-0.052817068
-0.053784094
-0.054646199
-0.055390304
-0.05600307
-0.056471085
-0.056780988
-0.056919703
-0.056874546
-0.056633517
-0.056185356
-0.055519883
-0.05462797
-0.053501935
-0.052135394
-0.050523734
-0.048663785
-0.046554428
-0.044196031
-0.041591244
-0.038744148
-0.035661272
-0.032350444
-0.028822179
-0.025087341
-0.02116165
-0.017057216
-0.012794584
-0.0083901903
-0.003862638
0.00076873714
0.0054815129
0.010256046
0.015069653
0.019903974
0.02473723
0.02955308
0.034332074
0.039061062
0.043723694
0.048310506
0.05281048
0.057220041
0.061534036
0.065749526
0.069861218
0.073873932
0.077797104
0.081637443
0.085402533
0.089105172
0.092759359
0.0963793
0.099985738
0.10359375
0.10723098
0.11090959
0.11466574
0.11849891
0.12245682
0.12650688
0.13071371
0.13498
0.13939503
0.14375566
0.14817442
0.15233019
0.15629438
0.15976466
0.16249988
0.16474654
0.1652835
-0.0037682357
0.00051739627
-0.0028475408
-0.0013372706
-0.0030137445
-0.0026749441
-0.0036815567
-0.0038564213
-0.004612615
-0.0050309577
-0.0057113921
-0.0062622008
-0.0069408589
-0.0075787979
-0.0082877783
-0.0089943886
-0.009747722
-0.010515368
-0.011319367
-0.012145461
-0.013003806
-0.013888174
-0.01480343
-0.015747055
-0.016721641
-0.01772636
-0.018762747
-0.019830698
-0.020931137
-0.022064157
-0.023230162
-0.024429122
-0.025660911
-0.026925092
-0.028220965
-0.029547484
-0.030903245
-0.032286427
-0.033694765
-0.035125479
-0.036575276
-0.03804022
-0.039515798
-0.040996747
-0.042477119
-0.043950157
-0.045408319
-0.04684321
-0.048245593
-0.049605378
-0.050911637
-0.052152648
-0.053315939
-0.05438839
-0.055356302
-0.056205567
-0.056921769
-0.057490404
-0.057896998
-0.058127386
-0.058167809
-0.058005252
-0.057627476
-0.057023421
-0.056183131
-0.055098231
-0.053761691
-0.052168423
-0.050314813
-0.048199508
-0.045822632
-0.043186881
-0.040296254
-0.037157734
-0.033779085
-0.030171485
-0.026347039
-0.022320795
-0.018109135
-0.013728744
-0.00919809
-0.0045398943
0.00022635046
0.0050766781
0.0099909513
0.014944106
0.019916741
0.024884731
0.029830976
0.03473407
0.039580436
0.044353075
0.049042343
0.053636262
0.058129151
0.062513823
0.066791396
0.070962692
0.075027641
0.07898662
0.082851277
0.086635279
0.090346573
0.094000318
0.097610847
0.10119649
0.1047727
0.10836323
0.11197992
0.1156526
0.11938119
0.1232025
0.12708897
0.13108633
0.13511496
0.13923145
0.14327696
0.14730955
0.15109458
0.15462735
0.15772651
0.16009901
0.16205376
0.1624822
-0.0036960226
0.00053438506
-0.0027957498
-0.0012744569
-0.0029331585
-0.0025700657
-0.0035574406
-0.0037061748
-0.0044398891
-0.0048319973
-0.0054876533
-0.0060119556
-0.0066642543
-0.0072749382
-0.0079562275
-0.0086348401
-0.0093600117
-0.010099875
-0.010876425
-0.011675764
-0.012508008
-0.01336732
-0.014258674
-0.01517987
-0.016133633
-0.017119431
-0.018138979
-0.019192461
-0.020281029
-0.021405071
-0.022565273
-0.023761919
-0.0249952
-0.026265017
-0.027571007
-0.028912464
-0.030288318
-0.031697063
-0.033136732
-0.034604808
-0.036098218
-0.037613198
-0.039145341
-0.040689422
-0.04223945
-0.043788533
-0.045328902
-0.046851832
-0.048347652
-0.049805729
-0.051214489
-0.052561459
-0.053833319
-0.055016014
-0.056094827
-0.057054575
-0.057879707
-0.058554561
-0.05906348
-0.059391138
-0.059522615
-0.059443803
-0.059141401
-0.058603398
-0.057818929
-0.056778863
-0.055475453
-0.053903091
-0.052057656
-0.049937531
-0.047542555
-0.044875404
-0.041940109
-0.038743637
-0.035294466
-0.031604016
-0.027686035
-0.023555582
-0.019227388
-0.014722865
-0.010060268
-0.0052632252
-0.00035243065
0.004645518
0.0097093682
0.014811533
0.019931927
0.025043837
0.030129718
0.03516566
0.040137895
0.045026905
0.049823501
0.054514075
0.059094706
0.063557796
0.067903265
0.072128537
0.076240406
0.080243621
0.084140271
0.087939245
0.091658479
0.095309693
0.098905982
0.1024658
0.10600197
0.10953601
0.11307794
0.11665215
0.12025814
0.12392327
0.12762369
0.13138984
0.13515619
0.13895489
0.1426622
0.1462993
0.14969826
0.15281095
0.1555437
0.15759512
0.1592996
0.15968794
-0.0035818333
0.00053919645
-0.00272027
-0.0012112014
-0.0028383815
-0.0024604486
-0.0034235631
-0.0035496209
-0.004258708
-0.0046252466
-0.0052546373
-0.0057518734
-0.0063766627
-0.0069596067
-0.0076130116
-0.008263864
-0.0089612775
-0.0096736982
-0.010423061
-0.011195898
-0.012002376
-0.012837
-0.013704838
-0.014603997
-0.015537364
-0.016504689
-0.017507888
-0.018547429
-0.019624709
-0.02074042
-0.021895535
-0.023090668
-0.02432634
-0.025602799
-0.026920032
-0.028277688
-0.029675041
-0.031110923
-0.032583674
-0.034091061
-0.035630251
-0.037197669
-0.038789035
-0.040399183
-0.042022095
-0.043650767
-0.045277213
-0.046892393
-0.048486201
-0.050047466
-0.051563951
-0.053022418
-0.054408666
-0.055707663
-0.056903626
-0.057980233
-0.058920727
-0.059708211
-0.060325761
-0.060756798
-0.060985154
-0.060995543
-0.060773513
-0.06030603
-0.059581238
-0.058589204
-0.057321395
-0.055771655
-0.053935298
-0.051810445
-0.049396574
-0.046696454
-0.04371379
-0.040456606
-0.036932137
-0.03315604
-0.029137774
-0.024895243
-0.020444726
-0.015807753
-0.011003789
-0.0060591848
-0.00099523743
0.0041587885
0.0093810177
0.014640709
0.019917114
0.025180293
0.03041235
0.035586484
0.040688994
0.045698201
0.050605223
0.055394641
0.06006261
0.064600352
0.069009533
0.073288241
0.077441359
0.08147172
0.085392591
0.089207325
0.092925445
0.096563913
0.10013907
0.10366409
0.10715455
0.11062776
0.11409411
0.11757342
0.12106559
0.12459108
0.12812961
0.13170052
0.13525005
0.1387927
0.14223181
0.14556248
0.14866428
0.15145988
0.15391147
0.15571609
0.15721428
0.15753509
-0.0034416691
0.00053390555
-0.0026284693
-0.0011487306
-0.0027325482
-0.0023467546
-0.0032806209
-0.0033867039
-0.0040693583
-0.004411603
-0.0050144537
-0.0054854757
-0.0060829901
-0.0066385734
-0.0072640029
-0.0078868945
-0.0085561782
-0.0092408181
-0.0099626824
-0.010708675
-0.01148899
-0.012298463
-0.013142284
-0.014018856
-0.014931236
-0.015879462
-0.016865667
-0.017890611
-0.018955954
-0.020062701
-0.021212134
-0.022405207
-0.023642785
-0.024925482
-0.026253652
-0.027627316
-0.029046117
-0.030509243
-0.032015372
-0.033562582
-0.035148306
-0.036769194
-0.038421125
-0.040099024
-0.04179688
-0.043507605
-0.045223024
-0.0469338
-0.048629413
-0.050298154
-0.051927124
-0.053502303
-0.055008582
-0.056429918
-0.057749402
-0.058949513
-0.060012209
-0.060919278
-0.061652426
-0.062193733
-0.062525673
-0.06263169
-0.062496072
-0.06210468
-0.061444571
-0.060504941
-0.059276388
-0.057752166
-0.055926947
-0.053798577
-0.051366123
-0.048632346
-0.04560112
-0.042279425
-0.038679114
-0.034810701
-0.03068705
-0.026326598
-0.021745567
-0.016968186
-0.012014103
-0.0069120979
-0.0016841685
0.0036370784
0.0090291026
0.014457447
0.019901009
0.025325997
0.030714519
0.036036133
0.041277531
0.046413909
0.051437307
0.056330107
0.061089877
0.065706448
0.070182213
0.074513991
0.078709039
0.082770743
0.086707774
0.090530654
0.094251163
0.097876098
0.10142151
0.10490758
0.10834354
0.11174745
0.11512767
0.11850067
0.1218664
0.12523937
0.12860239
0.1319661
0.13528652
0.1385658
0.14172912
0.14475564
0.14756182
0.15005736
0.15224426
0.15383506
0.15516167
0.1554562
-0.0032846991
0.00052279158
-0.0025228361
-0.0010849665
-0.0026162387
-0.0022284147
-0.0031290623
-0.0032174741
-0.0038718269
-0.0041903242
-0.0047654964
-0.0052101012
-0.0057796036
-0.0063075923
-0.0069048117
-0.0074997771
-0.0081410037
-0.0087979692
-0.0094924169
-0.010211651
-0.010965899
-0.011750319
-0.012570216
-0.013424286
-0.014315764
-0.015244972
-0.016214271
-0.017224717
-0.018278244
-0.01937618
-0.020520127
-0.021711394
-0.022951206
-0.024240558
-0.02558019
-0.026970519
-0.028411576
-0.029902934
-0.031443634
-0.033032093
-0.034666045
-0.036342395
-0.038057215
-0.039805552
-0.041581434
-0.043377716
-0.045186061
-0.046996851
-0.04879916
-0.050580744
-0.05232803
-0.054026192
-0.055659177
-0.057209877
-0.058660196
-0.059991335
-0.061183876
-0.062218194
-0.063074519
-0.063733483
-0.064176083
-0.064384396
-0.064341339
-0.064031585
-0.063441008
-0.062557882
-0.061371851
-0.059875561
-0.058062974
-0.055931656
-0.053480174
-0.050711425
-0.047628337
-0.044241617
-0.040559396
-0.036594126
-0.032358526
-0.02787266
-0.023153224
-0.01822629