/*--------------------------------*- C++ -*----------------------------------*\
| =========                 |                                                 |
| \\      /  F ield         | foam-extend: Open Source CFD                    |
|  \\    /   O peration     | Version:     4.1                                |
|   \\  /    A nd           | Web:         http://www.foam-extend.org         |
|    \\/     M anipulation  |                                                 |
\*---------------------------------------------------------------------------*/
FoamFile
{
    version     2.0;
    format      ascii;
    class       volScalarField;
    location    "2.7";
    object      rAU;
}
// * * * * * * * * * * * * * * * * * * * * * * * * * * * * * * * * * * * * * //

dimensions      [0 0 1 0 0 0 0];

internalField   nonuniform List<scalar> 
16126
(
0.00049581098
0.00049539332
0.00049539616
0.00049539793
0.00049540059
0.000495403
0.00049540587
0.00049540881
0.00049541196
0.00049541526
0.00049541866
0.00049542217
0.00049542571
0.00049542929
0.00049543284
0.00049543635
0.00049543974
0.00049544302
0.0004954461
0.00049544899
0.00049545161
0.00049545395
0.00049545595
0.00049545761
0.00049545887
0.00049545969
0.00049545973
0.00049545889
0.0004954575
0.00049545557
0.00049545306
0.00049544997
0.00049544625
0.00049544186
0.00049543679
0.00049543099
0.00049542443
0.00049541708
0.00049540892
0.0004953999
0.00049539003
0.00049537926
0.0004953676
0.00049535503
0.00049534154
0.00049532714
0.00049531184
0.00049529565
0.0004952786
0.00049526072
0.00049524204
0.00049522261
0.00049520247
0.00049518168
0.00049516031
0.00049513842
0.00049511608
0.00049509337
0.00049507037
0.00049504718
0.00049502387
0.00049500053
0.00049497727
0.00049495418
0.00049493134
0.00049490885
0.0004948868
0.00049486527
0.00049484435
0.0004948241
0.0004948046
0.00049478589
0.00049476804
0.00049475107
0.00049473502
0.00049471989
0.00049470568
0.00049469239
0.00049467998
0.00049466842
0.00049465765
0.0004946476
0.00049463819
0.00049462932
0.00049462088
0.00049461276
0.00049460482
0.00049459693
0.00049458892
0.00049458063
0.0004945719
0.00049456253
0.00049455235
0.00049454113
0.00049452868
0.00049451475
0.00049449911
0.00049448148
0.00049446156
0.00049443903
0.00049441348
0.00049438447
0.00049435142
0.00049431362
0.00049427016
0.00049421979
0.00049416091
0.00049409128
0.000494008
0.00049390704
0.00049378336
0.00049363018
0.00049343956
0.0004932013
0.00049290473
0.00049253681
0.00049208655
0.00049154041
0.0004908933
0.00049013377
0.00048928029
0.00048831485
0.00048738602
0.00048591085
0.00049496475
0.00049454831
0.00049455414
0.00049455746
0.00049456305
0.00049456797
0.00049457392
0.00049457995
0.00049458644
0.00049459319
0.00049460012
0.00049460726
0.0004946144
0.00049462162
0.0004946287
0.00049463567
0.00049464233
0.0004946487
0.00049465455
0.00049465987
0.0004946645
0.00049466841
0.00049467141
0.00049467336
0.0004946738
0.0004946713
0.00049466725
0.00049466163
0.00049465468
0.00049464634
0.0004946365
0.00049462512
0.00049461215
0.00049459746
0.00049458106
0.00049456284
0.00049454278
0.00049452078
0.00049449684
0.00049447088
0.00049444292
0.00049441287
0.00049438078
0.00049434662
0.00049431043
0.00049427223
0.00049423207
0.00049419003
0.00049414619
0.00049410065
0.00049405354
0.00049400497
0.00049395512
0.00049390414
0.0004938522
0.00049379949
0.00049374622
0.00049369257
0.00049363877
0.00049358501
0.00049353151
0.00049347848
0.00049342612
0.00049337463
0.00049332418
0.00049327496
0.00049322713
0.00049318082
0.00049313617
0.00049309326
0.00049305219
0.000493013
0.00049297574
0.00049294039
0.00049290694
0.00049287533
0.00049284548
0.00049281727
0.00049279058
0.00049276524
0.00049274104
0.00049271777
0.00049269519
0.00049267302
0.00049265097
0.00049262873
0.00049260595
0.00049258229
0.00049255737
0.00049253079
0.00049250214
0.00049247098
0.00049243686
0.00049239929
0.00049235775
0.0004923117
0.00049226054
0.00049220364
0.00049214028
0.00049206969
0.000491991
0.00049190321
0.00049180521
0.00049169569
0.00049157317
0.00049143591
0.00049128194
0.00049110894
0.00049091443
0.00049069545
0.00049044922
0.00049017245
0.00048986297
0.00048951814
0.00048913855
0.00048872423
0.0004882827
0.00048781914
0.00048735605
0.00048690387
0.00048652206
0.00048620622
0.00048615529
0.00048575119
0.00049328836
0.00049287255
0.0004928794
0.00049288247
0.00049288881
0.00049289405
0.00049290061
0.00049290713
0.00049291414
0.00049292136
0.0004929287
0.0004929362
0.00049294359
0.00049295096
0.00049295802
0.0004929648
0.00049297103
0.00049297674
0.00049298166
0.00049298578
0.00049298878
0.00049299056
0.00049299091
0.0004929867
0.00049298025
0.00049297068
0.00049295947
0.00049294649
0.00049293155
0.00049291461
0.00049289552
0.00049287424
0.00049285072
0.0004928248
0.00049279653
0.00049276574
0.00049273248
0.00049269661
0.00049265818
0.0004926171
0.00049257343
0.0004925271
0.0004924782
0.00049242676
0.00049237284
0.00049231654
0.00049225797
0.00049219726
0.00049213457
0.00049207009
0.000492004
0.00049193652
0.00049186789
0.00049179835
0.00049172817
0.00049165759
0.0004915869
0.00049151637
0.00049144625
0.00049137683
0.00049130836
0.00049124107
0.00049117521
0.00049111099
0.00049104859
0.00049098819
0.00049092995
0.00049087396
0.00049082033
0.00049076911
0.00049072034
0.00049067399
0.00049063004
0.00049058842
0.00049054901
0.00049051168
0.00049047625
0.00049044253
0.00049041028
0.00049037923
0.0004903491
0.00049031956
0.00049029028
0.0004902609
0.00049023104
0.0004902003
0.00049016826
0.00049013451
0.00049009859
0.00049006007
0.00049001849
0.00048997338
0.00048992427
0.00048987068
0.00048981212
0.00048974808
0.00048967805
0.00048960151
0.00048951792
0.00048942669
0.00048932726
0.00048921898
0.00048910122
0.00048897327
0.00048883441
0.00048868384
0.00048852081
0.00048834445
0.00048815412
0.00048794907
0.0004877292
0.00048749435
0.00048724605
0.00048698578
0.00048671867
0.00048644938
0.00048619006
0.00048594926
0.00048575228
0.00048560759
0.0004855706
0.00048562442
0.00048592357
0.00048589635
0.00049179614
0.00049137919
0.00049138523
0.00049138635
0.00049139139
0.00049139488
0.0004913998
0.00049140442
0.00049140946
0.00049141451
0.00049141952
0.0004914245
0.00049142918
0.00049143365
0.00049143761
0.00049144113
0.00049144391
0.00049144596
0.00049144693
0.00049144682
0.0004914454
0.00049143882
0.00049142997
0.00049141672
0.00049140143
0.00049138434
0.00049136516
0.00049134387
0.00049132025
0.00049129434
0.00049126593
0.00049123505
0.00049120163
0.00049116552
0.00049112679
0.00049108528
0.00049104109
0.00049099407
0.00049094434
0.0004908918
0.00049083659
0.00049077868
0.0004907182
0.00049065522
0.00049058989
0.00049052233
0.00049045273
0.00049038129
0.00049030822
0.00049023375
0.00049015814
0.00049008166
0.00049000459
0.00048992722
0.00048984985
0.00048977276
0.00048969625
0.00048962062
0.00048954613
0.00048947306
0.00048940165
0.00048933214
0.00048926472
0.0004891996
0.00048913692
0.00048907681
0.00048901937
0.00048896467
0.00048891274
0.00048886358
0.00048881716
0.0004887734
0.00048873222
0.00048869348
0.000488657
0.00048862261
0.00048859006
0.00048855911
0.0004885295
0.00048850091
0.00048847303
0.00048844552
0.00048841804
0.00048839022
0.00048836169
0.00048833208
0.00048830101
0.0004882681
0.00048823298
0.00048819528
0.00048815465
0.00048811073
0.00048806319
0.00048801171
0.00048795598
0.00048789571
0.00048783061
0.00048776045
0.00048768498
0.00048760397
0.00048751723
0.00048742456
0.0004873258
0.00048722082
0.00048710949
0.00048699173
0.00048686755
0.00048673697
0.00048660032
0.00048645798
0.00048631102
0.00048616066
0.00048600972
0.0004858611
0.00048572097
0.00048559481
0.0004854945
0.00048542732
0.00048541456
0.00048545862
0.00048560026
0.00048581099
0.00048618823
0.00048618984
0.00049052269
0.00049010341
0.0004901071
0.00049010486
0.00049010685
0.0004901069
0.00049010831
0.00049010914
0.00049011025
0.00049011116
0.00049011187
0.00049011238
0.00049011246
0.0004901122
0.0004901113
0.00049010981
0.00049010745
0.00049010433
0.00049009998
0.00049008974
0.00049007824
0.00049006183
0.00049004312
0.00049002271
0.00049000028
0.00048997582
0.0004899491
0.00048992021
0.00048988893
0.00048985533
0.0004898192
0.0004897806
0.00048973947
0.00048969567
0.00048964932
0.00048960026
0.00048954863
0.00048949431
0.00048943746
0.00048937802
0.00048931619
0.00048925194
0.00048918549
0.00048911694
0.00048904649
0.00048897432
0.00048890065
0.00048882573
0.0004887498
0.00048867315
0.00048859604
0.00048851879
0.00048844168
0.00048836503
0.00048828913
0.00048821426
0.00048814073
0.0004880688
0.00048799872
0.00048793075
0.00048786509
0.00048780194
0.00048774146
0.0004876838
0.00048762906
0.00048757732
0.00048752863
0.00048748301
0.00048744043
0.00048740084
0.00048736417
0.0004873303
0.00048729909
0.00048727037
0.00048724393
0.00048721957
0.00048719703
0.00048717605
0.00048715635
0.00048713762
0.00048711957
0.00048710187
0.00048708421
0.00048706625
0.00048704769
0.00048702819
0.00048700747
0.00048698521
0.00048696114
0.00048693499
0.00048690653
0.00048687552
0.00048684178
0.00048680512
0.0004867654
0.00048672251
0.00048667635
0.00048662685
0.00048657399
0.00048651774
0.00048645814
0.00048639522
0.00048632907
0.00048625981
0.0004861876
0.00048611264
0.00048603525
0.00048595582
0.00048587501
0.00048579359
0.00048571299
0.00048563475
0.00048556178
0.00048549693
0.00048544567
0.00048541233
0.00048540631
0.00048543186
0.00048550466
0.00048562249
0.00048581472
0.00048605411
0.00048640435
0.00048636763
0.00048947714
0.00048905495
0.0004890551
0.00048904864
0.00048904649
0.00048904209
0.00048903897
0.00048903509
0.00048903137
0.0004890273
0.00048902295
0.0004890183
0.00048901315
0.00048900765
0.00048900156
0.00048899502
0.00048898452
0.00048897161
0.00048895756
0.00048893774
0.00048891646
0.00048889363
0.00048886894
0.0004888424
0.00048881382
0.00048878329
0.00048875062
0.0004887159
0.00048867892
0.00048863979
0.0004885983
0.00048855454
0.00048850847
0.00048845997
0.00048840918
0.00048835598
0.00048830054
0.00048824276
0.00048818286
0.00048812079
0.00048805682
0.00048799093
0.0004879234
0.00048785436
0.00048778405
0.00048771267
0.00048764049
0.00048756778
0.0004874948
0.00048742185
0.00048734922
0.00048727721
0.00048720611
0.00048713623
0.00048706784
0.00048700123
0.00048693664
0.00048687433
0.00048681451
0.00048675739
0.00048670314
0.0004866519
0.00048660381
0.00048655894
0.00048651735
0.00048647908
0.00048644413
0.00048641246
0.00048638401
0.00048635868
0.00048633636
0.00048631688
0.0004863001
0.0004862858
0.00048627376
0.00048626375
0.00048625551
0.00048624878
0.00048624327
0.0004862387
0.00048623477
0.0004862312
0.00048622768
0.00048622394
0.00048621969
0.00048621468
0.00048620866
0.00048620139
0.00048619267
0.0004861823
0.00048617015
0.00048615606
0.00048613993
0.00048612169
0.00048610128
0.00048607869
0.00048605393
0.00048602704
0.00048599808
0.00048596715
0.00048593435
0.00048589985
0.00048586382
0.00048582647
0.00048578805
0.00048574887
0.00048570934
0.00048566992
0.00048563133
0.00048559438
0.00048556043
0.00048553091
0.00048550835
0.00048549512
0.00048549566
0.00048551315
0.00048555482
0.00048562296
0.00048572924
0.00048586961
0.00048606501
0.00048629172
0.0004865896
0.00048649097
0.00048864943
0.00048822518
0.00048822139
0.0004882107
0.00048820417
0.00048819526
0.00048818753
0.00048817894
0.00048817049
0.00048816169
0.00048815265
0.00048814339
0.00048813319
0.0004881195
0.00048810502
0.00048808998
0.00048807096
0.00048804934
0.00048802633
0.00048800193
0.00048797587
0.00048794821
0.00048791874
0.0004878876
0.00048785461
0.00048781988
0.0004877832
0.00048774472
0.00048770423
0.00048766185
0.0004876174
0.00048757099
0.00048752261
0.00048747214
0.00048741978
0.0004873654
0.00048730923
0.00048725119
0.00048719154
0.00048713023
0.0004870676
0.00048700365
0.00048693868
0.00048687286
0.00048680644
0.00048673966
0.00048667279
0.00048660611
0.0004865399
0.00048647445
0.00048641005
0.00048634699
0.00048628556
0.00048622602
0.00048616864
0.00048611366
0.0004860613
0.00048601177
0.00048596525
0.00048592191
0.00048588185
0.00048584519
0.00048581199
0.00048578231
0.00048575614
0.00048573346
0.00048571425
0.00048569841
0.00048568584
0.00048567642
0.00048566997
0.00048566633
0.0004856653
0.00048566665
0.00048567015
0.00048567554
0.00048568256
0.00048569094
0.00048570041
0.00048571068
0.00048572147
0.0004857325
0.00048574352
0.00048575425
0.00048576445
0.0004857739
0.00048578239
0.00048578973
0.00048579577
0.00048580036
0.0004858034
0.00048580482
0.00048580455
0.00048580257
0.0004857989
0.00048579355
0.00048578658
0.00048577809
0.00048576815
0.0004857569
0.00048574448
0.00048573105
0.0004857168
0.00048570194
0.00048568673
0.00048567145
0.00048565648
0.00048564226
0.00048562944
0.00048561874
0.00048561135
0.00048560848
0.00048561225
0.00048562455
0.00048564893
0.00048568771
0.00048574658
0.00048582682
0.00048593755
0.00048607496
0.0004862547
0.00048645867
0.00048671133
0.00048656487
0.0004880102
0.00048759361
0.00048758373
0.00048757197
0.00048756092
0.00048754863
0.00048753563
0.00048752211
0.00048750791
0.00048749323
0.00048747792
0.00048746219
0.00048744533
0.00048742478
0.00048740309
0.00048738034
0.0004873563
0.00048733105
0.00048730434
0.00048727628
0.00048724668
0.0004872157
0.00048718313
0.00048714912
0.00048711346
0.00048707632
0.00048703749
0.00048699714
0.00048695506
0.00048691141
0.00048686602
0.00048681902
0.00048677043
0.00048672014
0.00048666838
0.00048661505
0.0004865604
0.00048650437
0.00048644726
0.00048638904
0.00048633007
0.00048627036
0.00048621026
0.00048614994
0.00048608965
0.00048602965
0.00048597022
0.00048591164
0.00048585417
0.0004857981
0.0004857437
0.00048569126
0.00048564101
0.00048559321
0.00048554809
0.00048550585
0.00048546669
0.00048543075
0.00048539818
0.00048536911
0.00048534359
0.00048532169
0.00048530343
0.00048528882
0.0004852778
0.00048527033
0.00048526632
0.00048526565
0.00048526818
0.00048527375
0.00048528216
0.00048529322
0.00048530671
0.00048532237
0.00048533997
0.00048535924
0.00048537991
0.00048540169
0.00048542433
0.00048544754
0.00048547105
0.00048549458
0.0004855179
0.00048554076
0.00048556294
0.00048558423
0.00048560445
0.00048562344
0.00048564107
0.00048565723
0.00048567186
0.00048568489
0.0004856963
0.0004857061
0.00048571431
0.00048572099
0.00048572621
0.00048573006
0.00048573265
0.00048573412
0.00048573459
0.00048573424
0.00048573325
0.00048573181
0.00048573017
0.00048572859
0.00048572742
0.00048572708
0.00048572815
0.0004857313
0.00048573758
0.00048574806
0.00048576458
0.00048578874
0.00048582352
0.00048587081
0.00048593521
0.00048601759
0.00048612501
0.00048625395
0.0004864154
0.00048659508
0.000486807
0.00048661745
0.00048753002
0.00048712018
0.00048710414
0.00048709222
0.00048707667
0.00048706175
0.0004870445
0.00048702714
0.00048700835
0.00048698895
0.00048696841
0.00048694706
0.00048692464
0.0004869013
0.00048687681
0.00048685129
0.00048682454
0.00048679669
0.00048676756
0.0004867373
0.00048670569
0.00048667289
0.00048663872
0.00048660332
0.00048656652
0.00048652849
0.00048648902
0.0004864483
0.00048640613
0.00048636272
0.00048631787
0.00048627176
0.00048622442
0.00048617577
0.00048612606
0.00048607518
0.00048602345
0.00048597079
0.00048591754
0.00048586367
0.00048580957
0.00048575526
0.00048570109
0.00048564724
0.00048559397
0.00048554154
0.0004854902
0.00048544024
0.00048539191
0.00048534548
0.00048530119
0.0004852593
0.00048522003
0.00048518361
0.00048515021
0.00048512002
0.00048509317
0.0004850698
0.00048505
0.00048503385
0.00048502138
0.00048501261
0.00048500752
0.00048500607
0.0004850082
0.00048501379
0.00048502275
0.00048503492
0.00048505013
0.0004850682
0.00048508891
0.00048511205
0.00048513738
0.00048516464
0.00048519358
0.00048522392
0.00048525538
0.0004852877
0.0004853206
0.00048535379
0.00048538703
0.00048542004
0.00048545258
0.00048548443
0.00048551537
0.0004855452
0.00048557378
0.00048560095
0.00048562659
0.00048565061
0.00048567297
0.00048569362
0.00048571255
0.00048572978
0.00048574535
0.00048575932
0.00048577177
0.0004857828
0.00048579252
0.00048580106
0.00048580855
0.00048581516
0.00048582104
0.00048582642
0.00048583149
0.00048583654
0.00048584189
0.00048584795
0.00048585528
0.00048586452
0.00048587664
0.00048589263
0.00048591413
0.00048594255
0.00048598046
0.00048602942
0.00048609328
0.00048617264
0.00048627307
0.00048639162
0.00048653598
0.00048669515
0.00048687625
0.00048665385
0.00048718717
0.00048677428
0.00048675546
0.00048674115
0.00048672244
0.00048670486
0.00048668516
0.00048666538
0.00048664427
0.00048662263
0.00048659993
0.00048657651
0.00048655208
0.00048652682
0.00048650054
0.0004864734
0.00048644519
0.00048641605
0.00048638579
0.00048635455
0.00048632215
0.00048628875
0.00048625417
0.00048621857
0.00048618177
0.00048614394
0.00048610491
0.00048606487
0.00048602364
0.00048598143
0.00048593807
0.00048589374
0.00048584851
0.00048580229
0.00048575537
0.00048570765
0.00048565944
0.0004856107
0.00048556178
0.00048551265
0.00048546371
0.00048541499
0.00048536682
0.0004853194
0.00048527297
0.00048522779
0.0004851841
0.00048514216
0.00048510222
0.00048506451
0.00048502927
0.00048499672
0.00048496704
0.00048494045
0.00048491708
0.00048489708
0.00048488057
0.00048486764
0.00048485835
0.00048485275
0.00048485083
0.0004848526
0.00048485799
0.00048486696
0.00048487939
0.00048489516
0.00048491416
0.0004849362
0.0004849611
0.00048498866
0.00048501865
0.00048505085
0.00048508501
0.00048512086
0.00048515814
0.00048519658
0.0004852359
0.00048527581
0.00048531606
0.00048535635
0.00048539643
0.00048543603
0.00048547493
0.00048551289
0.0004855497
0.00048558519
0.00048561919
0.00048565157
0.00048568222
0.00048571106
0.00048573805
0.00048576316
0.00048578638
0.00048580773
0.00048582728
0.00048584508
0.00048586123
0.00048587584
0.00048588901
0.00048590089
0.00048591163
0.00048592138
0.00048593034
0.0004859387
0.00048594672
0.00048595466
0.00048596289
0.00048597181
0.00048598198
0.00048599404
0.00048600892
0.00048602755
0.00048605141
0.00048608177
0.00048612084
0.00048616993
0.00048623216
0.00048630789
0.00048640125
0.00048650962
0.00048663795
0.00048677766
0.00048693183
0.00048668151
0.00048695053
0.00048653447
0.00048651435
0.00048649778
0.00048647749
0.0004864581
0.00048643684
0.00048641551
0.00048639299
0.00048637003
0.00048634613
0.00048632163
0.00048629626
0.0004862702
0.00048624324
0.00048621554
0.00048618689
0.00048615745
0.00048612702
0.00048609578
0.00048606352
0.00048603041
0.00048599626
0.00048596125
0.0004859252
0.00048588831
0.00048585038
0.00048581164
0.00048577191
0.0004857314
0.00048568998
0.00048564784
0.00048560504
0.00048556151
0.00048551756
0.00048547309
0.00048542844
0.00048538355
0.00048533878
0.00048529411
0.00048524994
0.00048520629
0.0004851635
0.00048512174
0.00048508127
0.0004850423
0.00048500508
0.00048496986
0.00048493685
0.00048490627
0.00048487833
0.00048485323
0.00048483115
0.00048481224
0.00048479665
0.00048478449
0.00048477585
0.0004847708
0.00048476938
0.00048477163
0.00048477751
0.00048478701
0.00048480005
0.00048481657
0.00048483644
0.00048485954
0.00048488573
0.00048491481
0.0004849466
0.0004849809
0.00048501747
0.00048505606
0.00048509645
0.00048513835
0.00048518151
0.00048522563
0.00048527044
0.00048531565
0.000485361
0.0004854062
0.00048545098
0.0004854951
0.00048553829
0.00048557642
0.00048561103
0.00048564635
0.00048568225
0.00048571859
0.00048575526
0.00048579213
0.00048582799
0.00048585554
0.00048588103
0.0004859045
0.000485926
0.00048594561
0.00048596342
0.00048597956
0.00048599414
0.00048600733
0.00048601928
0.00048603016
0.00048604018
0.00048604957
0.00048605858
0.00048606751
0.00048607673
0.00048608666
0.00048609787
0.00048611099
0.00048612688
0.00048614644
0.000486171
0.00048620168
0.00048624037
0.00048628818
0.00048634761
0.0004864189
0.0004865051
0.00048660399
0.00048671862
0.00048684231
0.00048697547
0.00048670289
0.00048679237
0.00048637364
0.000486353
0.0004863349
0.00048631386
0.00048629349
0.00048627157
0.00048624957
0.00048622655
0.00048620317
0.00048617897
0.00048615426
0.00048612878
0.00048610272
0.00048607585
0.00048604836
0.00048602003
0.00048599102
0.00048596112
0.0004859305
0.00048589896
0.00048586668
0.00048583346
0.00048579951
0.00048576462
0.00048572901
0.0004856925
0.0004856553
0.00048561726
0.00048557861
0.00048553919
0.00048549923
0.00048545879
0.00048541782
0.00048537662
0.0004853351
0.0004852936
0.00048525207
0.00048521086
0.00048516997
0.00048512976
0.00048509027
0.00048505183
0.00048501459
0.0004849788
0.00048494468
0.00048491244
0.00048488231
0.0004848545
0.00048482922
0.00048480664
0.00048478697
0.00048477034
0.00048475692
0.00048474683
0.00048474016
0.000484737
0.00048473741
0.00048474141
0.00048474903
0.00048476024
0.000484775
0.00048479325
0.0004848149
0.00048483983
0.00048486792
0.00048489901
0.00048493291
0.00048496944
0.00048500838
0.00048504951
0.00048509257
0.00048513732
0.00048518349
0.00048523079
0.00048527896
0.0004853277
0.00048537672
0.00048542576
0.0004854745
0.00048551641
0.00048555008
0.00048558484
0.00048561667
0.00048564713
0.00048568055
0.00048571679
0.0004857557
0.00048579713
0.00048584089
0.00048588569
0.00048592415
0.00048596242
0.00048600045
0.00048602527
0.0004860456
0.00048606402
0.00048608066
0.00048609565
0.00048610917
0.0004861214
0.00048613254
0.0004861428
0.00048615244
0.00048616174
0.00048617101
0.00048618064
0.00048619107
0.00048620286
0.00048621662
0.00048623317
0.00048625333
0.00048627829
0.00048630903
0.00048634713
0.00048639349
0.00048645005
0.0004865169
0.00048659615
0.00048668584
0.00048678768
0.00048689643
0.00048701126
0.00048671995
0.00048669
0.00048626928
0.00048624878
0.00048622985
0.00048620877
0.00048618811
0.00048616621
0.00048614423
0.00048612139
0.00048609824
0.00048607438
0.00048605011
0.00048602513
0.00048599966
0.00048597346
0.0004859467
0.00048591915
0.00048589099
0.000485862
0.00048583236
0.00048580185
0.00048577067
0.00048573862
0.00048570589
0.0004856723
0.00048563806
0.00048560299
0.00048556733
0.00048553091
0.00048549398
0.00048545639
0.00048541836
0.00048537997
0.00048534116
0.00048530224
0.00048526313
0.00048522416
0.00048518528
0.00048514684
0.00048510883
0.00048507162
0.00048503522
0.00048499996
0.000484966
0.00048493355
0.00048490283
0.00048487404
0.00048484741
0.00048482313
0.00048480138
0.00048478236
0.00048476624
0.00048475316
0.00048474328
0.0004847367
0.00048473353
0.00048473385
0.00048473771
0.00048474515
0.00048475619
0.00048477079
0.00048478893
0.00048481054
0.00048483553
0.00048486381
0.00048489521
0.00048492962
0.00048496683
0.00048500665
0.00048504887
0.00048509326
0.00048513956
0.00048518753
0.00048523688
0.00048528733
0.00048533859
0.00048539037
0.00048544236
0.00048548917
0.00048552151
0.00048554899
0.00048557034
0.00048559503
0.00048562301
0.0004856542
0.00048568849
0.00048572573
0.00048576576
0.0004858084
0.00048585344
0.0004859007
0.00048594994
0.00048600096
0.00048605354
0.00048609458
0.00048613268
0.0004861589
0.00048617559
0.00048619057
0.00048620401
0.00048621612
0.00048622712
0.00048623723
0.00048624675
0.00048625595
0.00048626517
0.00048627482
0.00048628532
0.00048629723
0.00048631113
0.00048632779
0.00048634797
0.00048637269
0.00048640283
0.0004864397
0.00048648403
0.00048653733
0.0004865996
0.00048667228
0.00048675372
0.00048684464
0.00048694091
0.00048704086
0.00048673404
0.00048662596
0.0004862039
0.00048618401
0.0004861648
0.0004861442
0.00048612378
0.00048610242
0.00048608095
0.00048605877
0.00048603631
0.00048601322
0.00048598975
0.00048596564
0.00048594108
0.00048591582
0.00048589004
0.00048586352
0.00048583641
0.0004858085
0.00048577996
0.00048575058
0.00048572055
0.00048568968
0.00048565816
0.00048562581
0.00048559284
0.00048555909
0.00048552477
0.00048548974
0.00048545425
0.00048541815
0.00048538167
0.00048534488
0.00048530774
0.00048527054
0.00048523321
0.00048519608
0.00048515909
0.0004851226
0.00048508657
0.00048505139
0.00048501705
0.00048498388
0.00048495202
0.00048492169
0.00048489309
0.00048486642
0.0004848419
0.00048481971
0.00048480005
0.00048478309
0.00048476901
0.00048475796
0.00048475009
0.00048474552
0.00048474435
0.00048474667
0.00048475254
0.000484762
0.00048477507
0.00048479175
0.000484812
0.00048483576
0.00048486296
0.00048489348
0.0004849272
0.00048496396
0.00048500359
0.00048504589
0.00048509063
0.00048513758
0.00048518649
0.00048523709
0.0004852891
0.00048534221
0.00048539612
0.00048545053
0.00048548939
0.00048551601
0.00048553017
0.00048554789
0.0004855692
0.00048559406
0.00048562242
0.00048565416
0.00048568916
0.00048572726
0.00048576829
0.00048581204
0.0004858583
0.00048590683
0.00048595738
0.00048600973
0.00048606362
0.00048611885
0.00048617518
0.00048622103
0.00048625863
0.00048627854
0.00048629174
0.00048630359
0.00048631431
0.00048632416
0.00048633345
0.00048634247
0.00048635157
0.00048636116
0.00048637167
0.00048638362
0.00048639759
0.00048641425
0.00048643432
0.00048645867
0.00048648805
0.00048652354
0.00048656571
0.00048661567
0.00048667335
0.00048673964
0.00048681311
0.00048689388
0.00048697869
0.00048706561
0.00048674567
0.00048658727
0.00048616447
0.00048614549
0.00048612644
0.00048610664
0.00048608679
0.00048606628
0.00048604561
0.00048602434
0.00048600282
0.00048598071
0.00048595826
0.00048593519
0.00048591168
0.00048588749
0.00048586279
0.00048583735
0.00048581132
0.0004857845
0.00048575704
0.00048572874
0.00048569979
0.00048567
0.00048563955
0.00048560827
0.00048557638
0.0004855437
0.00048551047
0.00048547654
0.00048544214
0.00048540716
0.0004853718
0.00048533616
0.00048530017
0.00048526414
0.00048522798
0.00048519204
0.00048515624
0.00048512095
0.00048508611
0.00048505212
0.00048501895
0.00048498694
0.00048495621
0.00048492699
0.00048489948
0.00048487386
0.00048485037
0.00048482918
0.00048481049
0.00048479449
0.00048478134
0.00048477123
0.00048476429
0.00048476067
0.00048476047
0.00048476379
0.00048477072
0.00048478129
0.00048479555
0.0004848135
0.0004848351
0.00048486032
0.00048488907
0.00048492126
0.00048495675
0.0004849954
0.00048503702
0.00048508142
0.00048512836
0.0004851776
0.00048522888
0.00048528192
0.00048533641
0.00048539206
0.00048544853
0.00048548365
0.00048549864
0.00048550847
0.00048552206
0.00048553946
0.00048556067
0.00048558565
0.00048561433
0.00048564659
0.00048568231
0.0004857213
0.00048576337
0.00048580829
0.00048585581
0.00048590568
0.00048595763
0.0004860114
0.00048606672
0.00048612334
0.00048618102
0.00048623952
0.00048629867
0.0004863412
0.00048637367
0.00048638513
0.00048639545
0.00048640492
0.00048641382
0.00048642249
0.00048643128
0.00048644059
0.00048645084
0.00048646255
0.00048647624
0.00048649254
0.00048651208
0.00048653563
0.00048656384
0.00048659757
0.00048663727
0.0004866838
0.00048673699
0.00048679739
0.00048686373
0.00048693575
0.00048701079
0.00048708679
0.00048675564
0.0004865647
0.00048614165
0.00048612374
0.00048610511
0.00048608629
0.00048606722
0.00048604771
0.00048602797
0.00048600775
0.00048598725
0.00048596621
0.00048594481
0.00048592281
0.00048590036
0.00048587723
0.00048585358
0.00048582916
0.00048580415
0.00048577832
0.00048575183
0.00048572449
0.00048569647
0.00048566758
0.00048563802
0.0004856076
0.00048557655
0.0004855447
0.00048551227
0.00048547912
0.00048544549
0.00048541126
0.00048537664
0.00048534171
0.00048530642
0.00048527108
0.00048523559
0.00048520028
0.00048516509
0.00048513038
0.0004850961
0.00048506262
0.00048502993
0.00048499835
0.00048496803
0.00048493916
0.00048491196
0.00048488663
0.00048486338
0.00048484241
0.00048482393
0.00048480812
0.00048479517
0.00048478526
0.00048477857
0.00048477522
0.00048477536
0.00048477909
0.00048478651
0.00048479768
0.00048481266
0.00048483144
0.00048485401
0.00048488034
0.00048491036
0.00048494397
0.00048498103
0.0004850214
0.00048506489
0.00048511128
0.00048516036
0.00048521186
0.00048526551
0.00048532101
0.00048537804
0.00048543628
0.00048547233
0.00048547987
0.00048548491
0.00048549389
0.00048550687
0.00048552391
0.00048554499
0.00048557008
0.00048559911
0.00048563194
0.00048566844
0.00048570839
0.00048575158
0.00048579776
0.00048584666
0.000485898
0.00048595147
0.00048600678
0.00048606365
0.00048612178
0.00048618092
0.00048624082
0.00048630125
0.000486362
0.00048641868
0.00048645498
0.00048647161
0.0004864806
0.00048648907
0.00048649732
0.00048650572
0.00048651467
0.00048652458
0.00048653593
0.00048654923
0.00048656503
0.0004865839
0.00048660651
0.00048663338
0.00048666521
0.00048670235
0.00048674538
0.00048679412
0.00048684883
0.00048690839
0.00048697229
0.00048703843
0.00048710483
0.00048676409
0.00048655193
0.00048612901
0.00048611221
0.00048609417
0.0004860764
0.00048605817
0.00048603969
0.00048602093
0.00048600174
0.00048598226
0.00048596226
0.00048594188
0.0004859209
0.00048589945
0.00048587729
0.00048585459
0.0004858311
0.00048580698
0.000485782
0.00048575635
0.0004857298
0.00048570254
0.00048567437
0.0004856455
0.00048561574
0.0004855853
0.00048555403
0.00048552215
0.00048548951
0.00048545637
0.00048542258
0.00048538836
0.00048535381
0.00048531885
0.0004852838
0.00048524856
0.00048521346
0.00048517844
0.00048514385
0.00048510963
0.00048507617
0.00048504345
0.00048501179
0.00048498134
0.0004849523
0.00048492488
0.00048489929
0.00048487577
0.0004848545
0.00048483571
0.0004848196
0.00048480637
0.00048479622
0.00048478934
0.00048478588
0.00048478599
0.0004847898
0.00048479741
0.00048480891
0.00048482437
0.00048484379
0.00048486718
0.0004848945
0.0004849257
0.00048496066
0.00048499926
0.00048504135
0.00048508673
0.00048513519
0.00048518648
0.00048524033
0.00048529645
0.00048535455
0.00048541426
0.00048545628
0.00048546099
0.00048546083
0.00048546472
0.00048547281
0.00048548517
0.00048550184
0.00048552282
0.00048554806
0.00048557749
0.00048561097
0.00048564833
0.00048568935
0.00048573379
0.00048578137
0.00048583179
0.00048588474
0.00048593988
0.00048599689
0.00048605546
0.00048611525
0.000486176
0.0004862374
0.00048629924
0.00048636126
0.00048642329
0.00048648514
0.00048652766
0.00048655209
0.00048655995
0.00048656761
0.00048657543
0.00048658381
0.00048659314
0.00048660388
0.00048661651
0.00048663152
0.00048664942
0.00048667078
0.00048669604
0.00048672577
0.00048676022