/*--------------------------------*- C++ -*----------------------------------*\
| =========                 |                                                 |
| \\      /  F ield         | foam-extend: Open Source CFD                    |
|  \\    /   O peration     | Version:     4.1                                |
|   \\  /    A nd           | Web:         http://www.foam-extend.org         |
|    \\/     M anipulation  |                                                 |
\*---------------------------------------------------------------------------*/
FoamFile
{
    version     2.0;
    format      ascii;
    class       surfaceScalarField;
    location    "0.3";
    object      phi;
}
// * * * * * * * * * * * * * * * * * * * * * * * * * * * * * * * * * * * * * //

dimensions      [0 3 -1 0 0 0 0];

internalField   nonuniform List<scalar> 
8438
(
-0.59730722
0.0016759247
-0.5990493
0.0017420739
-0.60082714
0.001777845
-0.60264976
0.0018226173
-0.6045269
0.0018771427
-0.606469
0.0019420977
-0.60848545
0.0020164529
-0.61058387
0.0020984202
-0.61276938
0.0021855041
-0.61504389
0.0022745126
-0.61740544
0.0023615494
-0.61984748
0.0024420459
-0.62235834
0.0025108602
-0.62492081
0.0025624658
-0.62751204
0.0025912306
-0.63010383
0.002591786
-0.63266316
0.002559338
-0.63515315
0.0024899817
-0.63753399
0.0023808426
-0.63976406
0.0022300755
-0.64180085
0.002036789
-0.6436018
0.0018009456
-0.64512513
0.001523332
-0.64633079
0.001205666
-0.64718169
0.00085089686
-0.6476454
0.00046371376
-0.64769633
5.0923477e-05
-0.64731727
-0.00037905541
-0.64650345
-0.00081382719
-0.64526652
-0.0012369231
-0.64363558
-0.0016309386
-0.64165687
-0.0019787169
-0.63939162
-0.0022652516
-0.63691203
-0.002479588
-0.63429599
-0.002616035
-0.63162159
-0.0026744079
-0.62896222
-0.0026593696
-0.62638303
-0.0025791836
-0.62393879
-0.0024442438
-0.62167309
-0.0022656945
-0.61961876
-0.002054331
-0.61779892
-0.0018198446
-0.61622853
-0.0015703889
-0.61491604
-0.0013124893
-0.61386453
-0.0010515141
-0.61307219
-0.00079234088
-0.61253532
-0.00053686857
-0.612259
-0.00027631578
-1.4053101e-05
-0.611101
0.0031440119
-0.61256328
0.0032043595
-0.61405357
0.0032681383
-0.61558514
0.0033541791
-0.61717041
0.0034624167
-0.6188206
0.0035922835
-0.62054554
0.0037413952
-0.6223532
0.0039060823
-0.62424904
0.0040813444
-0.62623533
0.0042607979
-0.62831041
0.0044366369
-0.63046805
0.004599681
-0.63269675
0.0047395651
-0.6349794
0.0048451161
-0.63729309
0.0049049203
-0.63960939
0.0049080835
-0.64189494
0.0048448879
-0.6441124
0.0047074409
-0.64622152
0.0044899658
-0.64818023
0.0041887856
-0.64994558
0.0038021412
-0.6514746
0.0033299583
-0.65272503
0.0027737624
-0.65365624
0.0021368845
-0.6542304
0.0014250542
-0.65441408
0.00064739024
-0.65418074
-0.000182413
-0.65351475
-0.0010450434
-0.6524132
-0.0019153813
-0.65088722
-0.0027629057
-0.64896506
-0.0035531006
-0.64669263
-0.0042511405
-0.64413152
-0.0048263644
-0.64135474
-0.0052563724
-0.63844118
-0.0055295874
-0.63546985
-0.0056457381
-0.63251478
-0.0056144483
-0.62964134
-0.0054526176
-0.62690421
-0.0051813751
-0.62434665
-0.0048232529
-0.62200102
-0.0043999596
-0.61989
-0.0039308732
-0.61802817
-0.0034322114
-0.61642377
-0.0029168925
-0.61508011
-0.0023951807
-0.61399742
-0.0018750265
-0.61317521
-0.0013590827
-0.61260513
-0.00084638975
-0.00037438452
-0.61214817
0.0045621329
-0.61356542
0.0046216092
-0.61500833
0.0047110547
-0.61649186
0.0048377046
-0.61802928
0.0049998383
-0.61963239
0.0051953953
-0.62131152
0.0054205262
-0.62307514
0.0056696964
-0.62492926
0.0059354626
-0.62687677
0.0062083134
-0.6289167
0.0064765668
-0.63104343
0.0067264094
-0.63324602
0.0069421587
-0.63550773
0.0071068217
-0.63780578
0.0072029679
-0.64011162
0.0072139254
-0.64239157
0.0071248423
-0.64460785
0.0069237178
-0.64671974
0.0066018508
-0.64868472
0.0061537751
-0.65045949
0.0055769065
-0.65200063
0.0048711043
-0.65326535
0.0040384748
-0.65421211
0.0030836469
-0.65480173
0.0020146734
-0.65499893
0.0008445952
-0.65477477
-0.00040657967
-0.65410938
-0.0017104331
-0.65299553
-0.0030292265
-0.65144238
-0.0043160548
-0.64947803
-0.0055174573
-0.6471501
-0.0065790717
-0.64452359
-0.0074528698
-0.64167608
-0.0081038879
-0.63869128
-0.0085143829
-0.6356525
-0.0086845142
-0.63263703
-0.008629926
-0.62971221
-0.0083774335
-0.62693346
-0.0079601236
-0.62434381
-0.0074129062
-0.62197468
-0.0067690855
-0.61984745
-0.0060581067
-0.61797527
-0.0053043971
-0.61636494
-0.0045272157
-0.61501886
-0.0037412599
-0.61393717
-0.0029567162
-0.61311814
-0.0021781203
-0.61255318
-0.0014113475
-0.00068261344
-0.61250395
0.0059509692
-0.61390092
0.0060185773
-0.6153242
0.0061343288
-0.61678871
0.0063022214
-0.61830823
0.0065193513
-0.61989523
0.0067823998
-0.62156083
0.0070861224
-0.62331433
0.0074231943
-0.62516266
0.0077838014
-0.6271097
0.008155346
-0.62915538
0.0085222474
-0.63129491
0.0088659405
-0.63351793
0.0091651844
-0.63580791
0.009396794
-0.63814179
0.0095368501
-0.64049027
0.0095624095
-0.64281851
0.00945308
-0.64508731
0.0091925212
-0.64725454
0.0087690745
-0.64927635
0.0081755924
-0.65110825
0.0074088046
-0.6527057
0.0064685523
-0.6540246
0.0053573797
-0.65502178
0.0040808278
-0.65565577
0.0026486563
-0.65588824
0.0010770707
-0.65568646
-0.00060836465
-0.65502653
-0.0023703637
-0.65389752
-0.0041582305
-0.65230605
-0.0059075315
-0.65027988
-0.0075436191
-0.64786928
-0.0089896719
-0.64514465
-0.010177508
-0.64219076
-0.011057778
-0.63909899
-0.011606148
-0.63595942
-0.01182409
-0.63285433
-0.01173501
-0.62985407
-0.011377697
-0.62701507
-0.010799121
-0.62437988
-0.010048096
-0.62197842
-0.0091705508
-0.61982997
-0.0082065546
-0.61794544
-0.0071889253
-0.61632954
-0.006143121
-0.61498293
-0.005087865
-0.61390418
-0.0040354661
-0.61308968
-0.002992624
-0.61253397
-0.001967058
-0.00097163023
-0.61292654
0.0073128497
-0.61430038
0.0073924162
-0.61570149
0.0075354364
-0.61714499
0.0077457223
-0.61864513
0.0080194866
-0.62021517
0.0083524435
-0.62186717
0.0087381206
-0.62361152
0.0091675499
-0.62545639
0.0096286699
-0.62740691
0.010105869
-0.62946432
0.010579648
-0.63162492
0.011026541
-0.63387916
0.011419423
-0.63621076
0.0117284
-0.6385963
0.011922392
-0.64100537
0.011971472
-0.64340141
0.011849126
-0.64574326
0.011534365
-0.64798676
0.011012576
-0.65008632
0.010275155
-0.65199594
0.0093184219
-0.65366972
0.0081423406
-0.65506209
0.0067497473
-0.65612785
0.0051465833
-0.65682263
0.0033434443
-0.65710414
0.0013585813
-0.65693451
-0.00077799488
-0.65628412
-0.0030207565
-0.65513646
-0.0053058891
-0.65349411
-0.0075498848
-0.65138403
-0.0096536968
-0.64886
-0.011513707
-0.64600013
-0.013037381
-0.64289964
-0.014158269
-0.63966089
-0.014844893
-0.63638353
-0.015101451
-0.63315678
-0.014961757
-0.63005488
-0.014479599
-0.62713542
-0.013718585
-0.62443997
-0.012743542
-0.62199614
-0.011614387
-0.61982019
-0.010382504
-0.61791986
-0.0090892498
-0.61629697
-0.0077660156
-0.61494974
-0.0064350912
-0.61387458
-0.0051106336
-0.61306651
-0.0038006852
-0.61252159
-0.0025119815
-0.0012484216
-0.61346133
0.008642626
-0.61480564
0.0087367219
-0.61617857
0.0089083686
-0.61759541
0.0091625649
-0.61907097
0.0094950507
-0.62061943
0.0099008956
-0.62225395
0.010372644
-0.62398631
0.010899909
-0.62582621
0.011468572
-0.62778048
0.012060134
-0.62985202
0.012651192
-0.63203869
0.013213211
-0.63433205
0.013712785
-0.63671629
0.014112634
-0.63916749
0.0143736
-0.6416538
0.014457776
-0.64413638
0.014331704
-0.64657134
0.01396933
-0.64891191
0.013353145
-0.65111024
0.012473485
-0.65311855
0.011326735
-0.65488947
0.0099132588
-0.65637577
0.0082360527
-0.65752999
0.0063007956
-0.65830426
0.0041177226
-0.65865122
0.0017055409
-0.6585263
-0.00090292277
-0.65789205
-0.0036549988
-0.65672406
-0.0064738784
-0.65501881
-0.0092551379
-0.65280151
-0.011870994
-0.6501304
-0.014184824
-0.64709418
-0.016073599
-0.64380259
-0.017449855
-0.64037317
-0.018274317
-0.63691849
-0.01855613
-0.63353683
-0.018343413
-0.63030719
-0.017709247
-0.62728814
-0.01673763
-0.62451951
-0.015512171
-0.62202542
-0.014108476
-0.6198179
-0.012590026
-0.61790035
-0.011006808
-0.61627058
-0.0093957792
-0.61492343
-0.0077822486
-0.61385241
-0.006181646
-0.61305092
-0.0046021777
-0.61251461
-0.0030482874
-0.0015180859
-0.61411145
0.0099365665
-0.61542031
0.010045581
-0.6167587
0.010246756
-0.61814259
0.010546462
-0.61958759
0.010940047
-0.62110891
0.011422212
-0.62272107
0.011984809
-0.62443749
0.012616328
-0.62626979
0.013300872
-0.62822691
0.014017258
-0.63031396
0.014738239
-0.63253081
0.015430062
-0.6348706
0.016052572
-0.63731822
0.016560256
-0.63984928
0.016904655
-0.64243
0.017038501
-0.64501854
0.016920242
-0.64756741
0.016518206
-0.65002641
0.015812143
-0.65234493
0.014792001
-0.65447321
0.013455017
-0.65636242
0.011802468
-0.65796381
0.0098374473
-0.65922757
0.0075645575
-0.66010194
0.0049920844
-0.66053338
0.00213699
-0.66046882
-0.00096748445
-0.65986043
-0.0042633871
-0.65867271
-0.0076616022
-0.65689303
-0.011034815
-0.6545432
-0.014220825
-0.6516868
-0.017041231
-0.64842682
-0.019333579
-0.64489288
-0.020983795
-0.64122306
-0.021944134
-0.63754703
-0.022232158
-0.63397448
-0.021915962
-0.63058986
-0.021093869
-0.62745225
-0.019875242
-0.62459848
-0.018365942
-0.62204771
-0.016659241
-0.61980625
-0.014831489
-0.61787184
-0.012941225
-0.61623722
-0.0110304
-0.61489287
-0.0091265892
-0.61382887
-0.0072456503
-0.61303621
-0.0053948372
-0.61250879
-0.0035757072
-0.0017819269
-0.61487137
0.011186286
-0.61613757
0.011311782
-0.61743466
0.011543848
-0.61877904
0.01189084
-0.62018712
0.012348134
-0.62167532
0.012910408
-0.6232597
0.013569191
-0.62495561
0.014312241
-0.626777
0.015122261
-0.62873543
0.015975689
-0.63083878
0.016841588
-0.63308959
0.017680871
-0.63548315
0.018446133
-0.63800548
0.019082587
-0.64063169
0.019530865
-0.64332563
0.019732437
-0.64604142
0.019636034
-0.64872683
0.019203616
-0.65132721
0.018412519
-0.6537886
0.017253395
-0.65605919
0.015725606
-0.65808893
0.01383221
-0.65982795
0.011576472
-0.66122436
0.0089609609
-0.66222223
0.0059899574
-0.66276094
0.0026756973
-0.66277681
-0.00095160719
-0.66220852
-0.0048316828
-0.66100531
-0.0088648063
-0.65914111
-0.012899021
-0.65663143
-0.016730503
-0.65354595
-0.020126713
-0.65000682
-0.022872712
-0.64617081
-0.024819799
-0.6422037
-0.025911243
-0.6382574
-0.026178463
-0.63445558
-0.025717781
-0.63088851
-0.024660942
-0.62761461
-0.023149139
-0.62466586
-0.021314694
-0.6220544
-0.019270701
-0.6197789
-0.017106982
-0.61782989
-0.014890238
-0.61619379
-0.012666496
-0.61485588
-0.010464502
-0.61380215
-0.0082993825
-0.61302069
-0.0061763021
-0.612503
-0.0040933947
-0.0020401247
-0.61574216
0.012388383
-0.61695974
0.012529363
-0.61820868
0.012792787
-0.61950648
0.013188643
-0.6208706
0.013712256
-0.62231878
0.014358581
-0.62386883
0.015119244
-0.62553835
0.015981762
-0.62734404
0.016927948
-0.62930067
0.017932315
-0.63141959
0.018960514
-0.63370682
0.019968103
-0.63616062
0.020899925
-0.63876872
0.021690692
-0.6415059
0.022268044
-0.64433301
0.02255955
-0.64719889
0.022501909
-0.65004494
0.022049671
-0.65281077
0.021178349
-0.65543842
0.019881047
-0.65787405
0.018161237
-0.660067
0.01602516
-0.6619671
0.013476566
-0.66352104
0.010514908
-0.66466893
0.0071378441
-0.66534216
0.0033489217
-0.66546425
-0.00082951339
-0.66495645
-0.0053394808
-0.66374729
-0.010073967
-0.66179084
-0.014855472
-0.65909159
-0.019429757
-0.65572558
-0.023492718
-0.65184073
-0.026757566
-0.64763119
-0.029029336
-0.64330009
-0.030242341
-0.6390281
-0.030450456
-0.63495563
-0.029790249
-0.63117851
-0.028438066
-0.62775248
-0.026575174
-0.62470189
-0.02436528
-0.62202915
-0.021943443
-0.61972295
-0.01941318
-0.61776474
-0.016848452
-0.61613327
-0.014297962
-0.61480767
-0.011790101
-0.61376925
-0.0093378052
-0.61300267
-0.0069428863
-0.61249675
-0.0045993138
-0.0022919213
-0.61671722
0.013531017
-0.61787751
0.013689651
-0.61907059
0.013985871
-0.62031422
0.014432268
-0.62162675
0.015024791
-0.62302731
0.015759142
-0.62453565
0.01662758
-0.62617189
0.017618007
-0.62795597
0.018712022
-0.62990651
0.019882856
-0.63203921
0.021093218
-0.63436456
0.022293446
-0.63688483
0.023420201
-0.63959046
0.024396315
-0.64245616
0.025133752
-0.64543912
0.025542503
-0.64848107
0.02554386
-0.65151486
0.025083466
-0.65447252
0.024136004
-0.65729125
0.022699784
-0.65991547
0.020785456
-0.66229493
0.018404624
-0.66438057
0.015562198
-0.66611902
0.012253359
-0.66744706
0.0084658865
-0.66828757
0.0041894357
-0.668549
-0.00056809019
-0.66813043
-0.0057580467
-0.66693252
-0.011271876
-0.66488035
-0.016907641
-0.66195945
-0.022350658
-0.6582515
-0.027200666
-0.65393931
-0.031069754
-0.64926915
-0.033699499
-0.64449485
-0.035016647
-0.63983406
-0.035111239
-0.63544662
-0.034177696
-0.63143254
-0.032452146
-0.62784147
-0.030166245
-0.6246862
-0.027520549
-0.62195577
-0.024673875
-0.61962602
-0.021742924
-0.61766724
-0.018807236
-0.6160491
-0.015916102
-0.61474368
-0.013095518
-0.61372708
-0.010354409
-0.61298017
-0.0076897924
-0.61248898
-0.005090501
-0.0025359547
-0.61779603
0.014613456
-0.61889353
0.01478715
-0.62002353
0.015115874
-0.6212052
0.015613939
-0.62245802
0.01627761
-0.62380257
0.017103692
-0.62526067
0.018085673
-0.62685526
0.019212597
-0.62860997
0.020466735
-0.63054804
0.021820929
-0.63269051
0.023235687
-0.63505358
0.024656512
-0.63764502
0.02601164
-0.64045929
0.027210587
-0.6434718
0.028146263
-0.64663523
0.02870593
-0.64988183
0.028790469
-0.65313274
0.028334376
-0.65630987
0.027313134
-0.65934466
0.025734571
-0.66218038
0.023621178
-0.66476891
0.020993156
-0.66706447
0.017857754
-0.66901582
0.014204715
-0.67055791
0.010007972
-0.67160495
0.0052364787
-0.67204828
-0.00012476142
-0.67175903
-0.006047297
-0.6706008
-0.012430104
-0.66845668
-0.019051764
-0.66528019
-0.025527146
-0.66115565
-0.031325211
-0.65631371
-0.035911695
-0.6510746
-0.038938608
-0.64576161
-0.040329633
-0.64063981
-0.040233045
-0.63589046
-0.038927041
-0.63161462
-0.03672799
-0.62785037
-0.033930495
-0.62459335
-0.030777568
-0.62181455
-0.027452674
-0.61947351
-0.024083963
-0.61752701
-0.020753739
-0.61593421
-0.017508905
-0.61465935
-0.014370378
-0.61367289
-0.011340867
-0.61295176
-0.0084109216
-0.61247919
-0.0055630656
-0.0027703485
-0.61897462
0.015618832
-0.61999855
0.01581108
-0.62105649
0.01617381
-0.62216723
0.016724677
-0.62335097
0.017461352
-0.62462967
0.018382393
-0.62602727
0.019483273
-0.6275698
0.020755126
-0.62928509
0.022182021
-0.6312018
0.023737646
-0.63334754
0.02538142
-0.63574579
0.027054769
-0.63841179
0.028677632
-0.6413461
0.030144906
-0.64452616
0.031326317
-0.64789936
0.032079127
-0.6513851
0.032276211
-0.65488812
0.031837395
-0.6583165
0.030741518
-0.66159456
0.029012634
-0.6646655
0.02669212
-0.6674858
0.023813452
-0.67001607
0.020388024
-0.67221052
0.016399164
-0.67400494
0.011802397
-0.67530557
0.0065371044
-0.67598347
0.00055314479
-0.67587697
-0.0061537973
-0.67480271
-0.013504363
-0.67258231
-0.021272165
-0.66911582
-0.028993637
-0.66448238
-0.035958658
-0.65897906
-0.041415008
-0.65303359
-0.044884081
-0.64706539
-0.046297833
-0.64139981
-0.045898626
-0.63624004
-0.044086809
-0.63168183
-0.041286207
-0.62774329
-0.037869031
-0.62439518
-0.034125679
-0.6215845
-0.03026335
-0.61925045
-0.026418015
-0.61733384
-0.022670347
-0.61578199
-0.019060759
-0.61455068
-0.015601687
-0.61360455
-0.012287
-0.61291658
-0.0090988887
-0.61246738
-0.0060122604
-0.0029927834
-0.6202428
0.016550959
-0.62118879
0.016757063
-0.62216736
0.017152384
-0.62319891
0.017756228
-0.62430456
0.018567002
-0.6255076
0.019585434
-0.6268341
0.020809776
-0.62831334
0.022234358
-0.62997778
0.023846462
-0.63186239
0.025622256
-0.63400266
0.02752169
-0.63643128
0.029483391
-0.63917336
0.031419714
-0.64223861
0.03321015
-0.64560875
0.034696457
-0.64922526
0.035695644
-0.65298989
0.036040834
-0.65678401
0.035631517
-0.66049644
0.034453946
-0.6640428
0.032558992
-0.66736831
0.030017635
-0.67043807
0.02688321
-0.67322375
0.023173708
-0.67568993
0.018865344
-0.67777771
0.013890181
-0.67938747
0.008146864
-0.68036852
0.0015341917
-0.68051961
-0.0060027039
-0.6795969
-0.014427082
-0.6773356
-0.023533464
-0.67354767
-0.032781567
-0.66828947
-0.041216858
-0.66195132
-0.047753155
-0.65512174
-0.051713658
-0.64835462
-0.053064957
-0.64205108
-0.05220217
-0.63643304
-0.049704848
-0.63157954
-0.046139702
-0.62747608
-0.041972497
-0.62405803
-0.037543725
-0.6212411
-0.03308028
-0.61893963
-0.02871949
-0.61707604
-0.024533931
-0.61558474
-0.020552066
-0.61441276
-0.016773664
-0.61351902
-0.013180735
-0.61287286
-0.009745053
-0.61245257
-0.006432551
-0.0032005516
-0.62160417
0.017386701
-0.62245906
0.017611955
-0.62334799
0.018041308
-0.6242899
0.01869814
-0.62530606
0.019583159
-0.62642072
0.020700094
-0.62766192
0.022050977
-0.62906221
0.023634649
-0.63065909
0.025443345
-0.63249473
0.027457891
-0.63461411
0.029641076
-0.63706147
0.031930746
-0.63987506
0.034233306
-0.64307815
0.036413245
-0.64666113
0.038279435
-0.65055981
0.039594322
-0.65465174
0.04013276
-0.65878463
0.039764407
-0.6628199
0.03848922
-0.6666624
0.036401498
-0.67026273
0.033617963
-0.67360006
0.030220543
-0.67666279
0.026236437
-0.67943196
0.021634511
-0.68186037
0.016318596
-0.68384672
0.010133212
-0.68521794
0.0029054099
-0.68572686
-0.0054937816
-0.68505552
-0.015098425
-0.68282024
-0.025768739
-0.67868952
-0.036912293
-0.67265924
-0.047247133
-0.66525106
-0.055161336
-0.65730281
-0.059661906
-0.649558
-0.060809766
-0.64251091
-0.05924926
-0.63639159
-0.055824168
-0.63124284
-0.051288457
-0.62699884
-0.046216494
-0.62354584
-0.040996729
-0.62075953
-0.035866584
-0.61852471
-0.030954312
-0.61674335
-0.026315295
-0.61533635
-0.021959063
-0.61424226
-0.017867758
-0.61341479
-0.014008205
-0.6128202
-0.010339642
-0.61243502
-0.0068177279
-0.0033906225
-0.62302649
0.018135576
-0.62378731
0.018372777
-0.62457928
0.018833272
-0.62542282
0.01954168
-0.62633953
0.020499868
-0.62735444
0.021715007
-0.62849736
0.023193899
-0.62980407
0.024941363
-0.63131737
0.026956641
-0.63308746
0.02922798
-0.6351706
0.031724218
-0.63762524
0.034385384
-0.64050668
0.037114745
-0.64385774
0.039764306
-0.64768449
0.042106185
-0.65191867
0.043828506
-0.6564039
0.044617988
-0.66093748
0.044297988
-0.66534028
0.04289202
-0.66950322
0.040564436
-0.67338803
0.037502771
-0.67699668
0.033829195
-0.68034252
0.029582279
-0.68343225
0.024724245
-0.68624141
0.019127754
-0.68867569
0.012567487
-0.69054108
0.0047707999
-0.69153838
-0.0044964748
-0.69126198
-0.01537483
-0.68916951
-0.027861205
-0.68469914
-0.041382668
-0.67770814
-0.054238131
-0.66890068
-0.063968799
-0.65951801
-0.069044572
-0.65057203
-0.069755751
-0.64266683
-0.067154453
-0.63601557
-0.062475429
-0.63059242
-0.056711605
-0.62625355
-0.050555364
-0.62281851
-0.044431777
-0.62011331
-0.038571784
-0.61798883
-0.033078795
-0.61632533
-0.027978791
-0.61503057
-0.023253826
-0.6140355
-0.018862827
-0.61328972
-0.014753978
-0.6127574
-0.010871966
-0.61241406
-0.0071610701
-0.0035597299
-0.62454298
0.01876768
-0.62519503
0.019024823
-0.62587968
0.019517925
-0.6266143
0.0202763
-0.62741946
0.021305026
-0.62832015
0.022615701
-0.62934731
0.02422106
-0.63053947
0.026133518
-0.63194449
0.028361668
-0.63362115
0.030904631
-0.63563864
0.033741716
-0.63807272
0.03681946
-0.6410003
0.040042321
-0.64449188
0.043255891
-0.64858137
0.046195678
-0.65320255
0.048449685
-0.65815249
0.049567921
-0.66315306
0.049298564
-0.66796574
0.047704693
-0.6724651
0.045063805
-0.67663567
0.041673334
-0.6805161
0.03770963
-0.68415437
0.033220551
-0.68759186
0.028161732
-0.6908395
0.022375401
-0.69382089
0.015548872
-0.69632261
0.0072725248
-0.69798716
-0.002831924
-0.69831087
-0.015051126
-0.69655563
-0.029616446
-0.69180165
-0.046136645
-0.68361025
-0.062429529
-0.67292564
-0.074653416
-0.66167502
-0.080295192
-0.65124822
-0.080182543
-0.64236847
-0.076034205
-0.63517969
-0.069664207
-0.62953543
-0.062355867
-0.6251767
-0.0549141
-0.62183518
-0.047773296
-0.61927745
-0.041129514
-0.6173174
-0.035038844
-0.61581388
-0.029482314
-0.61466309
-0.024404615
-0.61379033
-0.019735579
-0.61314284
-0.015401471
-0.61268406
-0.011330747
-0.61238956
-0.007455573
-0.0037044877
-0.62606642
0.019298791
-0.626608
0.019566403
-0.62717754
0.020087473
-0.62779321
0.020891964
-0.62847465
0.021986469
-0.6292464
0.023387449
-0.63014002
0.025114681
-0.63119641
0.027189905
-0.63246841
0.02963367
-0.63402388
0.032460102
-0.63594712
0.03566496
-0.63833517
0.039207502
-0.64129207
0.042999225
-0.64492631
0.046890127
-0.64931912
0.050588492
-0.65442064
0.053551206
-0.65996328
0.055110558
-0.6655508
0.05488609
-0.67085237
0.053006254
-0.67571972
0.049931158
-0.6801767
0.046130314
-0.68431698
0.041849915
-0.68823206
0.037135629
-0.6920065
0.031936173
-0.69570786
0.02607676
-0.69930318
0.019144197
-0.70257413
0.010543475
-0.70510854
-0.00029751739
-0.70630002
-0.013859645
-0.70519148
-0.03072499
-0.70031939
-0.051008737
-0.69063603
-0.072112889
-0.6773514
-0.087938045
-0.6636259
-0.094020691
-0.65137096
-0.092437482
-0.64141461
-0.085990554
-0.63372901
-0.077349805
-0.62796587
-0.068119008
-0.62370177
-0.059178204
-0.62055706
-0.050918003
-0.6182309
-0.043455669
-0.61649995
-0.036769799
-0.61520438
-0.030777877
-0.61423234
-0.025376661
-0.6135066
-0.020461322
-0.61297451
-0.01593356
-0.61260068
-0.011704577
-0.612362
-0.0076942486
-0.0038215389
-0.62768558
0.019691217
-0.62810127
0.019982089
-0.62854677
0.020532978
-0.62903484
0.021380033
-0.62958237
0.022533993
-0.63021218
0.024017267
-0.63095529
0.025857791
-0.63185363
0.02808824
-0.63296356
0.030743601
-0.63436086
0.033857405
-0.63614538
0.037449482
-0.63843867
0.041500788
-0.64137665
0.0459372
-0.64511573
0.050629205
-0.64981333
0.055286101
-0.65546766
0.059205532
-0.66172414
0.061367032
-0.66799908
0.061161039
-0.67382079
0.058827964
-0.67901445
0.055124819
-0.68368107
0.050796928
-0.68800782
0.04617667
-0.69214716
0.041274967
-0.69623719
0.036026203
-0.70043409
0.030273664
-0.70478458
0.023494689
-0.70907708
0.01483597
-0.71280806
0.0034334658
-0.71526628
-0.011401424
-0.71530275
-0.030688525
-0.71069328
-0.055618204
-0.69920804
-0.083598132
-0.68218561
-0.10496047
-0.66512618
-0.11108012
-0.65062243
-0.10694123
-0.6395355
-0.097077488
-0.63147426
-0.085411047
-0.6257663
-0.073826967
-0.62176273
-0.063181772
-0.61895047
-0.053730258
-0.6169585
-0.04544764
-0.61553095
-0.038197349
-0.61449581
-0.031813023
-0.61373894
-0.026133527
-0.61318518
-0.021015081
-0.61278532
-0.016333428
-0.61250739
-0.011982502
-0.61233114
-0.0078704931
-0.0039077338
-0.6291338
0.019962528
-0.62942206
0.020270346
-0.62973448
0.020845406
-0.63008234
0.021727893
-0.63047927
0.022930918
-0.63094522
0.024483219
-0.63150916
0.026421734
-0.63221254
0.028791618
-0.63311379
0.031644852
-0.63429552
0.035039132
-0.63587422
0.039028185
-0.63800205
0.043628612
-0.64085527
0.048790422
-0.64464959
0.054423523
-0.64966191
0.060298425
-0.6560085
0.065552117
-0.66322648
0.068585018
-0.67042213
0.068356691
-0.67690281
0.065308642
-0.6824557
0.060677702
-0.68731997
0.055661207
-0.69182877
0.050685463
-0.69619933
0.04564553
-0.70059852
0.040425396
-0.70529408
0.034969228
-0.71045557
0.028656171
-0.71590877
0.020289176
-0.72106453
0.0085892279
-0.7251349
-0.007331055
-0.72695831
-0.028865119
-0.72338896
-0.059187551
-0.70995147
-0.097035624
-0.68737471
-0.12753722
-0.66577175
-0.13268308
-0.64853516
-0.12417782
-0.63637505
-0.1092376
-0.62819356
-0.093592538
-0.62281682
-0.079203706
-0.61930365
-0.066694942
-0.61699468
-0.056039224
-0.61545665
-0.046985665
-0.61441388
-0.039240125
-0.61369354
-0.032533361
-0.6131879
-0.02663917
-0.61282985
-0.021373128
-0.61257765
-0.016585626
-0.61240542
-0.012154732
-0.6122974
-0.0079785162
-0.0039603352
-0.63028382
0.020066324
-0.63042154
0.020408067
-0.63058286
0.021006725
-0.63077166
0.021916694
-0.63099665
0.023155909
-0.6312739
0.024760466
-0.63162912
0.026776956
-0.63210164
0.029264142
-0.6327497
0.032292914
-0.63365924
0.035948671
-0.63495985
0.040328795
-0.63683593
0.04550469
-0.63950914
0.05146363
-0.64325268
0.058167066
-0.64850382
0.065549559
-0.6556281
0.072676403
-0.66404748
0.077004393
-0.6723286
0.076637817
-0.67944232
0.07242236
-0.68512215
0.066357536
-0.68986773
0.060406783
-0.69425218
0.055069919
-0.6985727
0.049966051
-0.70297868
0.04483137
-0.7079288
0.039919349
-0.71385161
0.034578987
-0.72070604
0.027143603
-0.72790095
0.015784139
-0.73443361
-0.00079838909
-0.73935555
-0.023943179
-0.73849092
-0.06005218
-0.7236607
-0.11186585
-0.69263727
-0.15856065
-0.66482166
-0.16049869
-0.64439783
-0.14460165
-0.63146591
-0.12216953
-0.62364019
-0.10141826
-0.61901028
-0.083833609
-0.61629167
-0.069413556
-0.61469061
-0.057640289
-0.61373852
-0.047937753
-0.61316399
-0.039814655
-0.61281085
-0.032886498
-0.61258927
-0.026860748
-0.61244752
-0.021514881
-0.61235582
-0.016677321
-0.61229713
-0.012213421
-0.61226185
-0.0080138012
-0.0039772347
-0.62987597
0.019977022
-0.62983657
0.020368664
-0.62981629
0.020986447
-0.62981139
0.02191179
-0.62982377
0.023168288
-0.62986288
0.024799581
-0.6299472
0.026861278
-0.63010848
0.029425419
-0.63039782
0.032582252
-0.63089545
0.036446304
-0.63173346
0.041166806
-0.63312658
0.04689781
-0.63535664
0.053693687
-0.63875495
0.061565379
-0.6439553
0.070749904
-0.65184245
0.080563559
-0.66182829
0.086990225
-0.67148584
0.08629537
-0.67929688
0.080233402
-0.68487782
0.071938475
-0.6892204
0.064749361
-0.69329486
0.059144386
-0.6975288
0.054199987
-0.70191225
0.049214824
-0.70715488
0.045161978
-0.71410606
0.041530162
-0.72277157
0.03580912
-0.73275314
0.025765703
-0.74203002
0.0084784955
-0.75066063
-0.015312563
-0.75436851
-0.0563443
-0.740648
-0.12558637
-0.69658759
-0.20262106
-0.66068725
-0.19639903
-0.63713243
-0.16815647
-0.62422625
-0.1350757
-0.61757131
-0.1080732
-0.61427978
-0.087125136
-0.61273517
-0.070958168
-0.61207059
-0.05830487
-0.61183829
-0.048170055
-0.6118096
-0.039843344
-0.61186862
-0.032827476
-0.61195724
-0.026772124
-0.61204702
-0.021425101
-0.6121247
-0.016599643
-0.61218464
-0.012153479
-0.61222488
-0.0079735637
-0.0039571653
-0.62601668
0.01965162
-0.62573874
0.020090726
-0.62545956
0.020707264
-0.62517188
0.021624117
-0.62487004
0.022866447
-0.62455476
0.024484301
-0.62423405
0.026540563
-0.62392799
0.02911936
-0.62367626
0.032330526
-0.62354849
0.036318529
-0.62367057
0.041288892
-0.6242831
0.047510339
-0.6257528
0.055163386
-0.62846629
0.064278872
-0.63318462
0.075468229
-0.64170466
0.089083604
-0.65382518
0.099110739
-0.66503668
0.097506874
-0.67321947
0.088416196
-0.67772136
0.076440365
-0.6805976
0.067625604
-0.68345646
0.062003241
-0.68694842
0.05769195
-0.69045128
0.052717686
-0.69479132
0.049502014
-0.70182103
0.048559874
-0.71126112
0.045249207
-0.72415067
0.038655259
-0.7356254
0.019953226
-0.74993594
-0.0010020211
-0.76255898
-0.043721265
-0.75932811
-0.12881724
-0.69476773
-0.26718144
-0.65087019
-0.24029657
-0.62539916
-0.19362749
-0.61403059
-0.14644427
-0.6098125
-0.1122913
-0.60864621
-0.08829142
-0.60871116
-0.070893216
-0.60921206
-0.057803972
-0.60981752
-0.047564592
-0.61039505
-0.039265819
-0.61089699
-0.032325538
-0.61131132
-0.026357791
-0.61164028
-0.021096145
-0.61189094
-0.016348979
-0.61207111
-0.01197331
-0.61218752
-0.0078571529
-0.0038998834
-0.61267732
0.018848277
-0.61196306
0.019376473
-0.61123462
0.019978822
-0.61046551
0.020855003
-0.60963783
0.022038772
-0.60873914
0.023585613
-0.60776046
0.025561882
-0.60670008
0.028058976
-0.60557093
0.031201377
-0.60440886
0.035156459
-0.60329154
0.040171571
-0.60241674
0.046635545
-0.60219763
0.054944274
-0.60306692
0.065148157
-0.60565162
0.078052927
-0.61310796
0.096539945
-0.62726851
0.11327129
-0.63899177
0.10923013
-0.64610903
0.095533458
-0.6471953
0.077526636
-0.646536
0.066966311
-0.64633732
0.061804565
-0.64771713
0.059071757
-0.64859795
0.053598507
-0.64953884
0.050442902
-0.65622469
0.055245732
-0.66598437
0.055008881
-0.68369263
0.056363521
-0.6987939
0.035054499
-0.72779887
0.028002952
-0.75027759
-0.021242546
-0.77336306
-0.10573177
-0.67735148
-0.36319302
-0.63089958
-0.28674846
-0.6063084
-0.21821867
-0.59997894
-0.15277373
-0.60030767
-0.11196257
-0.60227935
-0.086319733
-0.60439582
-0.068776753
-0.60624843
-0.055951361
-0.60776759
-0.046045429
-0.60898032
-0.038053088
-0.60993435
-0.031371505
-0.61067546
-0.025616684
-0.61124165
-0.020529953
-0.61166261
-0.015928025
-0.61196055
-0.011675365
-0.61215136
-0.0076663404
-0.003806297
-0.58490352
0.017617772
-0.58365118
0.018124134
-0.58230277
0.018630412
-0.58085269
0.019404919
-0.57927392
0.02046
-0.57753487
0.021846568
-0.57559811
0.023625122
-0.57342258
0.025883442
-0.57096912
0.028747918
-0.5682076
0.032394944
-0.56512555
0.037089517
-0.56180838
0.04331838
-0.55869648
0.051832373
-0.55653284
0.062984521
-0.55567956
0.077199641
-0.56035383
0.10121422
-0.57983778
0.13275524
-0.59288393
0.12227628
-0.59947638
0.10212591
-0.59481089
0.072861155
-0.58824275
0.060398165
-0.58267904
0.056240862
-0.58136444
0.057757159
-0.5791508
0.051384864
-0.57281164
0.044103743
-0.58434248
0.032147973
-0.59472952
0.03707365
-0.60387108
0.040068889
-0.60266013
0.020416649
-0.63464857
0.039754474
-0.71405588
0.019713209
-0.66911614
-0.054734404
-0.60698077
-0.2274145
-0.57388524
-0.319844
-0.57156482
-0.22053909
-0.58117839
-0.14316017
-0.58948302
-0.10365794
-0.59564135
-0.080161406
-0.60010341
-0.064314684
-0.60337338
-0.052681391
-0.60580542
-0.043613392
-0.60763599
-0.036222521
-0.60902326
-0.029984233
-0.61007494
-0.024565005
-0.61086558
-0.019739311
-0.61144726
-0.015346351
-0.61185622
-0.011266403
-0.61211712
-0.0074054369
-0.0036785132
-0.52753373
0.015228713
-0.52505921
0.015649607
-0.52242936
0.016000565
-0.51960023
0.016575789
-0.51651648
0.017376247
-0.51310968
0.018439777
-0.50929403
0.019809464
-0.50496437
0.021553781
-0.49999669
0.023780239
-0.49425411
0.02665237
-0.48758803
0.030423432
-0.47986428
0.035594629
-0.47126328
0.043231377
-0.46277109
0.054492332
-0.45434406
0.068772608
-0.44588149
0.092751652
-0.47003296
0.15690671
-0.470881
0.12312432
-0.46158323
0.09282814
-0.42741161
0.038689529
-0.39428931
0.027275869
-0.3656959
0.027647455
-0.30016051
0.020359838
-0.15841276
0.013221826
-0.038313962
0.0071839513
0
0
0
0
0
0
0
0
0
0
0
0
0
0
-0.21949282