/*--------------------------------*- C++ -*----------------------------------*\
| =========                 |                                                 |
| \\      /  F ield         | foam-extend: Open Source CFD                    |
|  \\    /   O peration     | Version:     4.1                                |
|   \\  /    A nd           | Web:         http://www.foam-extend.org         |
|    \\/     M anipulation  |                                                 |
\*---------------------------------------------------------------------------*/
FoamFile
{
    version     2.0;
    format      ascii;
    class       volScalarField;
    location    "0.3";
    object      rAU;
}
// * * * * * * * * * * * * * * * * * * * * * * * * * * * * * * * * * * * * * //

dimensions      [0 0 1 0 0 0 0];

internalField   nonuniform List<scalar> 
4393
(
0.00022767267
0.00022729833
0.00022693159
0.00022655683
0.00022617194
0.0002257755
0.00022536512
0.00022493962
0.00022449815
0.0002240405
0.00022356729
0.00022308001
0.00022258118
0.00022207436
0.00022156395
0.00022105613
0.00022055677
0.00022007292
0.00021961229
0.00021918252
0.00021879143
0.00021844673
0.00021815597
0.00021792632
0.00021776445
0.00021767625
0.00021766636
0.00021766636
0.00021773804
0.00021789236
0.00021812745
0.0002184383
0.00021881667
0.00021925149
0.00021972946
0.00022023604
0.00022075635
0.0002212762
0.00022178273
0.00022226491
0.00022271375
0.0002231223
0.00022348548
0.00022379983
0.00022406325
0.00022427473
0.00022443436
0.00022454266
0.00022458498
0.00022453889
0.00022421775
0.00022391137
0.00022359577
0.00022326819
0.00022292698
0.00022256991
0.00022219612
0.0002218052
0.00022139751
0.00022097433
0.00022053793
0.00022009171
0.00021964016
0.00021918865
0.00021874424
0.00021831361
0.00021790444
0.00021752488
0.00021718286
0.00021688627
0.00021664285
0.00021646001
0.00021634476
0.0002163034
0.00021634128
0.00021642842
0.00021640108
0.00021644418
0.00021657124
0.00021678372
0.00021708006
0.00021745506
0.00021789995
0.0002184027
0.00021894902
0.00021952339
0.00022011029
0.0002206951
0.00022126488
0.00022180871
0.00022231789
0.00022278578
0.00022320764
0.0002235802
0.00022390133
0.00022417014
0.00022438812
0.00022454253
0.00022403288
0.00022372336
0.0002234222
0.00022310932
0.00022278199
0.00022243872
0.00022207749
0.00022169773
0.00022129944
0.00022088349
0.00022045181
0.00022000745
0.00021955466
0.00021909894
0.00021864666
0.0002182059
0.00021778424
0.00021739011
0.00021703219
0.00021671876
0.00021645789
0.00021625735
0.00021612454
0.00021606635
0.0002160889
0.0002161972
0.00021628518
0.00021616544
0.00021612686
0.00021617641
0.00021631897
0.00021655618
0.00021688545
0.00021729958
0.00021778701
0.0002183328
0.00021891998
0.00021953102
0.00022014914
0.00022075923
0.00022134841
0.00022190632
0.00022242501
0.00022289873
0.00022332347
0.0002236966
0.00022401702
0.00022428482
0.00022448034
0.00022367739
0.00022337309
0.00022307167
0.00022275548
0.00022242206
0.0002220701
0.00022169777
0.00022130472
0.00022089128
0.00022045878
0.00022000972
0.0002195479
0.00021907849
0.000218608
0.00021814396
0.00021769563
0.00021727166
0.00021688143
0.00021653435
0.00021623916
0.00021600424
0.00021583756
0.00021574663
0.00021573844
0.0002158192
0.00021599389
0.00021607716
0.00021587114
0.00021574804
0.00021571838
0.0002157908
0.00021597048
0.00021625752
0.00021664616
0.00021712481
0.00021767731
0.00021828461
0.00021892668
0.00021958412
0.00022023946
0.0002208778
0.00022148715
0.00022205839
0.0002225849
0.00022306216
0.00022348736
0.00022385926
0.00022417686
0.00022442207
0.00022331552
0.00022301518
0.00022271391
0.00022239473
0.00022205535
0.00022169462
0.00022131079
0.00022090373
0.000220474
0.00022002333
0.00021955473
0.00021907273
0.00021858339
0.00021809432
0.00021761432
0.00021715393
0.00021672309
0.00021633223
0.00021599157
0.00021571041
0.00021549744
0.00021536084
0.00021530832
0.00021534711
0.00021548375
0.00021572352
0.0002158128
0.00021551608
0.00021530453
0.00021519268
0.00021519356
0.00021531645
0.00021556443
0.000215933
0.00021641012
0.00021697766
0.00021761369
0.00021829498
0.00021899907
0.00021970581
0.00022039819
0.00022106265
0.00022168899
0.00022226997
0.00022280076
0.00022327851
0.00022370191
0.00022406976
0.00022436629
0.00022293792
0.00022264209
0.000222342
0.00022202078
0.00022167624
0.00022130726
0.00022091219
0.00022049094
0.0002200443
0.00021957426
0.00021908431
0.00021857964
0.00021806721
0.00021755581
0.00021705558
0.0002165786
0.00021613625
0.0002157402
0.00021540159
0.00021513027
0.00021493526
0.00021482494
0.00021480725
0.00021488984
0.00021507983
0.00021538325
0.00021549357
0.00021510035
0.00021479474
0.00021459592
0.00021452219
0.00021458775
0.00021479916
0.0002151532
0.00021563669
0.00021622861
0.00021690315
0.00021763299
0.000218392
0.00021915699
0.00021990875
0.00022063221
0.00022131632
0.00022195342
0.00022253868
0.00022306946
0.00022354464
0.00022396347
0.00022431197
0.00022254508
0.00022225443
0.00022195656
0.00022163429
0.00022128543
0.00022090882
0.00022050276
0.0002200672
0.00021960297
0.00021911229
0.000218599
0.00021806889
0.00021752984
0.00021699185
0.00021646666
0.00021596804
0.00021550913
0.00021510304
0.00021476193
0.00021449621
0.00021431517
0.0002142273
0.0002142408
0.00021436384
0.00021460444
0.00021496991
0.00021512147
0.00021462449
0.00021421738
0.00021392477
0.0002137714
0.00021377769
0.00021395454
0.00021429997
0.00021479891
0.00021542617
0.00021615072
0.00021694005
0.00021776358
0.0002185947
0.00021941187
0.00022019865
0.00022094332
0.00022163815
0.00022227858
0.00022286244
0.00022338915
0.00022385881
0.00022425885
0.00022213899
0.00022185486
0.00022156038
0.0002212381
0.00022088576
0.0002205021
0.0002200853
0.00021963522
0.00021915263
0.00021863982
0.0002181009
0.00021754217
0.00021697241
0.00021640295
0.00021584726
0.00021532124
0.00021484007
0.00021441861
0.00021407014
0.00021380562
0.00021363443
0.00021356504
0.00021360582
0.00021376558
0.00021405357
0.00021447892
0.00021469803
0.00021408839
0.00021357014
0.00021317436
0.00021293388
0.00021287719
0.00021302084
0.00021336418
0.00021388917
0.00021456473
0.00021535282
0.00021621435
0.00021711334
0.00021801939
0.00021890855
0.00021976321
0.00022057133
0.00022132543
0.00022202159
0.00022265843
0.00022323625
0.00022375615
0.00022420689
0.00022172133
0.00022144459
0.00022115457
0.00022083333
0.00022047844
0.00022008842
0.00021966125
0.00021919652
0.00021869485
0.00021815841
0.00021759144
0.00021700066
0.00021639568
0.00021578924
0.00021519686
0.00021463691
0.00021412719
0.00021368465
0.00021332383
0.00021305611
0.00021289071
0.0002128358
0.00021289976
0.00021309205
0.00021342349
0.00021390577
0.00021422613
0.00021349311
0.00021285152
0.00021234009
0.0002120019
0.00021187626
0.0002119874
0.00021233621
0.0002129001
0.00021363966
0.0002145075
0.00021545611
0.0002164431
0.00021743382
0.00021840199
0.00021932914
0.00022020336
0.0002210179
0.00022176989
0.00022245912
0.00022308707
0.0002236561
0.00022415623
0.00022129412
0.00022102662
0.00022074248
0.00022042347
0.00022006705
0.00021967145
0.00021923432
0.00021875489
0.0002182334
0.00021767175
0.0002170741
0.00021644742
0.00021580208
0.00021515229
0.00021451593
0.00021391447
0.00021336896
0.00021289901
0.00021252058
0.00021224523
0.0002120816
0.00021203713
0.00021211987
0.00021233986
0.00021270984
0.00021324481
0.00021370912
0.00021284002
0.00021205991
0.00021141645
0.00021096584
0.00021076224
0.00021084071
0.00021120406
0.0002118228
0.00021264573
0.00021361287
0.00021466606
0.0002157553
0.00021684138
0.00021789592
0.00021890009
0.00021984272
0.0002207184
0.00022152578
0.00022226627
0.00022294286
0.00022355935
0.00022410717
0.00022085987
0.00022060222
0.00022032506
0.00022000947
0.00021965261
0.00021925234
0.00021880585
0.00021831185
0.00021776998
0.00021718165
0.00021655067
0.00021588404
0.00021519273
0.00021449246
0.00021380383
0.00021315218
0.00021256281
0.0002120587
0.00021165744
0.00021137041
0.00021120498
0.00021116715
0.00021126411
0.00021150632
0.00021190866
0.00021249037
0.00021315227
0.00021213227
0.00021119495
0.00021039819
0.00020981491
0.00020952009
0.00020956463
0.00020995387
0.00021064779
0.00021157838
0.00021266865
0.000213847
0.00021505459
0.00021624752
0.00021739583
0.00021848114
0.00021949384
0.00022043057
0.00022129216
0.00022208206
0.00022280511
0.00022346678
0.00022406006
0.00022041971
0.00022017444
0.00021990602
0.00021959535
0.00021923943
0.00021883571
0.0002183808
0.00021787267
0.00021731018
0.00021669389
0.00021602696
0.00021531609
0.0002145726
0.00021381362
0.00021306286
0.00021235058
0.00021170775
0.00021116181
0.00021073227
0.00021042971
0.00021025921
0.00021022432
0.00021033064
0.00021058859
0.00021101538
0.00021163546
0.00021245862
0.00021137443
0.00021025748
0.00020928001
0.00020853635
0.00020813093
0.0002081387
0.00020856863
0.00020936429
0.00021043343
0.00021167607
0.0002130038
0.00021434775
0.0002156596
0.00021690881
0.00021807861
0.00021916205
0.00022015873
0.00022107237
0.00022190894
0.00022267551
0.00022337942
0.00022401537
0.00021997882
0.00021974601
0.00021948738
0.00021918298
0.00021882937
0.00021842348
0.00021796119
0.00021743957
0.00021685637
0.00021621098
0.00021550548
0.00021474584
0.00021394331
0.0002131162
0.00021229171
0.0002115064
0.00021079896
0.00021020305
0.00020974036
0.00020941977
0.00020924242
0.00020920793
0.00020931919
0.00020958587
0.00021002739
0.00021067449
0.00021156682
0.00021057451
0.00020925096
0.0002080577
0.00020711553
0.00020657109
0.00020653687
0.00020702752
0.00020796042
0.000209208
0.00021063906
0.00021214449
0.0002136446
0.00021508759
0.00021644399
0.00021770031
0.00021885374
0.00021990794
0.00022087024
0.00022174972
0.00022255597
0.00022329844
0.00022397364
0.0002195359
0.00021931892
0.00021907226
0.00021877603
0.00021842668
0.00021802057
0.00021755276
0.00021701919
0.00021641619
0.00021574154
0.00021499568
0.00021418327
0.00021331484
0.00021240936
0.00021149763
0.00021062431
0.00020983889
0.00020918375
0.00020868331
0.00020834313
0.00020815804
0.00020812168
0.00020823288
0.00020849959
0.00020894313
0.00020960141
0.00021052701
0.00020974425
0.00020818239
0.00020672889
0.00020553582
0.00020481017
0.00020472486
0.00020530447
0.00020642308
0.00020790125
0.0002095653
0.00021128127
0.0002129587
0.00021454447
0.00021601272
0.00021735566
0.00021857639
0.00021968393
0.00022069007
0.00022160749
0.00022244861
0.00022322512
0.00022393549
0.00021910156
0.00021889981
0.00021866614
0.00021837967
0.00021803638
0.00021763196
0.00021716048
0.00021661653
0.00021599468
0.00021529053
0.00021450223
0.00021363234
0.00021268981
0.00021169325
0.00021067689
0.00020969569
0.00020881473
0.00020808924
0.00020754724
0.00020718856
0.00020699801
0.00020696043
0.00020706878
0.00020732779
0.00020775943
0.00020840929
0.00020934565
0.00020890021
0.00020706404
0.00020529507
0.00020377911
0.00020280867
0.00020265641
0.00020336646
0.00020473838
0.00020651603
0.00020846805
0.00021043197
0.00021230839
0.00021404677
0.00021562885
0.00021705567
0.00021833847
0.00021949304
0.00022053649
0.00022148554
0.00022235565
0.00022316083
0.00022390154
0.00021866751
0.00021848506
0.00021826681
0.00021799231
0.00021765751
0.00021725752
0.00021678536
0.00021623407
0.00021559613
0.00021486441
0.00021403389
0.00021310403
0.00021208107
0.00021098155
0.00020984189
0.00020872992
0.00020773333
0.00020692679
0.00020634295
0.00020597168
0.00020578178
0.00020574514
0.00020584701
0.00020608731
0.00020648685
0.00020709927
0.00020801229
0.00020806806
0.00020591643
0.0002037646
0.00020182745
0.00020051486
0.00020026708
0.00020117109
0.00020289243
0.00020506152
0.00020736882
0.00020962203
0.00021171791
0.00021361515
0.00021530883
0.00021681289
0.00021814929
0.00021934205
0.00022041434
0.00022138724
0.00022227936
0.00022310699
0.0002238725
0.00021825617
0.00021809165
0.00021788987
0.00021762939
0.00021730576
0.00021691334
0.00021644399
0.00021588898
0.00021523827
0.00021448129
0.00021360872
0.00021261556
0.00021150373
0.00021028518
0.00020899554
0.00020771776
0.00020657333
0.00020566756
0.00020503975
0.00020466355
0.00020448279
0.00020445139
0.00020454598
0.00020476028
0.00020511028
0.00020565579
0.00020650681
0.00020727642
0.00020476931
0.00020215811
0.00019966789
0.00019786171
0.00019746407
0.00019866365
0.00020087345
0.00020355753
0.00020630126
0.00020888709
0.00021121868
0.00021327477
0.00021507166
0.00021664115
0.00021801869
0.00021923787
0.00022032843
0.00022131592
0.00022222195
0.00022306496
0.00022384902
0.00021784735
0.00021770535
0.00021752249
0.00021727828
0.00021696853
0.00021658702
0.00021612443
0.00021557018
0.00021491149
0.00021413382
0.00021322242
0.00021216623
0.00021096121
0.00020961144
0.00020814573
0.0002066627
0.00020533486
0.0002043172
0.00020365815
0.00020330426
0.0002031586
0.00020314878
0.00020324207
0.00020342455
0.00020369989
0.00020412978
0.00020485123
0.00020600677
0.00020368283
0.00020052345
0.00019730539
0.00019476818
0.00019411114
0.0001957746
0.00019867634
0.00020204184
0.00020531685
0.00020827612
0.00021085062
0.00021305544
0.00021493847
0.000216555
0.00021795654
0.00021918716
0.00022028327
0.0002212746
0.00022218545
0.000223036
0.00022383172
0.00021749866
0.00021737683
0.00021721402
0.00021698891
0.00021669711
0.00021633181
0.00021588258
0.00021533692
0.0002146791
0.00021388996
0.00021294773
0.00021183265
0.00021053216
0.00020903822
0.0002073615
0.00020561065
0.00020403564
0.00020287569
0.00020219146
0.0002018857
0.00020179524
0.00020181095
0.00020189558
0.00020203301
0.00020220558
0.00020247109
0.00020299904
0.00020403535
0.00020272438
0.00019895332
0.0001948032
0.00019116482
0.00019001244
0.00019242016
0.00019631147
0.00020058202
0.00020449319
0.00020785543
0.00021066311
0.00021299119
0.00021493168
0.00021656886
0.00021797204
0.00021919582
0.00022028268
0.00022126582
0.00022217152
0.00022302117
0.00022382117
0.00021723026
0.00021713396
0.00021699545
0.00021679404
0.0002165258
0.00021618345
0.00021575543
0.00021522733
0.00021458034
0.00021379039
0.0002128275
0.00021166041
0.00021026563
0.00020862053
0.00020670153
0.00020460797
0.00020270727
0.00020138929
0.00020072707
0.00020055336
0.00020059343
0.00020068592
0.00020079964
0.00020092958
0.00020101135
0.00020107549
0.00020132151
0.00020205603
0.00020227005
0.00019777577
0.00019240787
0.00018707992
0.00018491002
0.00018851976
0.00019383112
0.00019929834
0.00020394688
0.00020771307
0.00021071515
0.00021311885
0.00021507336
0.00021669568
0.00021807276
0.00021926834
0.00022032941
0.00022129133
0.00022218133
0.00022302124
0.00022381778
0.0002172881
0.00021721879
0.00021710998
0.00021693966
0.00021670419
0.00021639605
0.00021600315
0.00021550981
0.00021489491
0.00021413018
0.00021317719
0.00021198964
0.00021052782
0.00020875232
0.00020658234
0.00020405197
0.00020169548
0.00020019149
0.00019961029
0.00019968097
0.00019993392
0.00020013317
0.00020027015
0.00020038883
0.00020033598
0.00020007959
0.00019988396
0.0002001059
0.00020115913
0.0001973574
0.00019062113
0.00018287523
0.00017856568
0.00018410712
0.00019141217
0.00019840142
0.0002038492
0.00020796169
0.00021107315
0.0002134748
0.00021538251
0.00021694504
0.00021826344
0.00021940706
0.00022042468
0.00022135184
0.00022221538
0.00022303659
0.00022382179
0.00021803712
0.00021800323
0.00021793919
0.00021781829
0.00021763711
0.00021738818
0.00021705938
0.00021663436
0.00021609004
0.00021539406
0.00021449881
0.00021333751
0.0002118434
0.00020996063
0.00020753843
0.00020442946
0.00020137655
0.00019968131
0.00019933456
0.00019992984
0.00020061803
0.00020105852
0.00020129094
0.00020152864
0.00020148245
0.00020093614
0.00020033849
0.00019988409
0.00020081988
0.00019972826
0.00019126728
0.00017998872
0.00017090306
0.00017959698
0.00018941847
0.00019821656
0.00020443953
0.00020873761
0.0002118046
0.00021408914
0.00021587109
0.00021732083
0.00021854468
0.00021961145
0.00022056777
0.00022144682
0.00022227339
0.00022306717
0.00022383327
0.00022066925
0.00022071026
0.00022073235
0.00022070366
0.00022062262
0.00022048264
0.00022027292
0.00021997811
0.00021957527
0.00021903102
0.00021829355
0.00021727875
0.00021588387
0.00021403881
0.00021154553
0.00020784359
0.00020375
0.00020207948
0.0002023891
0.00020417346
0.00020576328
0.00020675211
0.00020725248
0.00020795415
0.00020834897
0.00020736614
0.00020626347
0.00020439053
0.00020499756
0.00020349029
0.00019649487
0.00018116973
0.00016218491
0.00017624207
0.00018863169
0.00019943808
0.00020609755
0.00021020174
0.0002129656
0.0002149762
0.00021653874
0.00021781857
0.00021891165
0.00021987755
0.00022075578
0.00022157433
0.00022235421
0.0002231124
0.00022385203
0.00022638261
0.00022651788
0.0002266713
0.00022678922
0.00022686996
0.00022690912
0.00022690017
0.00022683298
0.00022669017
0.00022644391
0.00022604691
0.00022540442
0.00022435248
0.00022274516
0.00022038033
0.00021597737
0.00020943407
0.00020786219
0.00020907762
0.00021308576
0.00021624711
0.00021827374
0.00021904848
0.00022052603
0.00022238937
9.3013891e-05
9.5409721e-05
9.7721441e-05
9.9937671e-05
0.00010296315
9.449992e-05
8.6203837e-05
0.00010662225
0.00017926604
0.00019336438
0.00020406587
0.00020940132
0.000212489
0.00021456648
0.00021611871
0.00021736642
0.00021842303
0.0002193533
0.00022019765
0.00022098354
0.00022173102
0.0002224558
0.00022317119
0.00022387766
0.00023907362
0.00023950911
0.0002399969
0.00024047021
0.00024093869
0.00024140703
0.00024188064
0.00024236391
0.00024285643
0.00024334896
0.00024381377
0.00024416639
0.00024418391
0.00024354819
0.00024218154
0.00023859522
0.0002265721
0.00022855305
0.00023483726
0.00024961458
0.00026156186
0.0002708597
0.0001288176
0.00016850627
0.00032967906
0.0004638846
0.00049956686
0.00049956686
0.00049956686
0.00049956686
0.00049956686
0.00045029568
0.00033646071
6.8073285e-05
0.00021289802
0.00021339608
0.00021432448
0.0002154484
0.00021649733
0.00021744782
0.00021831161
0.00021910752
0.00021985249
0.00022056064
0.00022124379
0.00022191226
0.00022257534
0.000223242
0.0002239095
0.00026381861
0.0002647991
0.00026592159
0.00026708638
0.00026831506
0.00026963318
0.00027107549
0.00027268543
0.00027451621
0.00027663504
0.00027913186
0.00028212012
0.00028570436
0.00028995589
0.00029513776
0.00030412271
0.00027252099
0.00030201965
0.0003547847
0.00037785828
0.00027454167
0.00031856179
0.00049956686
0.00049956686
0.00049956686
0.00049956686
0.00049956686
0.00049956686
0.00049956686
0.00049956686
0.000412693
0.00041835734
0.00010206954
0.00026641745
0.0002310457
0.0002220288
0.00021922051
0.00021848914
0.00021851558
0.00021884889
0.00021931354
0.00021983694
0.00022038779
0.00022095291
0.00022152781
0.00022211246
0.00022270938
0.00022332288
0.0002239467
0.00030148782
0.0003035841
0.00030566795
0.00030782535
0.00031013258
0.00031266399
0.00031550617
0.00031877139
0.0003226153
0.00032727329
0.00033313156
0.00034078392
0.00035080083
0.00036355157
0.00038301877
0.00040036884
0.00024729229
0.00025200414
0.00024979929
0.00048967365
0.00047742617
0.00048793505
0.00047871607
0.00047374055
0.00047747415
0.00045868098
0.00045174565
0.00045354155
0.00044097021
0.00043656455
0.0001069712
0.00010772165
0.00021992343
0.00025237488
0.00023686846
0.00022734678
0.00022306319
0.00022117476
0.00022041175
0.00022021261
0.00022031089
0.00022057483
0.00022093651
0.00022135995
0.00022182614
0.00022232549
0.00022285406
0.00022341159
0.00022398826
0.00028973441
0.00029025651
0.00029046055
0.00029066866
0.00029087887
0.00029111874
0.00029140921
0.00029178161
0.00029228321
0.00029298669
0.00029400497
0.00029517628
0.00029601057
0.00029657011
0.00029365295
0.00010374001
0.00037742393
0.00047152399
0.00046941943
0.00049379736
0.00048612343
0.0004824446
0.00012428596
0.00012134495
0.00010082068
0.00010010357
0.00010067763
0.00010202403
0.00010297953
0.00010457371
0.00020131515
0.00020779198
0.00021820494
0.00023914038
0.00023955896
0.00023070243
0.00022590829
0.00022337487
0.00022207225
0.00022146187
0.00022125388
0.00022128905
0.00022147761
0.00022176779
0.00022212944
0.00022254516
0.00022300539
0.00022350577
0.00022403308
0.00022342403
0.00022324883
0.00022294995
0.00022265764
0.00022237843
0.00022212889
0.0002219245
0.00022178806
0.00022175138
0.00022185833
0.00022217034
0.00022222713
0.0002213362
0.00021963988
0.00021701121
0.00021385508
9.5985223e-05
9.9229682e-05
9.9938786e-05
9.9838214e-05
0.00010020982
0.00010023416
0.00021265345
0.0002109238
0.00020903809
0.00020565161
0.00020454063
0.00020398158
0.00020220928
0.00020222662
0.00020340413
0.00020911765
0.00021834837
0.00023228456
0.00023803617
0.00023242984
0.00022781203
0.0002250501
0.00022344204
0.00022254978
0.00022210748
0.00022195463
0.00022199355
0.00022216414
0.00022242916
0.00022276558
0.00022315947
0.00022360303
0.00022408002
0.00021919967
0.00021927054
0.00021938704
0.00021951263
0.00021965861
0.00021983698
0.00022006004
0.00022034356
0.00022070657
0.00022117132
0.00022176382
0.00022172026
0.00022100302
0.00021981975
0.00021815755
0.00021545779
0.00021274177
0.00021418654
0.00021599552
0.00021434146
0.00021250293
0.00021133061
0.000210168
0.00020844308
0.00020740473
0.00020578435
0.00020487588
0.00020429988
0.0002035737
0.00020404244
0.00020602681
0.00021098691
0.00021864957
0.00022820433
0.00023391804
0.0002331356
0.00022897945
0.00022624976
0.00022451659
0.00022345724
0.00022285174
0.00022255472
0.00022247119
0.00022253913
0.00022271803
0.00022298154
0.00022331271
0.00022370111
0.00022412797
0.00021780164
0.00021787599
0.00021799554
0.00021812835
0.00021827742
0.00021845013
0.00021865471
0.00021890195
0.00021920399
0.00021957388
0.00022002147
0.00021962274
0.00021889331
0.00021786278
0.00021651213
0.00021471616
0.00021348051
0.00021427229
0.00021537586
0.00021360181
0.00021200808
0.00021078663
0.00020962743
0.00020840988
0.00020745177
0.00020639043
0.00020573837
0.00020537677
0.00020530221
0.00020617803
0.00020842221
0.00021271304
0.00021885211
0.0002257029
0.00023038048
0.00023232608
0.00022959082
0.00022704846
0.00022531833
0.00022418459
0.0002234791
0.00022308003
0.00022290187
0.00022288549
0.0002229903
0.00022318867
0.00022346195
0.00022379795
0.00022417588
0.00021711833
0.00021723422
0.00021736881
0.00021751462
0.00021767772
0.00021786449
0.00021808106
0.00021833484
0.00021863275
0.00021898003
0.00021932076
0.00021890341
0.00021827893
0.00021742649
0.00021632371
0.00021507475
0.00021439352
0.00021485373
0.00021512181
0.00021350248
0.00021210814
0.00021095668
0.0002098985
0.00020891561
0.00020809361
0.00020735648
0.00020693668
0.00020682106
0.00020711677
0.00020820951
0.00021042175
0.00021407907
0.00021895595
0.00022409013
0.00022793698
0.00023028468
0.00022981412
0.00022752987
0.00022588416
0.00022474477
0.00022399126
0.00022352753
0.00022328101
0.00022319854
0.0002232418
0.00022338354
0.0002236046
0.00022389178
0.00022422283
0.00021682884
0.00021689888
0.00021701122
0.00021714234
0.00021729054
0.00021745938
0.00021765265
0.00021787523
0.00021813103
0.00021842173
0.00021862012
0.0002182525
0.0002177441
0.00021708767
0.0002162878
0.00021549675
0.00021515303
0.00021551029
0.00021506131
0.00021367153
0.00021245208
0.00021140832
0.00021047584
0.00020965529
0.00020898013
0.00020846108
0.00020821946
0.00020829175
0.00020879495
0.00020997001
0.00021203482
0.00021513175
0.00021902999
0.00022301821
0.00022620813
0.00022836591
0.00022931212
0.00022776781
0.00022625453
0.00022515723
0.00022439592
0.00022389882
0.00022360733
0.00022347585
0.00022346985
0.0002235637
0.00022373862
0.00022398113
0.00022426803
0.00021668622
0.00021679655
0.00021691923
0.00021705183
0.0002171985
0.00021736239
0.00021754527
0.00021774905
0.00021797391
0.00021821699
0.00021834135
0.00021801173
0.00021757996
0.00021705207
0.00021646078
0.00021595175
0.0002157911
0.00021604639
0.00021510122
0.00021392452
0.00021286891
0.00021194722
0.00021114029
0.00021045641
0.00020991896
0.00020956097
0.00020945791
0.00020966249
0.00021027609
0.00021145465
0.00021333403
0.00021595842
0.00021911566
0.00022230257
0.00022497203
0.00022691449
0.00022814155
0.00022782767
0.00022646891
0.00022544405
0.00022470426
0.0002241987
0.00022388209
0.00022371686
0.00022367308
0.00022372754
0.00022386256
0.00022406487
0.00022431084
0.00021661495
0.00021668361
0.00021678805
0.000216909
0.0002170442
0.00021719487
0.00021736131
0.00021754387
0.00021774085
0.00021794718
0.0002180527
0.00021778425
0.00021744586
0.00021705018
0.00021663999
0.00021633322
0.00021629503
0.00021620533
0.00021518343
0.00021419533
0.0002132926
0.00021249632
0.00021181
0.00021124764
0.00021083248
0.00021060046
0.00021060622
0.00021090249
0.00021156936
0.00021270846
0.00021439771
0.00021663057
0.00021922539
0.00022182883
0.0002240832
0.00022581453
0.00022699757
0.00022751555
0.00022656159
0.00022562697
0.00022492894
0.00022443386
0.0002241083
0.00022392244
0.00022385122
0.00022387427
0.00022397547
0.00022414221
0.00022435078
0.00021656334
0.00021665393
0.00021675952
0.00021687415
0.00021699957
0.00021713688
0.00021728532
0.00021744387
0.0002176094
0.00021777557
0.00021787455
0.00021765116
0.00021738345
0.00021708928
0.00021681252
0.00021664302
0.00021665886
0.00021612745
0.00021528944
0.0002144655
0.00021370336
0.00021302894
0.00021245685
0.00021200498
0.00021169724
0.00021156717
0.0002116579
0.00021201584
0.00021270116
0.00021377897
0.0002152887
0.00021719963
0.0002193626
0.00022152708
0.00022344767
0.00022498428
0.00022609729
0.00022681696
0.00022656252
0.00022572622
0.0002250828
0.00022461193
0.0002242901
0.00022409452
0.00022400484
0.00022400373
0.00022407688
0.00022421263
0.00022438751
0.00021653364
0.00021660013
0.00021669452
0.00021680103
0.00021691767
0.00021704429
0.00021717915
0.00021732025
0.0002174635
0.00021760179
0.0002177087
0.00021754311
0.00021734164
0.00021713398
0.00021696032
0.00021688818
0.00021673783
0.00021610306
0.00021541615
0.00021473441
0.0002140998
0.00021353975
0.0002130739
0.00021272223
0.0002125084
0.00021246225
0.00021261889
0.00021301654
0.00021369881
0.00021470589
0.00021605287
0.00021769953
0.0002195259
0.00022135127
0.00022300078
0.0002243629
0.00022539455
0.00022610557
0.00022638804
0.00022575939
0.00022517798
0.00022474073
0.0002244322
0.00022423568
0.00022413516
0.00022411631
0.00022416672
0.00022427589
0.00022442083
0.00021651217
0.00021658491
0.00021667536
0.00021677374
0.00021687983
0.00021699344
0.0002171124
0.00021723423
0.00021735449
0.00021746616
0.00021755859
0.00021746581
0.00021731862
0.0002171794
0.00021708277
0.00021699515
0.00021664015
0.00021612205
0.00021556145
0.00021500319
0.00021448332
0.00021402859
0.0002136603
0.00021339894
0.00021326698
0.00021329042
0.00021349791
0.00021391963
0.00021458611
0.00021552058
0.0002167234
0.00021815268
0.00021971267
0.0002212704
0.00022269752
0.00022390541
0.00022485269
0.00022553776
0.00022598504
0.00022574165
0.00022522554
0.00022482789
0.00022453957
0.00022434893
0.00022424384
0.00022421276
0.00022424522
0.00022433197
0.00022445066
0.00021650397
0.00021656494
0.00021664812
0.00021673961
0.00021683763
0.00021694135
0.00021704817
0.0002171553
0.00021725819
0.00021735013
0.00021742163
0.00021740585
0.00021730446
0.00021721975
0.0002171414
0.00021695045
0.00021659763
0.00021617677
0.00021572333
0.00021527269
0.00021485551
0.00021449664
0.0002142171
0.00021403675
0.0002139762
0.00021405771
0.00021430447
0.00021473948
0.00021538333
0.00021624774
0.00021732473
0.00021857448
0.00021992061
0.0002212633
0.00022250611
0.00022357847
0.00022444288
0.00022509174
0.00022553889
0.00022567113
0.00022523524
0.00022488051
0.00022461709
0.00022443747
0.00022433282
0.00022429415
0.00022431287
0.00022438101
0.00022447701
0.00021650307
0.00021656301
0.00021664107
0.00021672529
0.00021681448
0.00021690777
0.00021700244
0.00021709565
0.00021718306
0.00021725856
0.00021731395
0.0002173331
0.00021728264
0.00021721658
0.00021710362
0.00021688551
0.00021659792
0.00021625993
0.00021589867
0.00021554234
0.00021521691
0.00021494475
0.00021474553
0.00021463769
0.00021463959
0.00021476999
0.00021504732
0.00021548856
0.0002161068
0.00021690616
0.00021787426
0.00021897497
0.00022014708
0.00022131431
0.00022240279
0.00022335612
0.0002241414
0.00022474832
0.00022518397
0.00022546657
0.0002252154
0.000224905
0.00022466944
0.0002245045
0.00022440418
0.00022436173
0.00022437034
0.00022442332
0.00022449998
0.00021651085
0.00021656472
0.00021663737
0.00021671554
0.0002167975
0.00021688222
0.00021696693
0.0002170489
0.0002171241
0.00021718719
0.00021723128
0.00021724803
0.000217228
0.00021716141
0.00021703997
0.00021686152
0.0002166316
0.00021636546
0.00021608441
0.00021581125
0.00021556786
0.00021537396
0.00021524731
0.00021520446
0.00021526135
0.00021543346
0.00021573508
0.00021617828
0.00021677058
0.00021751111
0.00021838555
0.00021936187
0.00022039073
0.00022141284
0.0002223708
0.00022321933
0.00022393018
0.00022449228
0.00022490856
0.00022519165
0.00022517339
0.00022490717
0.00022470101
0.00022455321
0.00022446008
0.00022441688
0.00022441841
0.00022445928
0.00022451971
0.00021652467
0.00021657561
0.00021664366
0.00021671596
0.00021679098
0.00021686769
0.00021694342
0.00021701565
0.00021708081
0.00021713435
0.00021717065
0.00021718317
0.00021716484
0.00021710889
0.00021701023
0.00021686898
0.00021669061
0.0002164876
0.00021627712
0.00021607777
0.00021590797
0.00021578478
0.00021572381
0.00021573948
0.00021584524
0.00021605355
0.00021637514
0.00021681807
0.00021738574
0.00021807409
0.00021886823
0.00021974016
0.00022064975
0.00022155033
0.00022239673
0.00022315253
0.00022379385
0.00022430998
0.00022470146
0.00022497713
0.00022510319
0.00022489199
0.00022471573
0.00022458653
0.00022450264
0.00022446099
0.00022445791
0.00022448931
0.00022453636
0.00021654395
0.00021659121
0.0002166551
0.0002167224
0.00021679147
0.00021686135
0.00021692951
0.00021699373
0.00021705096
0.00021709747
0.00021712881
0.00021714005
0.00021712616
0.00021708268
0.00021700689
0.00021690039
0.00021676843
0.00021662151
0.00021647372
0.00021634039
0.00021623693
0.0002161779
0.00021617668
0.00021624546
0.00021639526
0.00021663577
0.00021697462
0.00021741659
0.00021796205
0.0002186049
0.00021933046
0.00022011434
0.00022092367
0.00022172127
0.00022247131
0.00022314447
0.00022372088
0.00022419083