/*--------------------------------*- C++ -*----------------------------------*\
| =========                 |                                                 |
| \\      /  F ield         | foam-extend: Open Source CFD                    |
|  \\    /   O peration     | Version:     4.1                                |
|   \\  /    A nd           | Web:         http://www.foam-extend.org         |
|    \\/     M anipulation  |                                                 |
\*---------------------------------------------------------------------------*/
FoamFile
{
    version     2.0;
    format      ascii;
    class       volScalarField;
    location    "1.3";
    object      p;
}
// * * * * * * * * * * * * * * * * * * * * * * * * * * * * * * * * * * * * * //

dimensions      [0 2 -2 0 0 0 0];

internalField   nonuniform List<scalar> 
16796
(
-0.0014879516
-2.9589693e-05
-0.0015541504
-0.0010845029
-0.0019637704
-0.0019511647
-0.0025530007
-0.0027614661
-0.003255465
-0.0035825306
-0.0040490562
-0.004452611
-0.004931996
-0.0053973234
-0.0059120674
-0.006436995
-0.0070017725
-0.0075899777
-0.0082161366
-0.0088741121
-0.00957167
-0.010307317
-0.011085806
-0.011907734
-0.012776495
-0.013693604
-0.014661801
-0.015682951
-0.016759404
-0.017893076
-0.019085965
-0.020339849
-0.021656328
-0.023036821
-0.02448245
-0.025994072
-0.027572164
-0.029216821
-0.030927664
-0.032703799
-0.034543764
-0.036445417
-0.038405961
-0.040421769
-0.042488429
-0.044600594
-0.046752
-0.04893537
-0.051142401
-0.053363727
-0.055588912
-0.057806446
-0.060003771
-0.062167315
-0.06428255
-0.06633408
-0.06830574
-0.07018072
-0.071941718
-0.073571104
-0.075051106
-0.076364021
-0.077492421
-0.078419395
-0.07912877
-0.079605362
-0.079835196
-0.079805755
-0.079506165
-0.078927464
-0.078062672
-0.076907107
-0.075458453
-0.073716726
-0.071684468
-0.069366721
-0.066771035
-0.063907411
-0.060788211
-0.057428023
-0.053843496
-0.050053121
-0.046077018
-0.041936626
-0.037654475
-0.033253811
-0.028758369
-0.024191967
-0.019578313
-0.014940594
-0.010301335
-0.0056820412
-0.0011030978
0.0034165005
0.0078591927
0.012209035
0.016451681
0.020574485
0.024566419
0.028418105
0.032121697
0.035670843
0.039060558
0.04228713
0.045347999
0.048241607
0.050967345
0.053525283
0.055916308
0.058141567
0.060203087
0.06210246
0.063842742
0.0654251
0.066854061
0.068128751
0.069256996
0.070232187
0.071070823
0.071751258
0.072313313
0.072696081
0.073001719
0.073068514
-0.0014856872
-2.907361e-05
-0.001551295
-0.0010820294
-0.0019598553
-0.0019470186
-0.0025477954
-0.0027557401
-0.0032488356
-0.0035752328
-0.0040409074
-0.0044437082
-0.004922247
-0.0053867627
-0.0059006438
-0.0064247154
-0.0069886054
-0.0075759192
-0.0082011665
-0.0088582244
-0.0095548533
-0.010289569
-0.011067125
-0.011888125
-0.012755969
-0.013672178
-0.014639502
-0.015659813
-0.016735473
-0.017868409
-0.019060635
-0.02031394
-0.021629943
-0.023010079
-0.024455492
-0.025967057
-0.027545274
-0.029190262
-0.030901667
-0.03267862
-0.034519685
-0.036422745
-0.03838503
-0.040402937
-0.042472076
-0.044587123
-0.046741831
-0.048928935
-0.051140144
-0.053366095
-0.05559635
-0.057819387
-0.060022632
-0.062192485
-0.064314385
-0.066372892
-0.068351785
-0.070234193
-0.072002743
-0.073639726
-0.075127284
-0.076447623
-0.077583222
-0.07851707
-0.079232898
-0.079715424
-0.079950579
-0.079925761
-0.079630012
-0.079054302
-0.078191578
-0.077037148
-0.07558874
-0.073846345
-0.071812499
-0.069492245
-0.066893146
-0.064025229
-0.06090089
-0.057534765
-0.053943562
-0.05014584
-0.046161797
-0.04201296
-0.037721956
-0.03331213
-0.028807326
-0.024231467
-0.019608369
-0.014961322
-0.010312949
-0.0056848448
-0.0010974776
0.0034300906
0.0078802393
0.012236981
0.016485938
0.020614446
0.024611468
0.028467631
0.032175103
0.035727554
0.039120031
0.042348854
0.045411506
0.048306469
0.051033182
0.053591759
0.055983133
0.058208495
0.060269914
0.062169025
0.06390892
0.065490803
0.066919232
0.068193366
0.069321051
0.070295709
0.071133847
0.071813856
0.07237554
0.072758051
0.073063475
0.07313023
-0.0014812563
-2.8323989e-05
-0.0015457917
-0.0010774158
-0.0019523182
-0.0019390964
-0.0025377517
-0.0027447103
-0.0032360188
-0.0035611281
-0.0040251358
-0.0044264796
-0.004903373
-0.0053663222
-0.005878536
-0.0064009617
-0.0069631473
-0.0075487558
-0.0081722635
-0.0088275772
-0.0095224467
-0.010255406
-0.01103121
-0.011850479
-0.012716621
-0.013631174
-0.014596901
-0.015615697
-0.016689943
-0.017821591
-0.019012679
-0.020265028
-0.021580288
-0.022959929
-0.024405131
-0.025916812
-0.027495513
-0.029141398
-0.03085416
-0.032632977
-0.034476463
-0.036382549
-0.038348512
-0.040370794
-0.042445048
-0.044565987
-0.046727396
-0.048922035
-0.051141627
-0.053376815
-0.055617152
-0.057851097
-0.06006604
-0.062248328
-0.064383333
-0.066455527
-0.068448586
-0.07034552
-0.072128816
-0.073780616
-0.075282896
-0.076617689
-0.07776729
-0.078714503
-0.079442871
-0.079936929
-0.080182432
-0.080166607
-0.079878344
-0.079308475
-0.078449813
-0.077297587
-0.075849507
-0.074105513
-0.072068114
-0.069742363
-0.06713585
-0.06425866
-0.061123274
-0.057744437
-0.054138993
-0.050325657
-0.046324811
-0.042158177
-0.037848597
-0.033419638
-0.028895377
-0.024299964
-0.019657446
-0.014991325
-0.010324431
-0.005678536
-0.0010742733
0.0034691651
0.0079340469
0.012304309
0.016565517
0.020704985
0.024711672
0.028576228
0.032290861
0.035849299
0.039246659
0.042479344
0.045544924
0.048441977
0.051170036
0.053729312
0.056120835
0.058345885
0.060406621
0.062304762
0.064043474
0.065624036
0.067051066
0.068323787
0.069450088
0.070423452
0.071260398
0.071939394
0.0725002
0.072882101
0.073187022
0.073253667
-0.0014745965
-2.7129163e-05
-0.0015374706
-0.001070397
-0.0019409163
-0.0019270971
-0.0025225662
-0.0027280304
-0.0032166493
-0.0035398117
-0.0040013056
-0.0044004466
-0.0048748544
-0.0053354335
-0.0058451241
-0.006365056
-0.0069246576
-0.0075076778
-0.0081285429
-0.0087812037
-0.0094733938
-0.010203675
-0.010976804
-0.011793423
-0.012656956
-0.013568963
-0.014532232
-0.015548685
-0.016620735
-0.01775037
-0.018939668
-0.020190493
-0.021504545
-0.022883345
-0.024328132
-0.025839883
-0.027419206
-0.029066332
-0.030781026
-0.032562538
-0.034409558
-0.03632009
-0.038291485
-0.040320254
-0.042402117
-0.044531845
-0.046703272
-0.048909198
-0.051141369
-0.053390438
-0.05564595
-0.057896331
-0.060128918
-0.062329983
-0.06448479
-0.066577685
-0.068592184
-0.070511114
-0.072316755
-0.073991017
-0.075515627
-0.076872349
-0.078043202
-0.079010707
-0.07975812
-0.080269697
-0.080530923
-0.08052877
-0.080251896
-0.079690927
-0.07883849
-0.077689695
-0.07624223
-0.074495972
-0.072453392
-0.070119557
-0.067502095
-0.064611182
-0.061459415
-0.058061703
-0.054435086
-0.05059851
-0.046572625
-0.042379439
-0.038042119
-0.033584555
-0.029031177
-0.024406471
-0.019734831
-0.015040076
-0.01034535
-0.0056726917
-0.0010429855
0.0035243792
0.0080114985
0.012402193
0.01668194
0.020838018
0.024859377
0.0287367
0.03246225
0.036029844
0.039434698
0.042673341
0.045743471
0.048643808
0.051374028
0.053934487
0.056326356
0.058551056
0.060610875
0.062507657
0.064244684
0.065823344
0.067248346
0.068519013
0.069643293
0.070614764
0.071449963
0.072127472
0.072686988
0.073067995
0.073372176
0.073438665
-0.0014657952
-2.562934e-05
-0.0015264959
-0.0010611934
-0.0019258761
-0.00191129
-0.0025025215
-0.0027060185
-0.0031910675
-0.0035116584
-0.0039698215
-0.0043660513
-0.0048371699
-0.005294617
-0.0058009726
-0.006317611
-0.0068738006
-0.0074534055
-0.0080707849
-0.008719949
-0.0094086093
-0.010135365
-0.010904974
-0.011718112
-0.012578218
-0.013486887
-0.014446935
-0.015460325
-0.01652951
-0.017656527
-0.018843505
-0.020092369
-0.02140488
-0.022782632
-0.024226937
-0.025738855
-0.027319078
-0.028967929
-0.030685265
-0.032470437
-0.034322229
-0.036238747
-0.038217435
-0.040254901
-0.042346948
-0.044488425
-0.046673234
-0.048894224
-0.051143177
-0.053410755
-0.055686493
-0.057958777
-0.060214873
-0.062440951
-0.06462214
-0.06674261
-0.068785673
-0.070733909
-0.072569323
-0.074273518
-0.075827889
-0.077213844
-0.078413034
-0.079407601
-0.080180423
-0.080715379
-0.080997598
-0.08101371
-0.080752061
-0.080202999
-0.079358902
-0.078214693
-0.076767996
-0.075018602
-0.072968926
-0.070624054
-0.067991667
-0.06508206
-0.061907998
-0.058484609
-0.05482921
-0.050961064
-0.046901189
-0.042671992
-0.038297081
-0.033800795
-0.029208045
-0.024543776
-0.019832859
-0.015099542
-0.010367394
-0.0056588135
-0.00099502324
0.0036043256
0.0081211021
0.012538976
0.016843315
0.021021353
0.025062038
0.028956105
0.032695899
0.036275362
0.039689854
0.042936074
0.046011901
0.048916251
0.051648993
0.054210682
0.05660268
0.058826596
0.060884895
0.062779592
0.064514119
0.066090013
0.067512105
0.068779847
0.069901269
0.070870076
0.071702823
0.072378253
0.072935968
0.073315726
0.073618875
0.07368514
-0.001454813
-2.3714419e-05
-0.0015127486
-0.0010496374
-0.0019070269
-0.0018914719
-0.0024774044
-0.0026784352
-0.0031590166
-0.0034763851
-0.003930376
-0.0043229559
-0.0047899505
-0.0052434679
-0.0057456374
-0.0062581391
-0.0068100408
-0.0073853504
-0.0079983431
-0.0086431026
-0.009327313
-0.010049619
-0.010814783
-0.011623517
-0.012479282
-0.013383715
-0.014339669
-0.015349155
-0.016414678
-0.017538334
-0.01872232
-0.019968631
-0.021279112
-0.022655442
-0.024099029
-0.025611036
-0.027192262
-0.028843145
-0.030563662
-0.032353286
-0.034210926
-0.036134814
-0.038122519
-0.040170764
-0.042275466
-0.044431574
-0.046633076
-0.048872887
-0.051142835
-0.053433601
-0.055734704
-0.058034486
-0.060320126
-0.062577666
-0.064792063
-0.066947273
-0.069026342
-0.071011547
-0.072884542
-0.074626541
-0.076218516
-0.077641428
-0.078876458
-0.079905267
-0.080710253
-0.081274821
-0.081583644
-0.081622921
-0.081380608
-0.080846697
-0.08001327
-0.078875004
-0.077429436
-0.075676268
-0.073617836
-0.071259253
-0.068608263
-0.06567531
-0.062473364
-0.059017829
-0.055326363
-0.051418623
-0.047316093
-0.043041675
-0.038619536
-0.034074579
-0.02943232
-0.024718288
-0.019957956
-0.015176115
-0.010396875
-0.0056430893
-0.00093641
0.0037031808
0.0082572631
0.012709317
0.01704457
0.021250205
0.025315164
0.02923025
0.032987914
0.036582255
0.040008817
0.043264516
0.04634746
0.049256809
0.051992679
0.054555875
0.056948001
0.059170904
0.061227268
0.063119322
0.064850689
0.066423094
0.067841518
0.069105577
0.070223403
0.071188858
0.072018524
0.072691339
0.073246791
0.07362498
0.073926834
0.073992822
-0.0014417172
-2.1465019e-05
-0.0014963544
-0.0010358825
-0.0018845439
-0.0018678445
-0.0024474355
-0.0026455262
-0.0031207632
-0.003434284
-0.0038832858
-0.0042715051
-0.0047335691
-0.0051823901
-0.0056795549
-0.0061871116
-0.0067338863
-0.0073040602
-0.0079118066
-0.0085512981
-0.0092301852
-0.0099471682
-0.010707011
-0.011510473
-0.012361041
-0.013260401
-0.014211449
-0.015216256
-0.016277386
-0.017397009
-0.018577399
-0.01982064
-0.021128672
-0.02250328
-0.023945987
-0.025458075
-0.027040477
-0.028693767
-0.030418066
-0.032212994
-0.034077613
-0.036010305
-0.038008788
-0.040069932
-0.042189787
-0.044363427
-0.046584942
-0.048847334
-0.051142486
-0.053461103
-0.055792695
-0.058125546
-0.060446737
-0.062742159
-0.064996565
-0.06719365
-0.069316149
-0.071345967
-0.073264337
-0.075052005
-0.076689432
-0.078157036
-0.079435428
-0.080505688
-0.08134963
-0.081950083
-0.082291167
-0.082358557
-0.082139735
-0.081624253
-0.080803839
-0.079672846
-0.078228692
-0.076470971
-0.074401918
-0.072026676
-0.069353063
-0.066391707
-0.063155827
-0.05966116
-0.055925784
-0.05196984
-0.047815381
-0.04348592
-0.03900631
-0.034402144
-0.02969969
-0.024925187
-0.020104852
-0.01526414
-0.010427824
-0.0056193126
-0.00086078156
0.0038273886
0.0084264286
0.012919596
0.017291951
0.021530625
0.025624561
0.029564656
0.033343494
0.036955377
0.040396079
0.043662784
0.046753886
0.049668846
0.052408084
0.054972711
0.057364626
0.059585962
0.061639675
0.063528252
0.065255545
0.066823505
0.068237294
0.069496726
0.070610053
0.071571329
0.072397163
0.073066731
0.073619378
0.073995622
0.074295872
0.074361513
-0.0014264825
-1.8818309e-05
-0.0014772346
-0.0010198231
-0.001858313
-0.0018402746
-0.0024124719
-0.0026071319
-0.0030761345
-0.0033851647
-0.0038283429
-0.0042114694
-0.0046677733
-0.0051111045
-0.0056024166
-0.0061041869
-0.0066449588
-0.0072091152
-0.0078107105
-0.0084440202
-0.0091166552
-0.0098273797
-0.010580961
-0.01137821
-0.012222645
-0.013116008
-0.014061246
-0.015060497
-0.016116397
-0.0172312
-0.01840727
-0.019646795
-0.020951826
-0.022324273
-0.023765791
-0.025277808
-0.026861408
-0.028517329
-0.030245861
-0.0320468
-0.033919387
-0.035862186
-0.037873092
-0.039949149
-0.042086569
-0.044280575
-0.046525387
-0.048814108
-0.051138694
-0.053489885
-0.05585718
-0.058228806
-0.060591728
-0.062931665
-0.065233132
-0.067479523
-0.069653201
-0.071735636
-0.073707564
-0.075549177
-0.077240329
-0.078760793
-0.080090506
-0.081209855
-0.082099962
-0.082742969
-0.083122345
-0.083223134
-0.083032265
-0.082538764
-0.081733952
-0.080611785
-0.079169533
-0.077406678
-0.075325324
-0.072930655
-0.070230571
-0.067235909
-0.063960178
-0.060419507
-0.056632466
-0.052619761
-0.04840412
-0.044009772
-0.03946239
-0.034788382
-0.030014914
-0.025169067
-0.020277951
-0.015367806
-0.010464203
-0.0055912047
-0.00077161481
0.0039737172
0.0086256064
0.013167051
0.017582919
0.021860284
0.025988095
0.029957367
0.033760851
0.037393091
0.04085014
0.044129506
0.047229922
0.050151211
0.052894152
0.055460219
0.057851659
0.060070949
0.062121359
0.06400568
0.065728037
0.067290641
0.06869887
0.069952768
0.071060725
0.072017021
0.072838295
0.073504003
0.074053318
0.074427255
0.074725602
0.074790835
-0.0014091554
-1.5828976e-05
-0.0014554847
-0.0010015738
-0.0018284719
-0.00180892
-0.00237269
-0.0025634489
-0.0030253458
-0.0033292627
-0.0037658026
-0.0041431258
-0.0045928618
-0.0050299331
-0.0055145684
-0.0060097358
-0.0065436549
-0.0071009391
-0.007695506
-0.0083217488
-0.0089872322
-0.0096907934
-0.010437202
-0.01122733
-0.012064727
-0.012951201
-0.013889756
-0.014882607
-0.015932471
-0.017041696
-0.018212751
-0.01944794
-0.020749444
-0.022119313
-0.023559354
-0.025071162
-0.026655996
-0.028314781
-0.030048003
-0.031855662
-0.033737205
-0.035691406
-0.03771637
-0.03980934
-0.041966723
-0.044183914
-0.046455288
-0.048774074
-0.051132314
-0.053520795
-0.055929011
-0.058345128
-0.060755988
-0.063147111
-0.065502747
-0.067805943
-0.070038638
-0.072181803
-0.074215597
-0.076119572
-0.077872879
-0.079454543
-0.080843716
-0.08201998
-0.082963649
-0.083656068
-0.084079942
-0.084219587
-0.084061281
-0.083593435
-0.082806903
-0.081695158
-0.080255282
-0.078486641
-0.07639117
-0.073974105
-0.071243431
-0.068210227
-0.064888336
-0.061294338
-0.057447373
-0.053368804
-0.04908215
-0.044612474
-0.039986413
-0.035231329
-0.030375446
-0.025446833
-0.020473652
-0.015483063
-0.010501576
-0.0055540151
-0.00066392158
0.0041473164
0.0088600305
0.01345693
0.017922661
0.022244249
0.026410661
0.030413059
0.034244401
0.037899528
0.041374823
0.044668183
0.047778741
0.050706745
0.053453399
0.0560206
0.058411003
0.060627479
0.062673665
0.064552705
0.066269033
0.067825165
0.06922672
0.07047401
0.071575582
0.072525973
0.073341851
0.074003001
0.074548387
0.074919603
0.07521571
0.075280458
-0.0013897177
-1.2460949e-05
-0.0014310551
-0.00098107074
-0.0017949497
-0.0017736993
-0.0023280018
-0.0025143791
-0.0029682902
-0.0032664599
-0.0036955348
-0.0040663296
-0.0045086733
-0.0049386954
-0.0054158078
-0.0059035305
-0.0064297183
-0.0069792432
-0.0075658683
-0.0081841184
-0.0088415054
-0.0095369479
-0.010275217
-0.011057252
-0.011886641
-0.01276526
-0.013696179
-0.014681699
-0.015724626
-0.016827415
-0.017992651
-0.019222772
-0.020520101
-0.021886848
-0.023324994
-0.024836319
-0.026422284
-0.028084028
-0.029822257
-0.031637206
-0.03352856
-0.035495334
-0.037535874
-0.039647658
-0.041827316
-0.04407045
-0.046371615
-0.048724189
-0.051120325
-0.05355087
-0.056005323
-0.058471787
-0.060936968
-0.063386176
-0.065803357
-0.06817117
-0.070471075
-0.072683473
-0.074787867
-0.076763073
-0.078587439
-0.080239129
-0.081696391
-0.082937883
-0.083942987
-0.08469213
-0.085167139
-0.085351489
-0.085230717
-0.084792518
-0.084027225
-0.082927732
-0.081490907
-0.079715995
-0.077604728
-0.075162396
-0.072397079
-0.069320123
-0.065945747
-0.062291037
-0.058375784
-0.054222095
-0.049854398
-0.045298706
-0.040582774
-0.035735055
-0.030785009
-0.025761837
-0.02069493
-0.015612506
-0.010542171
-0.0055096204
-0.00053925399
0.0043469296
0.0091287043
0.013788459
0.018310594
0.022682091
0.026891945
0.030931508
0.034793982
0.038474561
0.04197002
0.045278708
0.048400226
0.051335315
0.054085666
0.056653666
0.059042434
0.061255296
0.063296305
0.065169005
0.066878183
0.068426697
0.069820443
0.071060029
0.07215418
0.073097724
0.073907359
0.074563241
0.075104091
0.075472169
0.075765695
0.075829888
-0.0013681995
-8.7567539e-06
-0.0014040202
-0.0009584056
-0.0017578589
-0.0017347426
-0.0022785543
-0.0024600871
-0.0029051487
-0.0031969545
-0.0036177543
-0.0039813129
-0.0044154572
-0.0048376583
-0.0053064192
-0.0057858735
-0.006303469
-0.0068443653
-0.0074221523
-0.0080315006
-0.0086798629
-0.0093662468
-0.010095425
-0.01086841
-0.011688829
-0.012558637
-0.013480975
-0.014458237
-0.015493328
-0.016588822
-0.017747433
-0.018971743
-0.020264236
-0.0216273
-0.023063108
-0.024573651
-0.026160612
-0.027825369
-0.029568881
-0.031391643
-0.033293613
-0.035274078
-0.03733166
-0.039464105
-0.0416683
-0.043940086
-0.046274231
-0.04866429
-0.051102549
-0.053579934
-0.056085957
-0.058608666
-0.061134625
-0.063648911
-0.066135142
-0.068575544
-0.070951043
-0.073241399
-0.075425377
-0.077480962
-0.079385591
-0.08111645
-0.082650761
-0.083966128
-0.085040873
-0.085854377
-0.086387465
-0.086622656
-0.08654464
-0.086140298
-0.085399373
-0.084314084
-0.082881041
-0.081099369
-0.078970552
-0.076499941
-0.07369571
-0.070569503
-0.067135957
-0.06341272
-0.05942032
-0.0551817
-0.050722326
-0.046069288
-0.041251625
-0.036299036
-0.031242407
-0.026112234
-0.020939333
-0.015753127
-0.010582492
-0.0054541108
-0.00039337142
0.0045770446
0.0094362759
0.014166367
0.018751444
0.023178463
0.027436468
0.031517046
0.035413693
0.039122025
0.042639273
0.045964316
0.049097293
0.052039517
0.054793234
0.057361389
0.059747632
0.061955799
0.063990417
0.065855477
0.067556161
0.069095713
0.070480332
0.071710959
0.072796514
0.073732148
0.074534591
0.075184412
0.075720054
0.076084529
0.076375095
0.076438648
-0.0013445869
-4.6979069e-06
-0.0013743513
-0.00093354487
-0.0017171615
-0.0016920081
-0.0022243023
-0.0024005234
-0.002835867
-0.0031206861
-0.0035323933
-0.0038879987
-0.0043131253
-0.00472672
-0.0051862847
-0.0056566278
-0.0061647479
-0.0066961204
-0.0072641437
-0.0078636477
-0.0085020184
-0.0091783609
-0.0098974472
-0.010660371
-0.0114708
-0.012330776
-0.013243514
-0.014211512
-0.015237782
-0.016325028
-0.017476103
-0.018693751
-0.019980633
-0.021339331
-0.022772231
-0.024281556
-0.025869239
-0.027536925
-0.029285852
-0.031116811
-0.033030063
-0.035025207
-0.037101173
-0.039256015
-0.041486916
-0.043789992
-0.046160259
-0.048591481
-0.051076105
-0.053605159
-0.056168187
-0.058753182
-0.061346566
-0.063933168
-0.066496248
-0.069017559
-0.071477433
-0.073854918
-0.076127951
-0.078273586
-0.080268232
-0.082087973
-0.08370887
-0.085107337
-0.086260494
-0.087146538
-0.087745162
-0.0880378
-0.08800819
-0.087642286
-0.08692918
-0.085860305
-0.084431977
-0.082643205
-0.080495175
-0.077993309
-0.075145875
-0.071964836
-0.068465292
-0.064665507
-0.060586833
-0.056253136
-0.051691058
-0.04692889
-0.041997142
-0.036926909
-0.031750723
-0.026500536
-0.021208813
-0.015906332
-0.010623437
-0.0053879163
-0.00022629354
0.004837995
0.0097833671
0.0145915
0.019246222
0.023734485
0.028045404
0.032170856
0.036104687
0.039843011
0.043383587
0.046725906
0.049870725
0.052820006
0.055576629
0.058144168
0.06052687
0.062729145
0.064756044
0.06661206
0.068302812
0.069831969
0.071206066
0.072426411
0.073502136
0.074428749
0.075223006
0.075865941
0.076395673
0.076756065
0.077043279
0.077106109
-0.0013188988
-3.2115882e-07
-0.0013421087
-0.00090656719
-0.0016729539
-0.0016456094
-0.0021653752
-0.0023358337
-0.0027606056
-0.0030378308
-0.0034396423
-0.0037865924
-0.004201897
-0.0046061141
-0.0050556512
-0.005516053
-0.0060138264
-0.006534791
-0.0070921344
-0.0076808598
-0.0083082788
-0.0089736015
-0.0096815981
-0.010433448
-0.011232864
-0.012081978
-0.012984086
-0.013941798
-0.014958242
-0.01603626
-0.017178859
-0.018388957
-0.019669406
-0.021023002
-0.022452366
-0.023959975
-0.025548035
-0.027218485
-0.028972877
-0.030812327
-0.032737436
-0.034748149
-0.036843749
-0.039022635
-0.041282325
-0.043619253
-0.04602872
-0.048504736
-0.051039944
-0.053625499
-0.056250996
-0.058904388
-0.061571951
-0.064238257
-0.066886182
-0.069496963
-0.072050281
-0.074524396
-0.07689633
-0.079142096
-0.081236954
-0.083155754
-0.084873254
-0.086364529
-0.087605347
-0.088572574
-0.089244628
-0.089601726
-0.089626534
-0.089303968
-0.088622392
-0.087572344
-0.086149793
-0.084353642
-0.082184728
-0.079648537
-0.076753435
-0.073511725
-0.069939009
-0.066054218
-0.06187962
-0.057440096
-0.052763611
-0.047879792
-0.042820825
-0.037619367
-0.032309839
-0.026925827
-0.021501697
-0.016069747
-0.010662009
-0.0053075007
-3.4046295e-05
0.0051340936
0.010174523
0.015068539
0.019799646
0.024354829
0.028723301
0.032897301
0.036871091
0.040641366
0.044206502
0.047566692
0.050723399
0.053679323
0.056438058
0.059003887
0.061381722
0.063576612
0.065594194
0.06743951
0.069118663
0.070635787
0.071997782
0.07320636
0.074270878
0.075187236
0.075972212
0.076607351
0.077130406
0.077486185
0.077769618
0.077831631
-0.0012911237
4.3791834e-06
-0.0013072792
-0.00087746219
-0.0016252239
-0.0015955362
-0.0021017622
-0.0022660077
-0.0026793532
-0.0029483756
-0.0033394851
-0.003677073
-0.0040817443
-0.0044758038
-0.0049144703
-0.0053640867
-0.0058506249
-0.0063602769
-0.006906
-0.007482984
-0.0080984581
-0.0087517447
-0.0094476102
-0.010187325
-0.010974648
-0.011811809
-0.01270219
-0.013648518
-0.014654046
-0.015721765
-0.016854847
-0.018056397
-0.019329475
-0.020677111
-0.022102178
-0.02360743
-0.025195376
-0.026868278
-0.028628029
-0.030476111
-0.032413498
-0.034440525
-0.036556865
-0.038761311
-0.041051761
-0.043425009
-0.045876689
-0.048401098
-0.050991111
-0.053638045
-0.05633157
-0.059059617
-0.061808321
-0.064561987
-0.067303083
-0.07001229
-0.072668577
-0.075249344
-0.077730596
-0.080087193
-0.082293116
-0.084321836
-0.086146654
-0.087741144
-0.089079557
-0.090137272
-0.09089127
-0.091320415
-0.091406164
-0.091132278
-0.090486316
-0.089457793
-0.088042293
-0.086238622
-0.084047209
-0.08147361
-0.078526284
-0.075217888
-0.071564572
-0.06758598
-0.063305389
-0.058748783
-0.053945611
-0.048926967
-0.04372694
-0.038379918
-0.032922489
-0.027390059
-0.021819181
-0.01624384
-0.010698013
-0.0052120748
0.00018466538
0.0054670548
0.01061178
0.015599753
0.020414129
0.025041972
0.029472629
0.033698783
0.037715185
0.041519215
0.045109954
0.048488403
0.051656825
0.054618755
0.057378586
0.059941394
0.062312829
0.06449865
0.066505133
0.068337929
0.070003664
0.07150698
0.072855175
0.074050394
0.075102237
0.076007031
0.076781565
0.077407948
0.077923516
0.078274126
0.078553328
0.078614426
-0.0012612731
9.3686114e-06
-0.0012699147
-0.0008463021
-0.001574059
-0.0015418942
-0.0020335836
-0.0021911821
-0.0025922606
-0.0028524864
-0.0032321009
-0.0035596334
-0.0039528727
-0.0043360063
-0.0047629699
-0.0052009664
-0.005675389
-0.0061728301
-0.0067059969
-0.007270279
-0.0078728145
-0.0085130453
-0.0091957313
-0.0099222397
-0.010696376
-0.011520472
-0.012398001
-0.013331815
-0.014325299
-0.015381601
-0.016504071
-0.017696014
-0.018960715
-0.020301451
-0.02172137
-0.02322353
-0.024810765
-0.026485689
-0.028250574
-0.030107297
-0.032057251
-0.0341012
-0.036239256
-0.038470648
-0.040793706
-0.043205634
-0.045702447
-0.048278779
-0.050927779
-0.053640967
-0.056408119
-0.059217164
-0.062054109
-0.064902987
-0.067745836
-0.070562745
-0.073331912
-0.076029794
-0.078631279
-0.081109956
-0.083438385
-0.085588507
-0.087531994
-0.089240747
-0.090687325
-0.091845442
-0.092690477
-0.093199785
-0.093353477
-0.093134039
-0.092528127
-0.091524131
-0.090117168
-0.088305965
-0.086090492
-0.083476358
-0.080472118
-0.077090786
-0.0733491
-0.069267454
-0.064870234
-0.060184608
-0.055241685
-0.050074163
-0.044718293
-0.039210372
-0.033589478
-0.027893031
-0.022160107
-0.016426561
-0.010728604
-0.0050981016
0.00043394017
0.005841415
0.011099977
0.01619016
0.021094749
0.025800948
0.030298286
0.034579988
0.038641382
0.042480652
0.046097685
0.04949441
0.052673993
0.055640909
0.058400447
0.060958563
0.063321725
0.06549647
0.067489779
0.069307961
0.070958213
0.072445728
0.073778227
0.074958325
0.075995877
0.076887668
0.077650493
0.078267073
0.078774274
0.079119112
0.079393594
0.079453671
-0.0012293363
1.4642738e-05
-0.0012300136
-0.00081309504
-0.0015194678
-0.001484699
-0.0019608572
-0.0021113798
-0.0024993525
-0.0027501903
-0.0031175169
-0.0034343001
-0.0038153053
-0.00418674
-0.004601161
-0.005026693
-0.0054881063
-0.0059724218
-0.006492076
-0.0070426711
-0.0076312454
-0.0082573664
-0.008925785
-0.0096379688
-0.010397771
-0.011207633
-0.012071118
-0.012991213
-0.01397144
-0.015015116
-0.016125777
-0.017306942
-0.018562134
-0.019894899
-0.02130868
-0.02280686
-0.024392626
-0.026068979
-0.027838597
-0.029703798
-0.031666431
-0.033727736
-0.035888312
-0.038147878
-0.040505249
-0.042958095
-0.045502868
-0.048134591
-0.050846743
-0.053631089
-0.056477554
-0.059374092
-0.062306598
-0.065258834
-0.068212394
-0.071146734
-0.074039224
-0.076865295
-0.079598613
-0.082211364
-0.084674538
-0.086958375
-0.089032735
-0.09086766
-0.092433813
-0.093703059
-0.094648986
-0.095247275
-0.095476533
-0.095317841
-0.094756853
-0.093780699
-0.092383975
-0.090565366
-0.088324303
-0.085666448
-0.082600445
-0.079139671
-0.075301489
-0.071107073
-0.066582022
-0.061754762
-0.056658258
-0.051326937
-0.045799506
-0.040114354
-0.034313414
-0.028436324
-0.022525076
-0.016617572
-0.010752608
-0.0049636631
0.00071631051
0.006260201
0.0116425
0.016843386
0.021845247
0.026635514
0.031203949
0.035544442
0.039652994
0.043528726
0.047172453
0.050587159
0.053777028
0.056747592
0.059505134
0.062056587
0.064409319
0.066570719
0.068548532
0.070349787
0.071982294
0.073451835
0.074766587
0.075929666
0.076951193
0.077828446
0.078578212
0.079183878
0.079681779
0.080020205
0.080289452
0.080348397
-0.0011953192
2.0166871e-05
-0.0011876228
-0.00077791163
-0.0014615343
-0.0014240546
-0.0018837013
-0.0020267365
-0.0024007788
-0.0026416528
-0.0029959118
-0.0033012652
-0.0036692463
-0.0040282201
-0.0044292681
-0.0048414992
-0.0052890157
-0.0057592948
-0.0062644815
-0.006800403
-0.0073739885
-0.0079849371
-0.0086379868
-0.0093347103
-0.010079009
-0.010873434
-0.011721649
-0.012626775
-0.013592479
-0.014622258
-0.01571984
-0.016888974
-0.018133435
-0.019457054
-0.02086359
-0.022356775
-0.023940177
-0.025617213
-0.027391008
-0.029264355
-0.031239604
-0.033318522
-0.035502245
-0.037791041
-0.040184266
-0.042680119
-0.04527555
-0.047966036
-0.050745441
-0.053605831
-0.056537327
-0.059527948
-0.062563497
-0.065627476
-0.068701019
-0.071762918
-0.074789654
-0.077755548
-0.080632929
-0.083392446
-0.086003354
-0.088434011
-0.090652263
-0.092626086
-0.094324029
-0.095715907
-0.096773305
-0.097470065
-0.097783106
-0.097691999
-0.097181251
-0.096236683
-0.094852223
-0.093026519
-0.090758468
-0.08805372
-0.084921028
-0.081374099
-0.077430964
-0.073113586
-0.068448879
-0.06346659
-0.05820175
-0.052690642
-0.046974775
-0.041094807
-0.035095972
-0.029020333
-0.022913262
-0.016814902
-0.010767042
-0.0048048958
0.0010363469
0.0067285308
0.012244836
0.017565133
0.02267139
0.027551371
0.03219514
0.036597394
0.04075493
0.044667957
0.04833835
0.051770298
0.054969128
0.057941555
0.060694966
0.063237374
0.065577129
0.067722555
0.069682224
0.071463939
0.073076168
0.074525326
0.07582007
0.076964048
0.077967659
0.078828704
0.07956395
0.0801575
0.080645097
0.080976423
0.081239879
0.08129757
-0.0011592108
2.592802e-05
-0.00114275
-0.00074077558
-0.0014002842
-0.0013599987
-0.0018021583
-0.0019373037
-0.0022965958
-0.0025269363
-0.0028673514
-0.0031605975
-0.0035147645
-0.0038605144
-0.0042473551
-0.0046454423
-0.0050781647
-0.0055334836
-0.0060232309
-0.0065434714
-0.0071010143
-0.0076956967
-0.0083322393
-0.0090123231
-0.0097398969
-0.010517627
-0.011349276
-0.012238107
-0.013187939
-0.014202452
-0.015285581
-0.016441312
-0.017673689
-0.018986844
-0.020384873
-0.021871881
-0.023451848
-0.025128634
-0.02690585
-0.028786807
-0.030774403
-0.032870981
-0.035078275
-0.037397157
-0.039827593
-0.04236838
-0.045017035
-0.047769556
-0.050620265
-0.053561593
-0.056583912
-0.05967535
-0.062821657
-0.066006085
-0.069209305
-0.072409413
-0.075581943
-0.078700019
-0.081734515
-0.084654393
-0.087426995
-0.090018599
-0.092394816
-0.094521322
-0.096364317
-0.097891333
-0.099071727
-0.099877307
-0.10028311
-0.10026707
-0.099812396
-0.098903488
-0.097533527
-0.095701192
-0.093404751
-0.09064984
-0.087445307
-0.083805176
-0.079748171
-0.075297051
-0.07048015
-0.065328581
-0.05987968
-0.054171693
-0.048249324
-0.042155672
-0.035939795
-0.029646381
-0.023324743
-0.017017443
-0.010769749
-0.0046187261
0.00139786
0.0072507917
0.012911767
0.018360418
0.02357827
0.028553561
0.033276733
0.037743467
0.041951482
0.04590226
0.049598884
0.053046908
0.056252944
0.059225029
0.061971769
0.064502363
0.06682624
0.068952732
0.070891308
0.072650599
0.074239778
0.075665929
0.076938217
0.078060853
0.079044518
0.079887572
0.080606739
0.081186897
0.081663124
0.081986622
0.082243701
0.082300011
-0.0011210116
3.1889357e-05
-0.0010954398
-0.00070175952
-0.0013358024
-0.001292639
-0.00171635
-0.0018432225
-0.0021869594
-0.0024062136
-0.0027320224
-0.0030124981
-0.0033520735
-0.003683848
-0.0040556565
-0.004438765
-0.0048558016
-0.0052952398
-0.0057685759
-0.0062721242
-0.0068125637
-0.0073898743
-0.0080087547
-0.0086709968
-0.0093805956
-0.010140335
-0.010954078
-0.011825237
-0.012757782
-0.013755587
-0.014822801
-0.015963659
-0.017182486