/*--------------------------------*- C++ -*----------------------------------*\
| =========                 |                                                 |
| \\      /  F ield         | foam-extend: Open Source CFD                    |
|  \\    /   O peration     | Version:     4.1                                |
|   \\  /    A nd           | Web:         http://www.foam-extend.org         |
|    \\/     M anipulation  |                                                 |
\*---------------------------------------------------------------------------*/
FoamFile
{
    version     2.0;
    format      ascii;
    class       surfaceScalarField;
    location    "1.3";
    object      phi;
}
// * * * * * * * * * * * * * * * * * * * * * * * * * * * * * * * * * * * * * //

dimensions      [0 3 -1 0 0 0 0];

internalField   nonuniform List<scalar> 
32976
(
-0.0016232749
9.0568514e-07
-0.0016242151
9.4017812e-07
-0.0016251849
9.6974683e-07
-0.0016261921
1.007255e-06
-0.0016272357
1.0435933e-06
-0.0016283206
1.084884e-06
-0.0016294476
1.1270661e-06
-0.0016306206
1.1729415e-06
-0.0016318413
1.2207021e-06
-0.001633113
1.2716645e-06
-0.001634438
1.3250408e-06
-0.0016358195
1.3814822e-06
-0.0016372601
1.4406625e-06
-0.0016387631
1.5029321e-06
-0.0016403312
1.5681686e-06
-0.0016419678
1.63658e-06
-0.0016436759
1.7081248e-06
-0.0016454589
1.7829342e-06
-0.0016473199
1.8609853e-06
-0.0016492622
1.9423571e-06
-0.0016512892
2.0270117e-06
-0.0016534042
2.114982e-06
-0.0016556104
2.2061958e-06
-0.0016579111
2.3006379e-06
-0.0016603092
2.3981877e-06
-0.001662808
2.4987762e-06
-0.0016654102
2.6022211e-06
-0.0016681186
2.708388e-06
-0.0016709356
2.817017e-06
-0.0016738635
2.927892e-06
-0.0016769042
3.0406542e-06
-0.0016800592
3.1549707e-06
-0.0016833296
3.2704113e-06
-0.001686716
3.3864347e-06
-0.0016902185
3.502518e-06
-0.0016938365
3.617948e-06
-0.0016975685
3.7320407e-06
-0.0017014124
3.8439083e-06
-0.0017053651
3.9526983e-06
-0.0017094225
4.0573497e-06
-0.0017135793
4.1568529e-06
-0.0017178293
4.2500024e-06
-0.001722165
4.3356419e-06
-0.0017265775
4.412511e-06
-0.0017310568
4.4793478e-06
-0.0017355917
4.5348839e-06
-0.0017401696
4.5778677e-06
-0.0017447767
4.6070961e-06
-0.0017493981
4.6214178e-06
-0.0017540179
4.6197716e-06
-0.0017586191
4.6011944e-06
-0.0017631839
4.5648351e-06
-0.0017676939
4.5099608e-06
-0.0017721298
4.4359668e-06
-0.0017764722
4.3423546e-06
-0.0017807009
4.2287407e-06
-0.0017847957
4.0948345e-06
-0.0017887362
3.9404248e-06
-0.0017925015
3.7653629e-06
-0.0017960711
3.5695586e-06
-0.0017994241
3.3529574e-06
-0.0018025396
3.1155567e-06
-0.001805397
2.8574083e-06
-0.0018079757
2.5786394e-06
-0.0018102551
2.2794832e-06
-0.0018122155
1.9603157e-06
-0.0018138372
1.6217052e-06
-0.0018151016
1.2644504e-06
-0.0018159912
8.8963541e-07
-0.0018164899
4.9866807e-07
-0.0018165832
9.3302151e-08
-0.0018162589
-3.2431136e-07
-0.0018155072
-7.5166528e-07
-0.0018143213
-1.185936e-06
-0.0018126973
-1.6239644e-06
-0.001810635
-2.0623136e-06
-0.0018081377
-2.4973417e-06
-0.0018052124
-2.9252667e-06
-0.0018018702
-3.3422655e-06
-0.0017981256
-3.7445427e-06
-0.0017939972
-4.1284379e-06
-0.0017895067
-4.4904992e-06
-0.0017846791
-4.8275597e-06
-0.0017795423
-5.1368113e-06
-0.0017741265
-5.415848e-06
-0.0017684637
-5.6627193e-06
-0.0017625878
-5.8759427e-06
-0.0017565333
-6.054529e-06
-0.0017503353
-6.1979673e-06
-0.0017440291
-6.3062232e-06
-0.0017376494
-6.3797106e-06
-0.0017312301
-6.4192475e-06
-0.0017248041
-6.4260237e-06
-0.0017184025
-6.4015557e-06
-0.0017120549
-6.3476228e-06
-0.0017057887
-6.266228e-06
-0.0016996292
-6.1595286e-06
-0.0016935993
-6.0298083e-06
-0.00168772
-5.8793908e-06
-0.0016820093
-5.7106288e-06
-0.0016764835
-5.5258405e-06
-0.0016711562
-5.3272823e-06
-0.0016660391
-5.1171089e-06
-0.0016611417
-4.8973621e-06
-0.0016564718
-4.6699253e-06
-0.0016520353
-4.4365319e-06
-0.0016478365
-4.1987419e-06
-0.0016438786
-3.9579401e-06
-0.0016401633
-3.7153313e-06
-0.0016366913
-3.4719515e-06
-0.0016334627
-3.2286558e-06
-0.0016304765
-2.9861438e-06
-0.0016277316
-2.7449582e-06
-0.0016252261
-2.5055016e-06
-0.001622958
-2.2680396e-06
-0.0016209253
-2.0327289e-06
-0.0016191257
-1.7996013e-06
-0.0016175571
-1.5686132e-06
-0.0016162175
-1.3396066e-06
-0.0016151051
-1.1123938e-06
-0.0016142184
-8.8665176e-07
-0.0016135563
-6.6211896e-07
-0.001613118
-4.3830928e-07
-2.1499206e-07
-0.0016232573
1.8099519e-06
-0.0016241961
1.8790512e-06
-0.0016251645
1.938151e-06
-0.0016261705
2.0132384e-06
-0.0016272128
2.0858839e-06
-0.0016282964
2.168503e-06
-0.0016294222
2.2528541e-06
-0.0016305939
2.3446245e-06
-0.0016318133
2.4401402e-06
-0.0016330838
2.5420729e-06
-0.0016344075
2.6488201e-06
-0.0016357878
2.7617014e-06
-0.0016372271
2.8800525e-06
-0.0016387288
3.0045818e-06
-0.0016402957
3.1350395e-06
-0.0016419309
3.2718455e-06
-0.0016436377
3.414915e-06
-0.0016454193
3.5645133e-06
-0.0016472789
3.7205948e-06
-0.0016492199
3.8833198e-06
-0.0016512455
4.0526147e-06
-0.001653359
4.2285474e-06
-0.0016555638
4.4109763e-06
-0.0016578631
4.5998741e-06
-0.0016602599
4.7950027e-06
-0.0016627573
4.9962267e-06
-0.0016653583
5.2031849e-06
-0.0016680655
5.4156117e-06
-0.0016708815
5.63299e-06
-0.0016738085
5.8548904e-06
-0.0016768484
6.0805981e-06
-0.0016800029
6.3094494e-06
-0.0016832731
6.5405866e-06
-0.0016866596
6.7729289e-06
-0.0016901625
7.0054326e-06
-0.0016937812
7.2366725e-06
-0.0016975145
7.4652825e-06
-0.00170136
7.689488e-06
-0.0017053149
7.907585e-06
-0.001709375
8.1174519e-06
-0.0017135352
8.3170695e-06
-0.0017177893
8.5040262e-06
-0.0017221296
8.676008e-06
-0.0017265476
8.8304916e-06
-0.0017310332
8.96495e-06
-0.0017355752
9.0768418e-06
-0.001740161
9.1636579e-06
-0.0017447768
9.2229849e-06
-0.0017494079
9.2525109e-06
-0.0017540383
9.2501034e-06
-0.0017586509
9.213824e-06
-0.001763228
9.1419571e-06
-0.0017677511
9.0330215e-06
-0.0017722009
8.8857922e-06
-0.0017765578
8.6992546e-06
-0.0017808017
8.4726246e-06
-0.0017849122
8.2053033e-06
-0.0017888686
7.8968509e-06
-0.0017926502
7.5469543e-06
-0.001796236
7.1554187e-06
-0.0017996052
6.7221227e-06
-0.0018027367
6.247052e-06
-0.0018056096
5.7303039e-06
-0.0018082031
5.1721307e-06
-0.0018104966
4.5729997e-06
-0.00181247
3.9336684e-06
-0.0018141035
3.2552827e-06
-0.0018153785
2.5394522e-06
-0.0018162773
1.7883622e-06
-0.0018167834
1.004846e-06
-0.0018168826
1.924396e-07
-0.0018165624
-6.4453913e-07
-0.001815813
-1.5010482e-06
-0.0018146275
-2.371407e-06
-0.0018130022
-3.2492783e-06
-0.0018109367
-4.1277629e-06
-0.0018084345
-4.9995551e-06
-0.0018055027
-5.8570686e-06
-0.0018021523
-6.6926371e-06
-0.0017983982
-7.4986511e-06
-0.0017942589
-8.2677723e-06
-0.0017897563
-8.9930812e-06
-0.0017849157
-9.6682307e-06
-0.0017797649
-1.0287593e-05
-0.0017743344
-1.0846348e-05
-0.0017686565
-1.1340587e-05
-0.0017627651
-1.1767344e-05
-0.001756695
-1.2124641e-05
-0.0017504815
-1.2411461e-05
-0.00174416
-1.2627742e-05
-0.0017377654
-1.2774325e-05
-0.0017313318
-1.285286e-05
-0.001724892
-1.2865743e-05
-0.0017184776
-1.2816029e-05
-0.0017121179
-1.2707295e-05
-0.0017058405
-1.2543569e-05
-0.0016996709
-1.2329188e-05
-0.001693632
-1.2068739e-05
-0.0016877445
-1.1766889e-05
-0.0016820267
-1.1428361e-05
-0.0016764948
-1.1057808e-05
-0.0016711623
-1.0659755e-05
-0.0016660409
-1.0238524e-05
-0.00166114
-9.7982061e-06
-0.0016564674
-9.3425754e-06
-0.0016520288
-8.8751033e-06
-0.0016478286
-8.3989121e-06
-0.0016438698
-7.9167726e-06
-0.001640154
-7.4310934e-06
-0.001636682
-6.943945e-06
-0.0016334537
-6.4570345e-06
-0.0016304681
-5.9717577e-06
-0.0016277238
-5.4891956e-06
-0.0016252192
-5.0101489e-06
-0.0016229521
-4.5351437e-06
-0.0016209203
-4.0644889e-06
-0.0016191217
-3.5982418e-06
-0.001617554
-3.1363114e-06
-0.0016162152
-2.678375e-06
-0.0016151035
-2.2240545e-06
-0.0016142175
-1.7726948e-06
-0.0016135558
-1.3237743e-06
-0.0016131178
-8.7630612e-07
-4.2983715e-07
-0.0016232231
2.7116461e-06
-0.0016241594
2.8153155e-06
-0.0016251252
2.9039738e-06
-0.0016261286
3.0166406e-06
-0.0016271683
3.1256095e-06
-0.0016282494
3.2495651e-06
-0.0016293727
3.3760959e-06
-0.0016305418
3.5137677e-06
-0.0016317587
3.6570423e-06
-0.0016330266
3.8099442e-06
-0.0016343478
3.970056e-06
-0.0016357255
4.1393648e-06
-0.0016371623
4.3168679e-06
-0.0016386613
4.5036313e-06
-0.0016402256
4.6992784e-06
-0.0016418582
4.9044419e-06
-0.0016435622
5.1189951e-06
-0.0016453411
5.3433395e-06
-0.0016471979
5.5774098e-06
-0.001649136
5.8214511e-06
-0.0016511588
6.075358e-06
-0.0016532695
6.3392387e-06
-0.0016554714
6.6128871e-06
-0.0016577678
6.8962695e-06
-0.0016601618
7.1890362e-06
-0.0016626566
7.4909921e-06
-0.001665255
7.8016028e-06
-0.0016679598
8.1204776e-06
-0.0016707737
8.4468482e-06
-0.0016736989
8.7800778e-06
-0.0016767374
9.1191005e-06
-0.0016798909
9.4629274e-06
-0.0016831606
9.8102774e-06
-0.0016865472
1.0159535e-05
-0.0016900509
1.0509139e-05
-0.0016936712
1.0856956e-05
-0.0016974068
1.1200942e-05
-0.0017012558
1.1538436e-05
-0.0017052151
1.1866885e-05
-0.0017092807
1.2183107e-05
-0.0017134477
1.2484074e-05
-0.0017177099
1.2766166e-05
-0.0017220598
1.3025908e-05
-0.0017264888
1.3259508e-05
-0.001730987
1.3463167e-05
-0.0017355432
1.3633061e-05
-0.001740145
1.3765411e-05
-0.0017447786
1.3856578e-05
-0.0017494291
1.3903072e-05
-0.0017540807
1.3901667e-05
-0.0017587163
1.3849426e-05
-0.0017633181
1.3743742e-05
-0.0017678674
1.3582356e-05
-0.001772345
1.336339e-05
-0.001776731
1.3085283e-05
-0.0017810052
1.2746813e-05
-0.001785147
1.234704e-05
-0.0017891354
1.1885262e-05
-0.0017929494
1.136097e-05
-0.0017965678
1.0773836e-05
-0.0017999693
1.0123648e-05
-0.0018031326
9.4103616e-06
-0.0018060364
8.6341076e-06
-0.0018086596
7.7952587e-06
-0.0018109811
6.8945204e-06
-0.0018129805
5.9330429e-06
-0.0018146378
4.9125695e-06
-0.0018159339
3.8355473e-06
-0.0018168508
2.7052965e-06
-0.0018173721
1.526112e-06
-0.001817483
3.0335527e-07
-0.001817171
-9.5646183e-07
-0.0018164264
-2.2457186e-06
-0.001815242
-3.5558143e-06
-0.0018136141
-4.8771837e-06
-0.0018115424
-6.1994138e-06
-0.0018090305
-7.5114881e-06
-0.0018060856
-8.8019709e-06
-0.0018027189
-1.005931e-05
-0.0017989455
-1.127204e-05
-0.0017947842
-1.242911e-05
-0.0017902572
-1.3520098e-05
-0.0017853899
-1.4535446e-05
-0.0017802109
-1.5466683e-05
-0.0017747506
-1.6306553e-05
-0.0017690421
-1.704918e-05
-0.0017631193
-1.7690103e-05
-0.0017570176
-1.8226361e-05
-0.0017507726
-1.8656435e-05
-0.0017444201
-1.8980259e-05
-0.0017379953
-1.9199121e-05
-0.0017315326
-1.9315536e-05
-0.0017250652
-1.9333144e-05
-0.0017186247
-1.9256575e-05
-0.0017122407
-1.909125e-05
-0.001705941
-1.8843268e-05
-0.001699751
-1.8519187e-05
-0.0016936938
-1.8125941e-05
-0.0016877901
-1.767058e-05
-0.0016820582
-1.7160236e-05
-0.0016765141
-1.6601925e-05
-0.0016711714
-1.6002472e-05
-0.0016660416
-1.5368384e-05
-0.0016611339
-1.4705824e-05
-0.001656456
-1.4020468e-05
-0.0016520136
-1.3317533e-05
-0.0016478108
-1.2601709e-05
-0.0016438504
-1.1877154e-05
-0.001640134
-1.1147479e-05
-0.0016366622
-1.0415785e-05
-0.0016334346
-9.6846249e-06
-0.0016304503
-8.9560829e-06
-0.0016277077
-8.2317694e-06
-0.001625205
-7.5128738e-06
-0.00162294
-6.8001727e-06
-0.0016209103
-6.0941165e-06
-0.0016191138
-5.3947781e-06
-0.0016175481
-4.7020087e-06
-0.0016162112
-4.0153106e-06
-0.0016151011
-3.3341061e-06
-0.0016142164
-2.6573977e-06
-0.0016135558
-1.9843957e-06
-0.0016131185
-1.3136013e-06
-6.4433407e-07
-0.0016231703
3.6094924e-06
-0.0016241027
3.7476828e-06
-0.0016250646
3.8659491e-06
-0.0016260642
4.0161943e-06
-0.0016271001
4.1615114e-06
-0.0016281773
4.3268123e-06
-0.0016292968
4.4955357e-06
-0.0016304621
4.6791136e-06
-0.0016316752
4.8701483e-06
-0.0016329393
5.074013e-06
-0.0016342567
5.2874756e-06
-0.0016356305
5.5131893e-06
-0.0016370635
5.7498124e-06
-0.0016385586
5.9987692e-06
-0.0016401189
6.2595565e-06
-0.0016417475
6.5330212e-06
-0.0016434475
6.8189973e-06
-0.0016452222
7.1180254e-06
-0.0016470748
7.4300247e-06
-0.0016490087
7.7553303e-06
-0.0016510271
8.093811e-06
-0.0016531335
8.4456219e-06
-0.0016553311
8.8105005e-06
-0.0016576233
9.1884146e-06
-0.0016600131
9.5789115e-06
-0.0016625039
9.9817452e-06
-0.0016650985
1.0396217e-05
-0.0016677998
1.0821821e-05
-0.0016706105
1.1257545e-05
-0.001673533
1.1702554e-05
-0.0016765694
1.2155439e-05
-0.0016797213
1.2614893e-05
-0.0016829903
1.3079219e-05
-0.001686377
1.3546274e-05
-0.0016898818
1.4013985e-05
-0.0016935044
1.4479517e-05
-0.0016972436
1.4940149e-05
-0.0017010975
1.5392343e-05
-0.0017050633
1.5832697e-05
-0.0017091372
1.6256971e-05
-0.0017133142
1.6661126e-05
-0.0017175884
1.7040332e-05
-0.0017219525
1.7389949e-05
-0.0017263979
1.7704908e-05
-0.0017309148
1.7980129e-05
-0.0017354922
1.8210489e-05
-0.0017401178
1.8390922e-05
-0.0017447777
1.851654e-05
-0.0017494573
1.8582649e-05
-0.0017541405
1.8584899e-05
-0.0017588104
1.8519317e-05
-0.001763449
1.8382364e-05
-0.0017680376
1.8170961e-05
-0.0017725568
1.788253e-05
-0.0017769864
1.7514909e-05
-0.001781306
1.7066391e-05
-0.0017854946
1.6535639e-05
-0.001789531
1.592164e-05
-0.0017933936
1.5223639e-05
-0.0017970609
1.4441133e-05
-0.0018005111
1.3573781e-05
-0.0018037222
1.262148e-05
-0.0018066724
1.1584376e-05
-0.0018093401
1.0462953e-05
-0.0018117038
9.2581588e-06
-0.0018137423
7.9715525e-06
-0.0018154352
6.6055024e-06
-0.001816763
5.1633321e-06
-0.0018177073
3.6495468e-06
-0.0018182511
2.0699593e-06
-0.0018183796
4.3182534e-07
-0.00181808
-1.2560854e-06
-0.0018173422
-2.9834964e-06
-0.0018161592
-4.7388071e-06
-0.0018145272
-6.5091545e-06
-0.0018124461
-8.2805376e-06
-0.0018099194
-1.003816e-05
-0.0018069547
-1.176667e-05
-0.0018035635
-1.3450564e-05
-0.001799761
-1.5074466e-05
-0.0017955666
-1.6623551e-05
-0.0017910028
-1.8083848e-05
-0.0017860957
-1.9442543e-05
-0.0017808742
-2.0688282e-05
-0.0017753694
-2.1811346e-05
-0.0017696147
-2.280387e-05
-0.0017636449
-2.3659891e-05
-0.0017574958
-2.4375465e-05
-0.0017512036
-2.494859e-05
-0.0017448047
-2.5379216e-05
-0.0017383347
-2.5669116e-05
-0.0017318285
-2.582172e-05
-0.0017253197
-2.5841963e-05
-0.0017188401
-2.5736115e-05
-0.0017124199
-2.5511505e-05
-0.0017060868
-2.5176369e-05
-0.0016998664
-2.4739551e-05
-0.0016937819
-2.4210401e-05
-0.0016878541
-2.359841e-05
-0.0016821012
-2.291317e-05
-0.001676539
-2.2164113e-05
-0.0016711811
-2.1360402e-05
-0.0016660387
-2.0510765e-05
-0.001661121
-1.962346e-05
-0.0016564354
-1.8706085e-05
-0.0016519873
-1.7765617e-05
-0.0016477807
-1.680832e-05
-0.0016438181
-1.5839742e-05
-0.0016401009
-1.4864692e-05
-0.0016366294
-1.3887295e-05
-0.0016334031
-1.2910941e-05
-0.0016304208
-1.1938392e-05
-0.0016276808
-1.0971774e-05
-0.001625181
-1.001265e-05
-0.0016229192
-9.0620327e-06
-0.0016208928
-8.1204984e-06
-0.0016190994
-7.1881196e-06
-0.0016175368
-6.2646747e-06
-0.0016162026
-5.3494753e-06
-0.001615095
-4.4417299e-06
-0.0016142123
-3.540083e-06
-0.0016135532
-2.6434647e-06
-0.001613117
-1.7498472e-06
-8.583152e-07
-0.0016231023
4.5022774e-06
-0.0016240295
4.6749411e-06
-0.0016249864
4.8228471e-06
-0.0016259809
5.0106665e-06
-0.0016270118
5.1923497e-06
-0.0016280839
5.3989998e-06
-0.0016291983
5.6099224e-06
-0.0016303586
5.8394041e-06
-0.0016315667
6.0781911e-06
-0.0016328256
6.333001e-06
-0.001634138
6.5997872e-06
-0.0016355066
6.8818675e-06
-0.0016369344
7.1775613e-06
-0.0016384243
7.4886512e-06
-0.0016399792
7.8145085e-06
-0.0016416024
8.1561967e-06
-0.0016432969
8.5135131e-06
-0.001645066
8.887142e-06
-0.001646913
9.2769924e-06
-0.0016488412
9.6834957e-06
-0.0016508539
1.0106503e-05
-0.0016529545
1.0546225e-05
-0.0016551463
1.1002352e-05
-0.0016574328
1.1474864e-05
-0.0016598171
1.1963217e-05
-0.0016623024
1.2467124e-05
-0.001664892
1.2985736e-05
-0.0016675886
1.3518441e-05
-0.001670395
1.4063996e-05
-0.0016733139
1.4621378e-05
-0.0016763473
1.5188847e-05
-0.0016794972
1.5764789e-05
-0.001682765
1.63471e-05
-0.0016861519
1.6933118e-05
-0.0016896582
1.7520269e-05
-0.0016932837
1.8105022e-05
-0.0016970275
1.8683989e-05
-0.0017008879
1.9252756e-05
-0.0017048623
1.980708e-05
-0.001708947
2.0341663e-05
-0.0017131373
2.0851457e-05
-0.0017174274
2.1330418e-05
-0.0017218102
2.1772733e-05
-0.0017262773
2.217205e-05
-0.0017308192
2.2521988e-05
-0.0017354248
2.281611e-05
-0.0017400819
2.3048037e-05
-0.001744777
2.3211603e-05
-0.0017494952
2.3300872e-05
-0.0017542207
2.3310329e-05
-0.0017589363
2.3234918e-05
-0.001763624
2.3070114e-05
-0.001768265
2.2811956e-05
-0.0017728396
2.2457104e-05
-0.0017773274
2.2002728e-05
-0.0017817076
2.1446566e-05
-0.0017859587
2.0786816e-05
-0.0017900592
2.0022082e-05
-0.0017939869
1.9151301e-05
-0.0017977195
1.8173736e-05
-0.0018012345
1.7088867e-05
-0.0018045096
1.5896495e-05
-0.0018075219
1.4596753e-05
-0.0018102492
1.3190228e-05
-0.0018126692
1.1678115e-05
-0.00181476
1.0062404e-05
-0.0018165006
8.3461249e-06
-0.0018178708
6.5335314e-06
-0.0018188517
4.6303797e-06
-0.0018194258
2.6440759e-06
-0.0018195778
5.8385671e-07
-0.0018192947
-1.539166e-06
-0.0018185663
-3.7119608e-06
-0.0018173853
-5.9198223e-06
-0.0018157479
-8.1464948e-06
-0.0018136542
-1.0374289e-05
-0.0018111078
-1.2584535e-05
-0.0018081166
-1.4757873e-05
-0.0018046924
-1.6874765e-05
-0.001800851
-1.8915838e-05
-0.0017966121
-2.0862421e-05
-0.0017919991
-2.2696921e-05
-0.0017870384
-2.4403207e-05
-0.0017817597
-2.5966995e-05
-0.001776195
-2.7376055e-05
-0.0017703784
-2.8620509e-05
-0.0017643454
-2.9692877e-05
-0.0017581326
-3.0588237e-05
-0.0017517771
-3.1304119e-05
-0.0017453158
-3.1840529e-05
-0.0017387851
-3.2199774e-05
-0.0017322206
-3.2386261e-05
-0.0017256562
-3.2406298e-05
-0.0017191245
-3.2267878e-05
-0.0017126556
-3.1980327e-05
-0.0017062779
-3.1554109e-05
-0.001700017
-3.1000448e-05
-0.0016938962
-3.0331193e-05
-0.0016879363
-2.9558358e-05
-0.0016821554
-2.8694071e-05
-0.0016765692
-2.7750242e-05
-0.0016711912
-2.6738427e-05
-0.0016660323
-2.5669622e-05
-0.0016611016
-2.4554214e-05
-0.0016564059
-2.3401748e-05
-0.0016519506
-2.2220978e-05
-0.0016477391
-2.1019751e-05
-0.0016437739
-1.9805004e-05
-0.0016400558
-1.8582744e-05
-0.001636585
-1.7358109e-05
-0.0016333606
-1.6135313e-05
-0.0016303813
-1.491778e-05
-0.0016276449
-1.3708133e-05
-0.0016251493
-1.250829e-05
-0.0016228918
-1.1319478e-05
-0.0016208699
-1.0142379e-05
-0.001619081
-8.977044e-06
-0.0016175225
-7.8231582e-06
-0.0016161922
-6.6798215e-06
-0.0016150879
-5.5460099e-06
-0.001614208
-4.4199893e-06
-0.0016135511
-3.3003935e-06
-0.0016131163
-2.1846432e-06
-1.0715777e-06
-0.0016230189
5.3887773e-06
-0.0016239398
5.5958698e-06
-0.0016248904
5.7734513e-06
-0.0016258786
5.9988386e-06
-0.0016269032
6.216904e-06
-0.0016279691
6.4649015e-06
-0.0016290772
6.7180229e-06
-0.0016302312
6.9933961e-06
-0.0016314329
7.2799155e-06
-0.0016326855
7.5856388e-06
-0.0016339914
7.9057051e-06
-0.0016353537
8.2440954e-06
-0.0016367749
8.5987906e-06
-0.0016382582
8.9719319e-06
-0.0016398064
9.3627671e-06
-0.0016414228
9.7725786e-06
-0.0016431104
1.0201131e-05
-0.0016448725
1.0649258e-05
-0.0016467124
1.1116864e-05
-0.0016486334
1.1604486e-05
-0.0016506389
1.2111965e-05
-0.0016527322
1.2639578e-05
-0.0016549169
1.318698e-05
-0.0016571962
1.3754176e-05
-0.0016595735
1.4340543e-05
-0.0016620521
1.4945768e-05
-0.0016646353
1.5568864e-05
-0.001667326
1.6209128e-05
-0.0016701271
1.6865102e-05
-0.0016730413
1.7535587e-05
-0.0016760709
1.8218527e-05
-0.0016792182
1.8912013e-05
-0.0016824846
1.9613549e-05
-0.0016858715
2.0319965e-05
-0.0016893794
2.1028198e-05
-0.0016930084
2.1734032e-05
-0.0016967578
2.2433422e-05
-0.0017006262
2.3121085e-05
-0.001704611
2.3791941e-05
-0.001708709
2.443964e-05
-0.0017129157
2.5058123e-05
-0.0017172254
2.564013e-05
-0.0017216313
2.6178669e-05
-0.0017261254
2.666609e-05
-0.0017306981
2.7094698e-05
-0.0017353387
2.7456714e-05
-0.0017400351
2.7744416e-05
-0.0017447738
2.7950324e-05
-0.0017495401
2.8067215e-05
-0.0017543181
2.8088354e-05
-0.0017590908
2.8007543e-05
-0.0017638399
2.7819203e-05
-0.0017685463
2.7518417e-05
-0.0017731902
2.7101002e-05
-0.0017777509
2.6563374e-05
-0.0017822069
2.5902628e-05
-0.0017865365
2.5116407e-05
-0.0017907173
2.4202848e-05
-0.0017947265
2.3160497e-05
-0.001798541
2.1988305e-05
-0.0018021377
2.0685514e-05
-0.001805493
1.9251775e-05
-0.0018085834
1.7687178e-05
-0.0018113856
1.5992398e-05
-0.0018138763
1.4168882e-05
-0.001816033
1.2219077e-05
-0.0018178336
1.0146726e-05
-0.0018192572
7.9570742e-06
-0.001820284
5.657215e-06
-0.0018208962
3.2562436e-06
-0.0018210778
7.6549006e-07
-0.0018208155
-1.8014797e-06
-0.0018200987
-4.4287517e-06
-0.0018189201
-7.0983884e-06
-0.001817276
-9.7906222e-06
-0.0018151663
-1.2483951e-05
-0.0018125951
-1.5155717e-05
-0.0018095706
-1.7782437e-05
-0.0018061049
-2.0340428e-05
-0.0018022145
-2.2806219e-05
-0.0017979198
-2.5157195e-05
-0.0017932446
-2.7372057e-05
-0.0017882166
-2.9431275e-05
-0.001782866
-3.1317566e-05
-0.0017772259
-3.3016141e-05
-0.0017713313
-3.4515073e-05
-0.0017652189
-3.5805344e-05
-0.001758926
-3.688106e-05
-0.0017524909
-3.7739304e-05
-0.0017459512
-3.8380186e-05
-0.0017393444
-3.880661e-05
-0.0017327066
-3.9024044e-05
-0.0017260726
-3.9040261e-05
-0.0017194754
-3.886509e-05
-0.0017129458
-3.8509962e-05
-0.0017065122
-3.798769e-05
-0.0017002007
-3.7311989e-05
-0.0016940345
-3.6497321e-05
-0.0016880346
-3.5558324e-05
-0.0016822189
-3.4509757e-05
-0.001676603
-3.3366086e-05
-0.0016712001
-3.2141333e-05
-0.0016660209
-3.0848814e-05
-0.0016610741
-2.9501091e-05
-0.0016563661
-2.8109686e-05
-0.0016519019
-2.6685151e-05
-0.0016476848
-2.5236925e-05
-0.0016437164
-2.3773337e-05
-0.0016399976
-2.2301583e-05
-0.0016365279
-2.0827805e-05
-0.0016333062
-1.9357023e-05
-0.0016303307
-1.7893301e-05
-0.0016275991
-1.6439738e-05
-0.0016251088
-1.4998582e-05
-0.001622857
-1.3571247e-05
-0.0016208409
-1.2158495e-05
-0.0016190576
-1.0760328e-05
-0.0016175045
-9.3763131e-06
-0.001616179
-8.0053119e-06
-0.0016150789
-6.6460447e-06
-0.0016142025
-5.2963723e-06
-0.0016135483
-3.954613e-06
-0.0016131154
-2.6176073e-06
-1.2839369e-06
-0.0016229215
6.2678068e-06
-0.0016238349
6.5092915e-06
-0.0016247781
6.7165709e-06
-0.0016257587
6.979515e-06
-0.0016267758
7.2339674e-06
-0.0016278342
7.5233005e-06
-0.0016289348
7.8186073e-06
-0.0016300812
8.1398452e-06
-0.0016312754
8.4740607e-06
-0.0016325204
8.830647e-06
-0.0016338186
9.2039293e-06
-0.0016351731
9.5985508e-06
-0.0016365864
1.0012154e-05
-0.0016380617
1.044724e-05
-0.0016396019
1.0902936e-05
-0.0016412101
1.1380746e-05
-0.0016428893
1.1880407e-05
-0.001644643
1.2402906e-05
-0.0016464743
1.2948155e-05
-0.0016483866
1.35168e-05
-0.0016503833
1.4108686e-05
-0.0016524679
1.4724169e-05
-0.0016546438
1.5362881e-05
-0.0016569145
1.6024864e-05
-0.0016592834
1.6709434e-05
-0.0016617539
1.7416267e-05
-0.0016643293
1.8144253e-05
-0.0016670128
1.8892618e-05
-0.0016698074
1.9659702e-05
-0.0016727159
2.0444152e-05
-0.001675741
2.1243609e-05
-0.0016788849
2.2055887e-05
-0.0016821495
2.2878114e-05
-0.0016855361
2.370663e-05
-0.0016890458
2.4537894e-05
-0.0016926788
2.536702e-05
-0.0016964347
2.6189317e-05
-0.0017003123
2.6998646e-05
-0.0017043094
2.7789097e-05
-0.0017084231
2.8553271e-05
-0.001712649
2.9284101e-05
-0.001716982
2.9973106e-05
-0.0017214154
3.0612109e-05
-0.0017259415
3.1192146e-05
-0.001730551
3.1704185e-05
-0.0017352334
3.213908e-05
-0.0017399767
3.248773e-05
-0.0017447676
3.2741293e-05
-0.0017495916
3.2891205e-05
-0.0017544327
3.292945e-05
-0.0017592738
3.284861e-05
-0.0017640966
3.2641974e-05
-0.0017688817
3.2303577e-05
-0.001773609
3.1828293e-05
-0.0017782573
3.1211684e-05
-0.0017828048
3.045009e-05
-0.0017872289
2.9540496e-05
-0.0017915065
2.8480462e-05
-0.001795614
2.7268043e-05
-0.0017995275
2.590179e-05
-0.0018032226
2.4380624e-05
-0.0018066748
2.2703989e-05
-0.0018098596
2.0871892e-05
-0.0018127522
1.8885076e-05
-0.0018153286
1.674525e-05
-0.0018175649
1.4455348e-05
-0.001819438
1.2019882e-05
-0.0018209261
9.4451734e-06
-0.0018220087
6.7397499e-06
-0.0018226669
3.9145134e-06
-0.0018228845
9.8302023e-07
-0.0018226474
-2.0385739e-06
-0.0018219448
-5.1313199e-06
-0.0018207693
-8.2738952e-06
-0.001819117
-1.1442876e-05
-0.0018169882
-1.4612797e-05
-0.001814387
-1.775687e-05
-0.0018113221
-2.0847349e-05
-0.0018078063
-2.3856276e-05
-0.0018038566
-2.6755955e-05
-0.001799494
-2.9519707e-05
-0.0017947437
-3.2122418e-05
-0.0017896339
-3.4541061e-05
-0.0017841962
-3.6755274e-05
-0.0017784647
-3.8747637e-05
-0.0017724756
-4.0504131e-05
-0.0017662668
-4.2014179e-05
-0.0017598769
-4.3270918e-05
-0.0017533452
-4.427101e-05
-0.0017467107
-4.501473e-05
-0.0017400116
-4.5505651e-05
-0.0017332853
-4.5750412e-05
-0.0017265672
-4.5758365e-05
-0.001719891
-4.5541309e-05
-0.001713288
-4.511292e-05
-0.0017067872
-4.4488507e-05
-0.0017004148
-4.3684415e-05
-0.0016941942
-4.2717856e-05
-0.0016881463
-4.1606217e-05
-0.0016822891
-4.0367001e-05
-0.0016766378
-3.9017331e-05
-0.0016712054
-3.7573776e-05
-0.0016660022
-3.605204e-05
-0.0016610364
-3.4466911e-05
-0.0016563141
-3.2831926e-05
-0.0016518398
-3.1159456e-05
-0.0016476162
-2.9460543e-05
-0.0016436446
-2.774491e-05
-0.0016399253
-2.6020933e-05
-0.0016364573
-2.4295742e-05
-0.0016332392
-2.2575142e-05
-0.0016302687
-2.0863811e-05
-0.0016275431
-1.9165294e-05
-0.0016250596
-1.7482138e-05
-0.0016228149
-1.5815915e-05
-0.001620806
-1.4167432e-05
-0.0016190297
-1.2536612e-05
-0.0016174831
-1.092287e-05
-0.0016161637
-9.324801e-06
-0.0016150689
-7.740839e-06
-0.0016141968
-6.1684095e-06
-0.0016135459
-4.6054911e-06
-0.0016131152
-3.0483108e-06
-1.4951773e-06
-0.0016228075
7.1381735e-06
-0.0016237123
7.4140221e-06
-0.0016246467
7.6510174e-06
-0.0016256187
7.9515043e-06
-0.0016266271
8.2423406e-06
-0.0016276768
8.572988e-06
-0.0016287686
8.910454e-06
-0.0016299063
9.2775152e-06
-0.0016310916
9.6593727e-06
-0.0016323277
1.0066752e-05
-0.0016336169
1.0493164e-05
-0.0016349623
1.0943914e-05
-0.0016363665
1.1416307e-05
-0.0016378324
1.1913206e-05
-0.0016393631
1.2433618e-05
-0.0016409616
1.2979274e-05
-0.0016426311
1.354989e-05
-0.0016443748
1.4146614e-05
-0.001646196
1.476937e-05
-0.0016480982
1.5418928e-05
-0.0016500846
1.6095148e-05
-0.0016521589
1.6798474e-05
-0.0016543246
1.7528533e-05
-0.0016565851
1.8285422e-05
-0.0016589441
1.9068408e-05
-0.001661405
1.9877178e-05
-0.0016639713
2.0710518e-05
-0.0016666463
2.1567598e-05
-0.0016694332
2.2446582e-05
-0.001672335
2.3345978e-05
-0.0016753545
2.4263147e-05
-0.0016784943
2.5195645e-05
-0.0016817564
2.6140244e-05
-0.0016851426
2.7092811e-05
-0.001688654
2.8049348e-05
-0.0016922913
2.9004315e-05
-0.0016960544
2.9952391e-05
-0.0016999424
3.0886591e-05
-0.0017039534
3.1800188e-05
-0.0017080849
3.268474e-05
-0.001712333
3.3532174e-05
-0.0017166927
3.4332787e-05
-0.0017211578
3.5077205e-05
-0.0017257208
3.5755136e-05
-0.0017303728
3.6356188e-05
-0.0017351035
3.6869815e-05
-0.0017399013
3.7285492e-05
-0.0017447529
3.7592965e-05
-0.001749644
3.7782266e-05
-0.0017545586
3.784402e-05
-0.0017594795
3.7769507e-05
-0.0017643883
3.7550782e-05
-0.0017692654
3.7180727e-05
-0.0017740903
3.6653156e-05
-0.0017788412
3.5962654e-05
-0.0017834958
3.510468e-05
-0.0017880308
3.4075428e-05
-0.0017924221
3.2871758e-05
-0.0017966451
3.149111e-05
-0.0018006749
2.9931528e-05
-0.0018044858
2.819152e-05
-0.001808052
2.6270248e-05
-0.0018113477
2.4167586e-05
-0.001814347
2.1884325e-05
-0.0018170242
1.9422442e-05
-0.0018193542
1.6785399e-05
-0.0018213129
1.3978543e-05
-0.0018228771
1.1009364e-05
-0.0018240253
7.8879468e-06
-0.0018247379
4.6271391e-06
-0.0018249977
1.2428806e-06
-0.0018247904
-2.2459202e-06
-0.0018241046
-5.8170984e-06
-0.0018229327
-9.4457684e-06
-0.0018212709
-1.310468e-05
-0.0018191195
-1.6764229e-05
-0.001816483
-2.039333e-05
-0.0018133706
-2.3959812e-05
-0.0018097956
-2.7431282e-05
-0.0018057759
-3.0775673e-05
-0.0018013335
-3.39621e-05
-0.0017964944
-3.6961504e-05
-0.0017912882
-3.9747241e-05
-0.0017857477
-4.2295771e-05
-0.0017799084
-4.458696e-05
-0.0017738079
-4.6604645e-05
-0.0017674854
-4.8336654e-05
-0.0017609811
-4.9775166e-05
-0.0017543357
-5.0916451e-05
-0.0017475894
-5.1761017e-05
-0.0017407819
-5.2313203e-05
-0.0017339513
-5.2580943e-05
-0.0017271344
-5.2575307e-05
-0.0017203655
-5.2310231e-05
-0.0017136766
-5.1801801e-05
-0.0017070971
-5.1067996e-05
-0.0017006536
-5.0127961e-05
-0.0016943696
-4.900182e-05
-0.0016882659
-4.770986e-05
-0.0016823605
-4.6272462e-05
-0.0016766683
-4.4709522e-05
-0.0016712018
-4.3040252e-05
-0.001665971
-4.1282825e-05
-0.0016609836
-3.9454312e-05
-0.0016562453
-3.7570308e-05
-0.0016517597
-3.5645027e-05
-0.0016475291
-3.3691128e-05
-0.0016435543
-3.1719723e-05
-0.0016398349
-2.9740358e-05
-0.0016363695
-2.776113e-05
-0.001633156
-2.5788602e-05
-0.0016301918
-2.3828038e-05
-0.0016274737
-2.1883392e-05
-0.0016249984
-1.9957473e-05
-0.0016227623
-1.8051972e-05
-0.001620762
-1.6167705e-05
-0.0016189942
-1.4304476e-05
-0.0016174555
-1.2461515e-05
-0.0016161432
-1.0637107e-05
-0.0016150547
-8.8293721e-06
-0.0016141878
-7.0352616e-06
-0.0016135409
-5.2523875e-06
-0.0016131129
-3.4763245e-06
-1.7050904e-06
-0.0016226801
7.9987065e-06
-0.001623575
8.308899e-06
-0.0016244996
8.575616e-06
-0.0016254617
8.913627e-06
-0.0016264602
9.2408315e-06
-0.0016275
9.6127604e-06
-0.0016285819
9.9923438e-06
-0.0016297095
1.040517e-05
-0.0016308847
1.0834596e-05
-0.0016321107
1.1292675e-05
-0.0016333896
1.1772107e-05
-0.0016347245
1.2278857e-05
-0.0016361181
1.2809894e-05
-0.0016375734
1.3368444e-05
-0.0016390931
1.3953399e-05
-0.0016406806
1.4566722e-05
-0.0016423388
1.5208111e-05
-0.0016440711
1.5878885e-05
-0.0016458807
1.657899e-05
-0.0016477711
1.7309331e-05
-0.0016497458
1.8069794e-05
-0.0016518082
1.886093e-05
-0.0016539621
1.9682373e-05
-0.0016562109
2.0534293e-05
-0.0016585584
2.1415931e-05
-0.0016610083
2.2327e-05
-0.001663564
2.3266206e-05
-0.001666229
2.4232687e-05
-0.0016690069
2.5224448e-05
-0.0016719008
2.6239885e-05
-0.0016749138
2.7276102e-05
-0.0016780485
2.8330421e-05
-0.0016813076
2.9399278e-05
-0.0016846929
3.0478094e-05
-0.001688206
3.1562434e-05
-0.0016918478
3.2646125e-05
-0.0016956186
3.3723232e-05
-0.001699518
3.4785944e-05
-0.0017035445
3.5826727e-05
-0.0017076959
3.6836107e-05
-0.0017119687
3.7805009e-05
-0.0017163584
3.8722504e-05
-0.0017208592
3.9578012e-05
-0.001725464
4.0359897e-05
-0.0017301642
4.1056381e-05
-0.0017349498
4.165548e-05
-0.0017398095