/*--------------------------------*- C++ -*----------------------------------*\
| =========                 |                                                 |
| \\      /  F ield         | foam-extend: Open Source CFD                    |
|  \\    /   O peration     | Version:     4.1                                |
|   \\  /    A nd           | Web:         http://www.foam-extend.org         |
|    \\/     M anipulation  |                                                 |
\*---------------------------------------------------------------------------*/
FoamFile
{
    version     2.0;
    format      ascii;
    class       volScalarField;
    location    "1.3";
    object      rAU;
}
// * * * * * * * * * * * * * * * * * * * * * * * * * * * * * * * * * * * * * //

dimensions      [0 0 1 0 0 0 0];

internalField   nonuniform List<scalar> 
16796
(
0.00048787292
0.00048746093
0.00048745499
0.0004874489
0.00048744251
0.00048743595
0.00048742905
0.00048742195
0.00048741448
0.00048740678
0.00048739868
0.00048739031
0.0004873815
0.0004873724
0.00048736282
0.0004873529
0.00048734247
0.00048733166
0.0004873203
0.00048730852
0.00048729615
0.00048728333
0.00048726986
0.00048725591
0.00048724128
0.00048722613
0.00048721025
0.00048719383
0.00048717665
0.00048715889
0.00048714036
0.00048712117
0.00048710134
0.00048708071
0.00048705946
0.00048703742
0.00048701479
0.00048699138
0.00048696741
0.00048694271
0.0004869175
0.00048689164
0.00048686532
0.00048683851
0.00048681131
0.00048678377
0.00048675597
0.000486728
0.00048669994
0.0004866719
0.00048664397
0.00048661627
0.00048658889
0.00048656198
0.00048653564
0.00048650999
0.00048648515
0.00048646125
0.00048643841
0.00048641677
0.00048639645
0.00048637756
0.00048636024
0.00048634461
0.0004863308
0.00048631891
0.00048630909
0.00048630143
0.00048629604
0.00048629302
0.00048629245
0.00048629245
0.00048629442
0.00048629897
0.00048630616
0.00048631599
0.00048632849
0.00048634361
0.00048636135
0.0004863816
0.00048640429
0.00048642932
0.00048645654
0.00048648581
0.00048651696
0.00048654981
0.00048658415
0.0004866198
0.00048665654
0.00048669415
0.00048673243
0.00048677116
0.00048681013
0.00048684916
0.00048688804
0.0004869266
0.00048696467
0.0004870021
0.00048703875
0.00048707449
0.00048710921
0.00048714281
0.0004871752
0.00048720633
0.00048723612
0.00048726453
0.00048729152
0.00048731707
0.00048734115
0.00048736377
0.0004873849
0.00048740456
0.00048742274
0.00048743945
0.0004874547
0.00048746851
0.00048748089
0.00048749185
0.0004875014
0.00048750956
0.00048751633
0.00048752174
0.00048752577
0.00048712271
0.00048756272
0.00048715106
0.00048714495
0.00048713865
0.00048713205
0.00048712525
0.00048711811
0.00048711076
0.00048710301
0.00048709502
0.00048708661
0.00048707792
0.00048706877
0.00048705931
0.00048704935
0.00048703904
0.00048702819
0.00048701695
0.00048700513
0.00048699289
0.00048698002
0.00048696669
0.0004869527
0.0004869382
0.00048692301
0.00048690727
0.0004868908
0.00048687376
0.00048685595
0.00048683755
0.00048681835
0.00048679851
0.000486778
0.00048675669
0.00048673476
0.00048671205
0.00048668874
0.00048666468
0.00048664006
0.00048661474
0.00048658894
0.00048656253
0.00048653569
0.00048650843
0.00048648082
0.00048645293
0.00048642486
0.0004863967
0.00048636853
0.00048634047
0.00048631263
0.00048628511
0.00048625803
0.00048623152
0.00048620569
0.00048618067
0.00048615658
0.00048613355
0.00048611171
0.00048609119
0.0004860721
0.00048605458
0.00048603875
0.00048602474
0.00048601267
0.00048600266
0.00048599482
0.00048598927
0.0004859861
0.0004859854
0.00048598726
0.00048598585
0.00048598521
0.00048598712
0.00048599164
0.00048599882
0.00048600868
0.00048602123
0.00048603646
0.00048605429
0.00048607469
0.00048609756
0.00048612277
0.00048615021
0.00048617971
0.0004862111
0.0004862442
0.00048627881
0.00048631472
0.00048635172
0.00048638959
0.00048642812
0.00048646708
0.00048650628
0.00048654552
0.00048658459
0.00048662332
0.00048666155
0.00048669911
0.00048673587
0.00048677171
0.00048680651
0.00048684016
0.00048687261
0.00048690376
0.00048693356
0.00048696198
0.00048698897
0.00048701449
0.00048703856
0.00048706115
0.00048708225
0.00048710187
0.00048712001
0.00048713668
0.0004871519
0.00048716567
0.00048717802
0.00048718894
0.00048719847
0.0004872066
0.00048721336
0.00048721875
0.00048681755
0.00048755743
0.00048714558
0.00048713931
0.0004871328
0.00048712599
0.00048711896
0.00048711158
0.00048710396
0.00048709594
0.00048708766
0.00048707893
0.00048706992
0.00048706043
0.0004870506
0.00048704026
0.00048702955
0.00048701828
0.00048700661
0.00048699434
0.00048698162
0.00048696825
0.00048695441
0.00048693988
0.00048692482
0.00048690905
0.00048689272
0.00048687564
0.00048685796
0.00048683951
0.00048682044
0.00048680058
0.00048678004
0.00048675883
0.00048673682
0.00048671418
0.00048669076
0.00048666675
0.00048664198
0.00048661668
0.00048659069
0.00048656424
0.00048653722
0.0004865098
0.000486482
0.0004864539
0.00048642559
0.00048639716
0.00048636871
0.00048634034
0.00048631216
0.00048628429
0.00048625683
0.00048622992
0.00048620369
0.00048617825
0.00048615374
0.00048613027
0.00048610799
0.00048608701
0.00048606748
0.00048604951
0.00048603324
0.00048601879
0.00048600629
0.00048599587
0.00048598763
0.00048598172
0.0004859782
0.0004859772
0.00048597879
0.00048598303
0.00048598029
0.000485977
0.00048597624
0.00048597809
0.00048598263
0.00048598989
0.00048599989
0.00048601266
0.00048602815
0.00048604633
0.00048606713
0.00048609044
0.00048611616
0.00048614413
0.0004861742
0.00048620619
0.0004862399
0.00048627513
0.00048631165
0.00048634926
0.00048638773
0.00048642683
0.00048646634
0.00048650606
0.00048654577
0.00048658528
0.00048662442
0.00048666301
0.0004867009
0.00048673794
0.00048677402
0.00048680901
0.00048684284
0.00048687542
0.00048690667
0.00048693656
0.00048696502
0.00048699204
0.00048701759
0.00048704165
0.00048706422
0.0004870853
0.00048710488
0.00048712299
0.00048713963
0.0004871548
0.00048716854
0.00048718085
0.00048719174
0.00048720123
0.00048720935
0.00048721609
0.00048681624
0.00048755225
0.00048714023
0.0004871338
0.00048712708
0.00048712008
0.00048711282
0.00048710521
0.00048709733
0.00048708904
0.00048708048
0.00048707145
0.00048706212
0.00048705229
0.00048704211
0.0004870314
0.0004870203
0.00048700862
0.00048699652
0.00048698379
0.00048697061
0.00048695676
0.0004869424
0.00048692735
0.00048691175
0.00048689541
0.00048687849
0.0004868608
0.0004868425
0.00048682341
0.00048680368
0.00048678314
0.00048676192
0.00048674001
0.00048671729
0.00048669394
0.00048666979
0.00048664506
0.00048661958
0.00048659357
0.00048656689
0.00048653977
0.0004865121
0.00048648406
0.00048645568
0.00048642706
0.00048639827
0.00048636942
0.00048634062
0.00048631198
0.0004862836
0.00048625562
0.00048622815
0.00048620132
0.00048617528
0.00048615013
0.00048612602
0.00048610308
0.00048608143
0.00048606122
0.00048604258
0.00048602563
0.00048601051
0.00048599736
0.00048598629
0.00048597744
0.00048597092
0.00048596685
0.00048596534
0.00048596646
0.0004859703
0.00048597692
0.00048597297
0.00048596699
0.00048596352
0.00048596269
0.00048596456
0.00048596921
0.00048597668
0.00048598702
0.0004860002
0.0004860162
0.00048603498
0.00048605646
0.00048608052
0.00048610705
0.00048613588
0.00048616684
0.00048619975
0.00048623439
0.00048627054
0.00048630799
0.00048634649
0.00048638582
0.00048642574
0.00048646603
0.00048650647
0.00048654684
0.00048658696
0.00048662664
0.00048666571
0.00048670402
0.00048674142
0.00048677779
0.00048681305
0.00048684708
0.00048687981
0.00048691117
0.00048694113
0.00048696964
0.00048699668
0.00048702222
0.00048704626
0.0004870688
0.00048708982
0.00048710935
0.0004871274
0.00048714398
0.0004871591
0.00048717278
0.00048718503
0.00048719588
0.00048720535
0.00048721344
0.00048681494
0.0004875472
0.00048713501
0.00048712843
0.00048712151
0.00048711432
0.00048710684
0.000487099
0.00048709088
0.00048708233
0.00048707348
0.00048706417
0.00048705452
0.00048704436
0.00048703384
0.00048702276
0.00048701128
0.00048699921
0.00048698668
0.00048697352
0.00048695988
0.00048694555
0.00048693069
0.00048691512
0.00048689898
0.00048688208
0.00048686459
0.0004868463
0.00048682738
0.00048680765
0.00048678727
0.00048676606
0.00048674414
0.00048672154
0.0004866981
0.00048667402
0.00048664915
0.00048662368
0.00048659747
0.00048657073
0.00048654333
0.0004865155
0.00048648715
0.00048645846
0.00048642946
0.00048640025
0.00048637093
0.0004863416
0.00048631238
0.00048628339
0.00048625474
0.00048622656
0.00048619899
0.00048617215
0.00048614619
0.00048612124
0.00048609743
0.00048607491
0.0004860538
0.00048603425
0.00048601639
0.00048600037
0.00048598632
0.00048597436
0.00048596465
0.0004859573
0.00048595243
0.00048595016
0.0004859506
0.00048595382
0.00048595991
0.0004859689
0.00048596391
0.00048595517
0.00048594896
0.0004859454
0.00048594458
0.00048594662
0.00048595156
0.00048595947
0.00048597036
0.00048598423
0.00048600104
0.00048602073
0.00048604321
0.00048606836
0.00048609604
0.00048612607
0.00048615827
0.00048619242
0.0004862283
0.00048626569
0.00048630433
0.00048634399
0.00048638442
0.00048642538
0.00048646663
0.00048650795
0.00048654914
0.00048658998
0.0004866303
0.00048666993
0.00048670871
0.00048674651
0.00048678322
0.00048681874
0.00048685297
0.00048688584
0.00048691731
0.00048694732
0.00048697586
0.00048700289
0.00048702839
0.00048705238
0.00048707484
0.00048709579
0.00048711525
0.00048713321
0.0004871497
0.00048716475
0.00048717836
0.00048719056
0.00048720137
0.0004872108
0.00048681365
0.00048754227
0.00048712992
0.0004871232
0.00048711609
0.00048710872
0.00048710103
0.00048709297
0.0004870846
0.0004870758
0.00048706669
0.00048705708
0.00048704714
0.00048703666
0.0004870258
0.00048701437
0.00048700251
0.00048699004
0.00048697711
0.00048696352
0.00048694943
0.00048693463
0.00048691929
0.0004869032
0.00048688653
0.00048686908
0.00048685101
0.00048683213
0.0004868126
0.00048679224
0.0004867712
0.00048674932
0.00048672672
0.0004867034
0.00048667924
0.00048665444
0.00048662882
0.0004866026
0.00048657563
0.00048654814
0.00048652
0.00048649143
0.00048646236
0.00048643297
0.0004864033
0.00048637345
0.00048634354
0.00048631366
0.00048628395
0.00048625453
0.00048622552
0.00048619706
0.00048616929
0.00048614234
0.00048611637
0.0004860915
0.00048606789
0.00048604567
0.000486025
0.000486006
0.00048598883
0.00048597363
0.00048596055
0.00048594971
0.00048594127
0.00048593535
0.00048593207
0.00048593157
0.00048593392
0.00048593922
0.00048594753
0.0004859589
0.00048595312
0.00048594157
0.00048593255
0.0004859262
0.00048592267
0.00048592206
0.00048592446
0.00048592996
0.00048593857
0.00048595033
0.00048596521
0.00048598317
0.00048600413
0.00048602798
0.00048605458
0.00048608377
0.00048611536
0.00048614912
0.00048618484
0.00048622228
0.00048626117
0.00048630126
0.0004863423
0.00048638403
0.0004864262
0.00048646856
0.0004865109
0.00048655299
0.00048659463
0.00048663564
0.00048667586
0.00048671514
0.00048675336
0.00048679039
0.00048682615
0.00048686056
0.00048689355
0.00048692508
0.00048695512
0.00048698364
0.00048701062
0.00048703605
0.00048705995
0.00048708231
0.00048710316
0.00048712251
0.00048714037
0.00048715677
0.00048717172
0.00048718526
0.0004871974
0.00048720817
0.00048681236
0.00048753748
0.00048712496
0.00048711811
0.00048711082
0.00048710327
0.00048709538
0.0004870871
0.00048707851
0.00048706947
0.00048706009
0.00048705021
0.00048703996
0.00048702918
0.00048701799
0.00048700621
0.00048699399
0.00048698114
0.00048696781
0.0004869538
0.00048693926
0.00048692401
0.00048690818
0.0004868916
0.00048687441
0.00048685641
0.00048683778
0.00048681831
0.00048679818
0.00048677718
0.0004867555
0.00048673294
0.00048670965
0.00048668562
0.00048666073
0.00048663518
0.00048660881
0.00048658182
0.00048655408
0.00048652581
0.00048649688
0.00048646755
0.00048643771
0.00048640757
0.00048637718
0.00048634663
0.00048631606
0.00048628556
0.00048625528
0.00048622534
0.00048619589
0.00048616705
0.00048613898
0.00048611182
0.00048608572
0.00048606083
0.00048603731
0.00048601529
0.00048599493
0.00048597637
0.00048595979
0.00048594532
0.00048593311
0.00048592331
0.00048591606
0.00048591151
0.00048590977
0.00048591098
0.00048591522
0.00048592258
0.00048593313
0.00048594688
0.00048594061
0.00048592616
0.00048591426
0.00048590508
0.00048589878
0.0004858955
0.00048589533
0.0004858984
0.00048590475
0.00048591442
0.00048592741
0.00048594368
0.00048596318
0.00048598581
0.00048601142
0.00048603985
0.00048607092
0.00048610441
0.00048614007
0.00048617766
0.00048621692
0.00048625757
0.00048629933
0.00048634194
0.00048638513
0.00048642863
0.00048647221
0.00048651563
0.00048655868
0.00048660115
0.00048664287
0.00048668368
0.00048672345
0.00048676204
0.00048679936
0.00048683533
0.00048686987
0.00048690293
0.00048693449
0.0004869645
0.00048699295
0.00048701983
0.00048704516
0.00048706893
0.00048709117
0.00048711189
0.0004871311
0.00048714884
0.00048716513
0.00048718
0.00048719347
0.00048720556
0.00048681108
0.00048753281
0.00048712015
0.00048711317
0.00048710571
0.00048709799
0.00048708989
0.00048708142
0.0004870726
0.00048706332
0.00048705368
0.00048704354
0.00048703301
0.00048702192
0.00048701041
0.0004869983
0.00048698573
0.0004869725
0.00048695878
0.00048694436
0.00048692939
0.00048691369
0.00048689739
0.00048688031
0.00048686261
0.00048684408
0.00048682489
0.00048680484
0.0004867841
0.00048676248
0.00048674015
0.00048671692
0.00048669293
0.00048666819
0.00048664256
0.00048661626
0.00048658911
0.00048656134
0.0004865328
0.00048650372
0.00048647398
0.00048644383
0.00048641319
0.00048638225
0.00048635107
0.00048631977
0.00048628846
0.00048625727
0.00048622634
0.0004861958
0.00048616579
0.00048613648
0.000486108
0.00048608051
0.00048605418
0.00048602915
0.00048600559
0.00048598365
0.00048596349
0.00048594527
0.00048592916
0.00048591531
0.00048590388
0.00048589503
0.00048588891
0.00048588566
0.00048588541
0.0004858883
0.00048589441
0.00048590383
0.0004859166
0.00048593276
0.00048592639
0.00048590894
0.00048589407
0.00048588199
0.00048587287
0.00048586686
0.00048586411
0.00048586474
0.00048586882
0.00048587641
0.00048588753
0.00048590217
0.00048592027
0.00048594173
0.00048596643
0.0004859942
0.00048602486
0.00048605817
0.00048609389
0.00048613177
0.00048617151
0.00048621283
0.00048625544
0.00048629904
0.00048634336
0.00048638811
0.00048643304
0.00048647788
0.00048652241
0.00048656642
0.00048660971
0.00048665211
0.00048669348
0.00048673368
0.0004867726
0.00048681016
0.00048684627
0.00048688088
0.00048691396
0.00048694547
0.00048697539
0.00048700373
0.00048703048
0.00048705565
0.00048707927
0.00048710135
0.00048712191
0.00048714098
0.00048715859
0.00048717477
0.00048718955
0.00048720296
0.0004868098
0.00048752829
0.00048711549
0.00048710838
0.00048710075
0.00048709287
0.00048708459
0.00048707592
0.00048706688
0.00048705737
0.00048704749
0.00048703708
0.00048702628
0.0004870149
0.00048700308
0.00048699064
0.00048697772
0.00048696414
0.00048695003
0.00048693521
0.00048691983
0.00048690368
0.00048688693
0.00048686936
0.00048685116
0.0004868321
0.00048681236
0.00048679173
0.0004867704
0.00048674815
0.00048672517
0.00048670127
0.00048667658
0.00048665112
0.00048662475
0.00048659767
0.00048656974
0.00048654116
0.00048651179
0.00048648188
0.00048645129
0.00048642029
0.00048638879
0.000486357
0.00048632497
0.00048629284
0.00048626073
0.00048622876
0.00048619709
0.00048616585
0.0004861352
0.00048610529
0.0004860763
0.00048604836
0.00048602168
0.00048599638
0.00048597266
0.00048595068
0.0004859306
0.00048591259
0.00048589685
0.00048588351
0.00048587277
0.00048586478
0.00048585971
0.0004858577
0.0004858589
0.00048586343
0.0004858714
0.00048588287
0.0004858979
0.0004859165
0.00048591044
0.00048588989
0.00048587197
0.0004858569
0.00048584488
0.0004858361
0.00048583072
0.00048582888
0.00048583068
0.00048583621
0.00048584549
0.00048585853
0.00048587527
0.00048589564
0.00048591951
0.00048594672
0.00048597706
0.00048601032
0.00048604621
0.0004860845
0.00048612485
0.00048616697
0.00048621055
0.00048625529
0.00048630086
0.00048634697
0.00048639335
0.00048643972
0.00048648583
0.00048653146
0.00048657639
0.00048662045
0.00048666348
0.00048670533
0.00048674589
0.00048678506
0.00048682277
0.00048685894
0.00048689356
0.00048692657
0.00048695798
0.00048698776
0.00048701593
0.00048704249
0.00048706748
0.0004870909
0.0004871128
0.00048713319
0.00048715211
0.00048716959
0.00048718568
0.00048720039
0.00048680854
0.00048752392
0.00048711098
0.00048710376
0.00048709597
0.00048708794
0.00048707947
0.00048707061
0.00048706136
0.00048705164
0.00048704152
0.00048703086
0.00048701978
0.00048700811
0.000486996
0.00048698324
0.00048696999
0.00048695605
0.00048694158
0.00048692636
0.00048691057
0.00048689399
0.00048687679
0.00048685876
0.00048684005
0.00048682048
0.00048680019
0.000486779
0.00048675707
0.0004867342
0.00048671057
0.00048668599
0.00048666061
0.00048663441
0.00048660729
0.00048657943
0.00048655069
0.00048652128
0.00048649107
0.00048646028
0.00048642881
0.00048639691
0.0004863645
0.0004863318
0.00048629887
0.00048626584
0.00048623284
0.0004862
0.00048616749
0.00048613545
0.00048610405
0.00048607344
0.00048604381
0.00048601531
0.00048598813
0.00048596245
0.00048593844
0.00048591628
0.00048589615
0.00048587824
0.00048586274
0.00048584981
0.00048583966
0.00048583244
0.00048582834
0.00048582752
0.00048583012
0.00048583628
0.00048584608
0.00048585962
0.00048587692
0.000485898
0.00048589278
0.00048586901
0.00048584792
0.00048582977
0.00048581477
0.00048580315
0.00048579508
0.00048579075
0.00048579026
0.00048579371
0.00048580117
0.00048581264
0.00048582809
0.00048584743
0.00048587055
0.00048589729
0.00048592743
0.00048596075
0.00048599695
0.00048603577
0.00048607687
0.00048611993
0.00048616463
0.00048621061
0.00048625757
0.00048630517
0.00048635312
0.00048640112
0.00048644891
0.00048649625
0.00048654291
0.00048658869
0.00048663344
0.000486677
0.00048671924
0.00048676006
0.00048679938
0.00048683714
0.00048687331
0.00048690783
0.00048694071
0.00048697194
0.00048700152
0.00048702947
0.00048705581
0.00048708058
0.00048710379
0.00048712548
0.0004871457
0.00048716447
0.00048718184
0.00048719783
0.00048680728
0.0004875197
0.00048710663
0.00048709931
0.00048709136
0.00048708318
0.00048707454
0.0004870655
0.00048705605
0.00048704611
0.00048703576
0.00048702486
0.00048701353
0.00048700159
0.00048698918
0.00048697611
0.00048696254
0.00048694826
0.00048693342
0.00048691783
0.00048690164
0.00048688464
0.000486867
0.0004868485
0.00048682931
0.00048680922
0.0004867884
0.00048676665
0.00048674413
0.00048672064
0.00048669637
0.00048667112
0.00048664502
0.00048661809
0.0004865902
0.00048656155
0.00048653199
0.00048650172
0.00048647063
0.00048643894
0.00048640654
0.00048637369
0.00048634032
0.00048630665
0.00048627275
0.00048623874
0.00048620477
0.00048617098
0.00048613753
0.00048610458
0.00048607231
0.00048604088
0.00048601048
0.00048598128
0.00048595348
0.00048592727
0.00048590283
0.00048588036
0.00048586005
0.0004858421
0.00048582672
0.0004858141
0.00048580442
0.0004857979
0.0004857947
0.00048579501
0.00048579896
0.00048580672
0.00048581836
0.00048583398
0.00048585359
0.00048587721
0.00048587339
0.00048584626
0.00048582189
0.00048580054
0.00048578248
0.00048576793
0.00048575712
0.00048575024
0.00048574743
0.00048574881
0.00048575446
0.00048576439
0.00048577859
0.00048579698
0.00048581944
0.0004858458
0.00048587586
0.00048590935
0.000485946
0.00048598549
0.00048602749
0.00048607164
0.00048611759
0.00048616498
0.00048621346
0.00048626268
0.00048631233
0.00048636208
0.00048641166
0.0004864608
0.00048650927
0.00048655685
0.00048660339
0.0004866487
0.00048669266
0.00048673517
0.00048677613
0.0004868155
0.00048685322
0.00048688927
0.00048692362
0.00048695629
0.00048698728
0.0004870166
0.00048704429
0.00048707037
0.00048709489
0.00048711787
0.00048713936
0.0004871594
0.00048717804
0.00048719531
0.00048680604
0.00048751564
0.00048710245
0.00048709503
0.00048708694
0.00048707862
0.00048706981
0.0004870606
0.00048705096
0.00048704081
0.00048703024
0.00048701911
0.00048700752
0.00048699531
0.00048698262
0.00048696926
0.00048695537
0.00048694076
0.00048692558
0.00048690962
0.00048689304
0.00048687563
0.00048685756
0.00048683861
0.00048681894
0.00048679835
0.000486777
0.00048675469
0.00048673159
0.00048670749
0.00048668257
0.00048665664
0.00048662984
0.00048660217
0.0004865735
0.00048654404
0.00048651363
0.00048648249
0.00048645048
0.00048641785
0.00048638449
0.00048635065
0.00048631626
0.00048628156
0.0004862466
0.00048621154
0.00048617651
0.00048614166
0.00048610718
0.00048607321
0.00048603994
0.00048600756
0.00048597626
0.00048594622
0.00048591766
0.00048589077
0.00048586576
0.00048584283
0.0004858222
0.00048580408
0.00048578869
0.00048577625
0.00048576696
0.00048576103
0.00048575866
0.00048576003
0.00048576531
0.00048577465
0.00048578813
0.00048580584
0.00048582781
0.00048585402
0.00048585226
0.00048582163
0.00048579383
0.00048576917
0.00048574792
0.00048573037
0.00048571674
0.00048570727
0.0004857021
0.0004857014
0.00048570524
0.00048571366
0.00048572666
0.00048574416
0.00048576604
0.00048579214
0.00048582222
0.00048585603
0.00048589326
0.00048593358
0.00048597662
0.00048602202
0.00048606939
0.00048611834
0.00048616849
0.00048621948
0.00048627096
0.00048632259
0.00048637406
0.00048642511
0.00048647548
0.00048652494
0.00048657333
0.00048662045
0.00048666618
0.00048671041
0.00048675305
0.00048679403
0.00048683333
0.0004868709
0.00048690673
0.00048694083
0.00048697322
0.0004870039
0.00048703292
0.00048706031
0.00048708611
0.00048711036
0.00048713311
0.0004871544
0.00048717429
0.00048719282
0.00048680481
0.00048751175
0.00048709845
0.00048709094
0.00048708271
0.00048707426
0.00048706528
0.00048705591
0.00048704608
0.00048703574
0.00048702496
0.0004870136
0.00048700177
0.00048698931
0.00048697635
0.0004869627
0.00048694851
0.00048693357
0.00048691805
0.00048690173
0.00048688478
0.00048686697
0.00048684848
0.00048682909
0.00048680895
0.00048678787
0.000486766
0.00048674314
0.00048671946
0.00048669475
0.00048666919
0.00048664259
0.00048661507
0.00048658665
0.0004865572
0.00048652691
0.00048649564
0.00048646359
0.00048643065
0.00048639704
0.00048636266
0.00048632778
0.00048629232
0.00048625651
0.00048622043
0.00048618423
0.00048614804
0.00048611204
0.0004860764
0.00048604129
0.00048600691
0.00048597344
0.00048594109
0.00048591006
0.00048588059
0.00048585287
0.00048582713
0.00048580359
0.00048578249
0.00048576405
0.00048574853
0.00048573614
0.00048572712
0.00048572169
0.00048572007
0.00048572246
0.00048572903
0.00048573993
0.00048575526
0.0004857751
0.00048579947
0.00048582834
0.00048582938
0.00048579507
0.0004857637
0.00048573558
0.00048571104
0.00048569038
0.00048567384
0.00048566171
0.00048565415
0.00048565134
0.00048565337
0.00048566031
0.00048567215
0.00048568883
0.00048571022
0.00048573616
0.0004857664
0.00048580066
0.00048583862
0.00048587994
0.0004859242
0.00048597101
0.00048601997
0.00048607064
0.00048612263
0.00048617554
0.00048622899
0.00048628263
0.00048633613
0.00048638919
0.00048644156
0.00048649298
0.00048654329
0.00048659228
0.00048663983
0.00048668581
0.00048673015
0.00048677278
0.00048681366
0.00048685275
0.00048689006
0.00048692559
0.00048695936
0.00048699139
0.00048702173
0.0004870504
0.00048707746
0.00048710296
0.00048712695
0.00048714948
0.0004871706
0.00048719036
0.0004868036
0.00048750804
0.00048709463
0.00048708703
0.00048707867
0.0004870701
0.00048706097
0.00048705144
0.00048704143
0.00048703091
0.00048701992
0.00048700834
0.00048699629
0.00048698358
0.00048697036
0.00048695643
0.00048694195
0.0004869267
0.00048691085
0.00048689419
0.00048687687
0.00048685868
0.00048683978
0.00048681995
0.00048679936
0.0004867778
0.00048675542
0.00048673202
0.00048670777
0.00048668245
0.00048665625
0.00048662897
0.00048660074
0.00048657156
0.00048654131
0.00048651018
0.00048647802
0.00048644505
0.00048641114
0.00048637652
0.00048634108
0.0004863051
0.0004862685
0.00048623152
0.00048619424
0.0004861568
0.00048611937
0.0004860821
0.00048604519
0.00048600882
0.00048597318
0.00048593848
0.00048590493
0.00048587276
0.00048584221
0.00048581349
0.00048578686
0.00048576255
0.00048574082
0.00048572191
0.00048570611
0.00048569365
0.00048568478
0.00048567976
0.00048567882
0.00048568217
0.00048568998
0.00048570244
0.00048571963
0.00048574163
0.00048576846
0.00048580008
0.00048580473
0.00048576658
0.00048573146
0.00048569974
0.00048567176
0.00048564786
0.00048562833
0.00048561346
0.00048560345
0.0004855985
0.00048559873
0.0004856042
0.00048561493
0.00048563086
0.00048565186
0.00048567774
0.00048570827
0.00048574314
0.000485782
0.00048582447
0.00048587013
0.00048591855
0.00048596927
0.00048602185
0.00048607585
0.00048613084
0.00048618642
0.00048624221
0.00048629786
0.00048635306
0.00048640752
0.000486461
0.0004865133
0.00048656422
0.00048661363
0.00048666142
0.00048670748
0.00048675177
0.00048679424
0.00048683487
0.00048687365
0.0004869106
0.00048694574
0.0004869791
0.00048701073
0.00048704067
0.00048706898
0.0004870957
0.0004871209
0.00048714463
0.00048716696
0.00048718794
0.00048680241
0.00048750451
0.000487091
0.00048708333
0.00048707484
0.00048706615
0.00048705688
0.0004870472
0.00048703703
0.00048702632
0.00048701514
0.00048700336
0.00048699108
0.00048697813
0.00048696466
0.00048695047
0.0004869357
0.00048692016
0.000486904
0.000486887
0.00048686932
0.00048685076
0.00048683146
0.00048681122
0.00048679018
0.00048676815
0.00048674527
0.00048672134
0.00048669652
0.0004866706
0.00048664376
0.0004866158
0.00048658685
0.00048655692
0.00048652586
0.00048649387
0.00048646081
0.00048642689
0.00048639197
0.00048635629
0.00048631975
0.00048628262
0.00048624482
0.0004862066
0.00048616803
0.00048612928
0.00048609049
0.00048605185
0.00048601354
0.00048597576
0.00048593872
0.00048590264
0.00048586774
0.00048583426
0.00048580246
0.00048577257
0.00048574486
0.00048571961
0.00048569708
0.00048567755
0.00048566131
0.00048564864
0.00048563981
0.0004856351
0.00048563475
0.00048563899
0.00048564803
0.00048566203
0.0004856811
0.00048570532
0.00048573468
0.00048576914
0.00048577829
0.00048573609
0.00048569705
0.00048566155
0.00048562999
0.00048560273
0.00048558009
0.0004855624
0.00048554988
0.00048554275
0.00048554116
0.00048554519
0.00048555485
0.00048557009
0.00048559079
0.00048561675
0.00048564771
0.00048568334
0.00048572327
0.0004857671
0.00048581435
0.00048586456
0.00048591725
0.00048597194
0.00048602813
0.00048608538
0.00048614326
0.00048620135
0.00048625929
0.00048631674
0.00048637341
0.00048642903
0.0004864834
0.00048653632
0.00048658764
0.00048663726
0.00048668508
0.00048673104
0.00048677511
0.00048681727
0.00048685752
0.00048689588
0.00048693238
0.00048696705
0.00048699996
0.00048703114
0.00048706066
0.00048708858
0.00048711497
0.00048713988
0.00048716339
0.00048718556
0.00048680123
0.00048750118
0.00048708758
0.00048707983
0.00048707123
0.00048706243
0.00048705302
0.0004870432
0.00048703287
0.00048702199
0.00048701063
0.00048699864
0.00048698615
0.00048697298
0.00048695927
0.00048694482
0.00048692979
0.00048691396
0.00048689749
0.00048688017
0.00048686216
0.00048684323
0.00048682355
0.0004868029
0.00048678143
0.00048675893
0.00048673556
0.00048671111
0.00048668573
0.00048665922
0.00048663175
0.00048660311
0.00048657344
0.00048654274
0.00048651086
0.00048647801
0.00048644403
0.00048640912
0.00048637317
0.0004863364
0.00048629871
0.00048626037
0.0004862213
0.00048618176
0.00048614183
0.00048610165
0.00048606141
0.00048602126
0.00048598144
0.00048594211
0.00048590352
0.00048586589
0.00048582947
0.0004857945
0.00048576126
0.00048573002
0.00048570106
0.00048567468
0.00048565117
0.00048563084
0.00048561401
0.00048560099
0.00048559207
0.00048558755
0.00048558771
0.0004855928
0.00048560302
0.00048561857
0.00048563954
0.00048566601
0.00048569798
0.00048573539
0.00048575004
0.00048570359
0.00048566041
0.00048562095
0.00048558564
0.00048555487
0.00048552901
0.00048550839
0.00048549329
0.00048548394
0.00048548052
0.00048548311
0.00048549174
0.00048550638
0.00048552687
0.00048555303
0.00048558457
0.00048562114
0.00048566233
0.00048570771
0.00048575676
0.00048580899
0.00048586387
0.00048592086
0.00048597945
0.00048603915
0.00048609951
0.00048616007
0.00048622044
0.00048628027
0.00048633925
0.00048639711
0.00048645363
0.00048650861
0.0004865619
0.00048661339
0.00048666299
0.00048671064
0.00048675632
0.00048680001
0.00048684172
0.00048688148
0.00048691931
0.00048695527
0.00048698942
0.00048702182
0.00048705253
0.00048708162
0.00048710917
0.00048713523
0.0004871599
0.00048718323
0.00048680008
0.00048749804
0.00048708435
0.00048707654
0.00048706783
0.00048705893
0.0004870494
0.00048703945
0.00048702896
0.00048701792
0.00048700638
0.00048699421
0.00048698151
0.00048696813
0.00048695419
0.0004869395
0.0004869242
0.0004869081
0.00048689134
0.00048687372
0.00048685537
0.0004868361
0.00048681605
0.000486795
0.00048677311
0.00048675017
0.00048672632
0.00048670135
0.00048667542
0.00048664833
0.00048662023
0.00048659092
0.00048656052
0.00048652904
0.00048649634
0.00048646261
0.00048642768
0.00048639178
0.00048635475
0.00048631685
0.00048627796
0.00048623835
0.00048619796
0.00048615702
0.00048611563
0.00048607393
0.00048603212
0.00048599035
0.00048594887
0.00048590785
0.00048586755
0.0004858282
0.00048579008
0.00048575343
0.00048571857
0.00048568577
0.00048565536
0.00048562765
0.00048560297
0.00048558166
0.00048556407
0.00048555053
0.00048554139
0.00048553695
0.00048553754
0.00048554341
0.00048555479
0.00048557188
0.00048559478
0.00048562357
0.00048565824
0.00048569871
0.00048571996
0.00048566901
0.00048562148
0.00048557786
0.00048553861
0.00048550417
0.00048547494
0.00048545129
0.00048543352
0.0004854219
0.00048541662
0.00048541778
0.00048542543
0.00048543953
0.00048545993
0.00048548642
0.0004855187
0.00048555639
0.00048559905
0.0004856462
0.00048569729
0.00048575177
0.00048580906
0.00048586859
0.0004859298
0.00048599216
0.00048605517
0.00048611837
0.00048618133
0.00048624369
0.0004863051
0.0004863653
0.00048642405
0.00048648116
0.00048653646
0.00048658986
0.00048664126
0.00048669062
0.00048673791
0.00048678312
0.00048682628
0.00048686741
0.00048690656
0.00048694379
0.00048697916