/*--------------------------------*- C++ -*----------------------------------*\
| =========                 |                                                 |
| \\      /  F ield         | foam-extend: Open Source CFD                    |
|  \\    /   O peration     | Version:     4.1                                |
|   \\  /    A nd           | Web:         http://www.foam-extend.org         |
|    \\/     M anipulation  |                                                 |
\*---------------------------------------------------------------------------*/
FoamFile
{
    version     2.0;
    format      ascii;
    class       volVectorField;
    location    "1.3";
    object      U;
}
// * * * * * * * * * * * * * * * * * * * * * * * * * * * * * * * * * * * * * //

dimensions      [0 1 -1 0 0 0 0];

internalField   nonuniform List<vector> 
16796
(
(1.0059138 -0.00018728696 0)
(1.0068727 -0.00019439812 0)
(1.0072045 -0.00020051559 0)
(1.0079913 -0.00020825838 0)
(1.0085097 -0.00021577561 0)
(1.0092476 -0.00022430574 0)
(1.0098803 -0.00023302915 0)
(1.0106282 -0.00024250978 0)
(1.0113462 -0.00025238559 0)
(1.0121342 -0.00026291938 0)
(1.0129282 -0.00027395618 0)
(1.0137739 -0.00028562376 0)
(1.0146435 -0.00029786104 0)
(1.0155587 -0.00031073451 0)
(1.0165082 -0.00032422472 0)
(1.0175026 -0.00033836892 0)
(1.018538 -0.00035316434 0)
(1.0196203 -0.00036863216 0)
(1.020749 -0.00038477375 0)
(1.0219278 -0.00040159903 0)
(1.0231576 -0.00041910674 0)
(1.0244413 -0.00043729672 0)
(1.0257802 -0.00045616108 0)
(1.0271769 -0.00047568918 0)
(1.028633 -0.00049586369 0)
(1.0301507 -0.00051666218 0)
(1.0317315 -0.0005380552 0)
(1.0333774 -0.00056000616 0)
(1.0350899 -0.00058247024 0)
(1.0368705 -0.00060539321 0)
(1.0387205 -0.00062871058 0)
(1.040641 -0.00065234586 0)
(1.0426327 -0.00067620968 0)
(1.0446963 -0.00070019834 0)
(1.0468319 -0.0007241922 0)
(1.0490394 -0.00074805531 0)
(1.0513181 -0.00077163391 0)
(1.0536671 -0.00079475672 0)
(1.0560846 -0.00081723426 0)
(1.0585684 -0.00083886021 0)
(1.0611157 -0.00085941182 0)
(1.0637229 -0.00087865247 0)
(1.0663858 -0.00089633357 0)
(1.0690991 -0.00091219818 0)
(1.0718573 -0.00092598446 0)
(1.0746535 -0.00093743004 0)
(1.0774805 -0.00094627646 0)
(1.0803301 -0.00095227392 0)
(1.0831934 -0.00095518574 0)
(1.0860607 -0.00095479256 0)
(1.0889219 -0.00095089584 0)
(1.0917662 -0.00094332042 0)
(1.0945823 -0.00093191608 0)
(1.0973585 -0.00091655785 0)
(1.1000829 -0.00089714511 0)
(1.1027431 -0.00087359968 0)
(1.1053265 -0.00084586302 0)
(1.1078207 -0.00081389305 0)
(1.1102127 -0.00077766099 0)
(1.1124897 -0.00073714883 0)
(1.1146389 -0.00069234772 0)
(1.1166474 -0.0006432582 0)
(1.1185022 -0.00058989217 0)
(1.1201906 -0.00053227696 0)
(1.1216997 -0.00047046151 0)
(1.1230171 -0.00040452421 0)
(1.1241305 -0.00033458213 0)
(1.125028 -0.00026080043 0)
(1.1256984 -0.00018340187 0)
(1.1261311 -0.00010267514 0)
(1.1263167 -1.8977971e-05 0)
(1.1262468 6.7252003e-05 0)
(1.1259145 0.00015550461 0)
(1.1253147 0.00024519774 0)
(1.124444 0.00033567824 0)
(1.123301 0.00042623621 0)
(1.1218867 0.00051611896 0)
(1.1202043 0.00060454488 0)
(1.1182593 0.00069072244 0)
(1.1160598 0.00077386746 0)
(1.1136161 0.00085322168 0)
(1.1109405 0.00092807048 0)
(1.1080478 0.0009977581 0)
(1.1049544 0.0010617026 0)
(1.1016782 0.0011194055 0)
(1.0982387 0.0011704621 0)
(1.0946564 0.001214565 0)
(1.0909525 0.0012515087 0)
(1.0871488 0.0012811867 0)
(1.0832671 0.0013035916 0)
(1.0793291 0.001318807 0)
(1.0753562 0.0013270029 0)
(1.0713692 0.0013284245 0)
(1.067388 0.0013233849 0)
(1.0634313 0.0013122519 0)
(1.0595169 0.0012954394 0)
(1.0556612 0.0012733939 0)
(1.0518791 0.001246586 0)
(1.0481843 0.0012154976 0)
(1.0445887 0.0011806147 0)
(1.0411031 0.0011424167 0)
(1.0377367 0.0011013702 0)
(1.0344973 0.0010579213 0)
(1.0313915 0.0010124909 0)
(1.0284246 0.00096546985 0)
(1.0256008 0.00091721627 0)
(1.0229233 0.00086805284 0)
(1.0203943 0.00081826603 0)
(1.0180154 0.00076810538 0)
(1.0157873 0.00071778431 0)
(1.0137102 0.0006674807 0)
(1.0117838 0.00061733905 0)
(1.0100074 0.00056747171 0)
(1.0083801 0.00051796208 0)
(1.0069005 0.00046886546 0)
(1.0055678 0.00042021384 0)
(1.0043798 0.00037201456 0)
(1.0033365 0.00032425857 0)
(1.0024343 0.00027691356 0)
(1.001676 0.00022994066 0)
(1.0010539 0.00018327382 0)
(1.0005782 0.00013685827 0)
(1.0002302 9.0595073e-05 0)
(1.0000381 4.4435104e-05 0)
(1.0059036 -0.00056141576 0)
(1.0068611 -0.0005828184 0)
(1.0071925 -0.00060114655 0)
(1.0079782 -0.00062440902 0)
(1.008496 -0.00064693434 0)
(1.009233 -0.00067253539 0)
(1.009865 -0.00069868628 0)
(1.010612 -0.00072712624 0)
(1.0113292 -0.00075673694 0)
(1.0121165 -0.00078832851 0)
(1.0129097 -0.00082142112 0)
(1.0137546 -0.00085640784 0)
(1.0146234 -0.00089309855 0)
(1.0155379 -0.00093169707 0)
(1.0164865 -0.00097214187 0)
(1.0174801 -0.0010145466 0)
(1.0185147 -0.0010589017 0)
(1.0195962 -0.0011052715 0)
(1.0207241 -0.0011536597 0)
(1.021902 -0.0012040966 0)
(1.0231309 -0.0012565783 0)
(1.0244137 -0.001311105 0)
(1.0257518 -0.0013676531 0)
(1.0271476 -0.0014261913 0)
(1.0286029 -0.0014866681 0)
(1.0301196 -0.0015490165 0)
(1.0316997 -0.0016131489 0)
(1.0333448 -0.001678956 0)
(1.0350567 -0.0017463039 0)
(1.0368367 -0.0018150305 0)
(1.0386861 -0.001884943 0)
(1.0406062 -0.0019558126 0)
(1.0425977 -0.0020273718 0)
(1.0446612 -0.0020993105 0)
(1.046797 -0.0021712705 0)
(1.0490048 -0.0022428451 0)
(1.0512842 -0.0023135741 0)
(1.053634 -0.0023829449 0)
(1.0560527 -0.0024503906 0)
(1.0585381 -0.0025152936 0)
(1.0610873 -0.0025769873 0)
(1.0636968 -0.0026347634 0)
(1.0663623 -0.0026878777 0)
(1.0690788 -0.0027355608 0)
(1.0718406 -0.0027770286 0)
(1.074641 -0.0028114948 0)
(1.0774726 -0.0028381846 0)
(1.0803274 -0.0028563487 0)
(1.0831963 -0.0028652765 0)
(1.0860699 -0.0028643085 0)
(1.0889379 -0.0028528472 0)
(1.0917896 -0.0028303641 0)
(1.0946136 -0.002796405 0)
(1.0973982 -0.0027505905 0)
(1.1001314 -0.0026926137 0)
(1.1028008 -0.0026222342 0)
(1.1053938 -0.0025392705 0)
(1.1078978 -0.00244359 0)
(1.1102998 -0.0023351001 0)
(1.1125869 -0.0022137404 0)
(1.1147462 -0.0020794785 0)
(1.1167647 -0.0019323108 0)
(1.1186293 -0.0017722681 0)
(1.1203271 -0.0015994286 0)
(1.1218452 -0.001413936 0)
(1.123171 -0.0012160237 0)
(1.1242922 -0.0010060427 0)
(1.1251967 -0.00078448985 0)
(1.1258731 -0.00055203843 0)
(1.1263111 -0.00030956339 0)
(1.1265008 -5.8156935e-05 0)
(1.126434 0.00020084137 0)
(1.1261037 0.00046587033 0)
(1.1255047 0.00073517827 0)
(1.1246337 0.0010068069 0)
(1.1234893 0.0012786248 0)
(1.1220725 0.0015483742 0)
(1.1203865 0.0018137108 0)
(1.118437 0.0020722624 0)
(1.116232 0.0023216798 0)
(1.1137819 0.0025596923 0)
(1.1110992 0.002784161 0)
(1.1081987 0.0029931241 0)
(1.1050968 0.003184841 0)
(1.1018117 0.0033578218 0)
(1.098363 0.0035108575 0)
(1.0947712 0.00364303 0)
(1.0910576 0.0037537271 0)
(1.0872442 0.0038426326 0)
(1.0833529 0.0039097275 0)
(1.0794055 0.003955264 0)
(1.0754236 0.0039797544 0)
(1.0714279 0.0039839351 0)
(1.0674384 0.0039687467 0)
(1.063474 0.0039352924 0)
(1.0595524 0.0038848142 0)
(1.0556901 0.0038186514 0)
(1.051902 0.0037382149 0)
(1.0482018 0.0036449505 0)
(1.0446015 0.0035403149 0)
(1.0411118 0.0034257456 0)
(1.0377419 0.0033026412 0)
(1.0344996 0.0031723388 0)
(1.0313914 0.0030361005 0)
(1.0284225 0.0028950975 0)
(1.0255973 0.0027504031 0)
(1.0229187 0.0026029844 0)
(1.0203891 0.0024536997 0)
(1.0180098 0.0023032967 0)
(1.0157815 0.0021524148 0)
(1.0137045 0.0020015867 0)
(1.0117784 0.0018512451 0)
(1.0100023 0.0017017262 0)
(1.0083755 0.0015532794 0)
(1.0068965 0.0014060698 0)
(1.0055644 0.0012601927 0)
(1.004377 0.0011156691 0)
(1.0033343 0.00097247151 0)
(1.0024326 0.00083050146 0)
(1.0016749 0.00068964271 0)
(1.0010532 0.00054969442 0)
(1.0005778 0.00041049444 0)
(1.0002301 0.00027174051 0)
(1.0000381 0.00013329115 0)
(1.0058833 -0.00093481331 0)
(1.006838 -0.00097052423 0)
(1.0071686 -0.0010010591 0)
(1.0079522 -0.0010398606 0)
(1.0084688 -0.0010773963 0)
(1.0092039 -0.0011200855 0)
(1.0098345 -0.0011636724 0)
(1.0105798 -0.0012110875 0)
(1.0112955 -0.0012604443 0)
(1.0120812 -0.0013131079 0)
(1.0128728 -0.0013682681 0)
(1.0137161 -0.0014265867 0)
(1.0145834 -0.001487742 0)
(1.0154962 -0.0015520769 0)
(1.0164432 -0.0016194868 0)
(1.0174352 -0.0016901632 0)
(1.0184681 -0.0017640894 0)
(1.0195479 -0.0018413745 0)
(1.0206741 -0.0019220251 0)
(1.0218503 -0.0020060933 0)
(1.0230774 -0.0020935742 0)
(1.0243584 -0.0021844696 0)
(1.0256947 -0.0022787426 0)
(1.0270888 -0.0023763428 0)
(1.0285423 -0.0024771865 0)
(1.0300573 -0.0025811645 0)
(1.0316358 -0.0026881328 0)
(1.0332794 -0.0027979115 0)
(1.0349898 -0.0029102794 0)
(1.0367686 -0.0030249683 0)
(1.038617 -0.0031416585 0)
(1.0405363 -0.0032599703 0)
(1.0425273 -0.0033794595 0)
(1.0445907 -0.0034996101 0)
(1.0467267 -0.0036198264 0)
(1.0489353 -0.0037394312 0)
(1.0512159 -0.003857658 0)
(1.0535675 -0.0039736529 0)
(1.0559886 -0.0040864708 0)
(1.0584771 -0.0041950819 0)
(1.06103 -0.0042983742 0)
(1.0636441 -0.004395166 0)
(1.0663151 -0.0044842148 0)
(1.069038 -0.0045642356 0)
(1.0718071 -0.004633918 0)
(1.0746158 -0.0046919473 0)
(1.0774568 -0.0047370273 0)
(1.080322 -0.004767903 0)
(1.0832025 -0.0047833833 0)
(1.0860887 -0.0047823616 0)
(1.0889704 -0.0047638331 0)
(1.0918369 -0.0047269081 0)
(1.0946766 -0.0046708194 0)
(1.097478 -0.0045949245 0)
(1.1002289 -0.0044987008 0)
(1.1029167 -0.0043817374 0)
(1.1055289 -0.0042437205 0)
(1.1080525 -0.0040844194 0)
(1.1104745 -0.0039036701 0)
(1.1127819 -0.0037013643 0)
(1.1149613 -0.0034774414 0)
(1.1169997 -0.0032318908 0)
(1.1188838 -0.0029647617 0)
(1.1206004 -0.0026761846 0)
(1.1221365 -0.0023664018 0)
(1.1234791 -0.0020358074 0)
(1.1246157 -0.0016849936 0)
(1.1255341 -0.0013147978 0)
(1.1262228 -0.00092635202 0)
(1.1266711 -0.00052112349 0)
(1.1268692 -0.00010094323 0)
(1.1268086 0.00033195873 0)
(1.1264824 0.00077497397 0)
(1.1258852 0.0012251587 0)
(1.1250137 0.0016792319 0)
(1.1238666 0.0021336219 0)
(1.1224448 0.002584547 0)
(1.1207518 0.0030280823 0)
(1.1187931 0.003460256 0)
(1.1165771 0.0038771356 0)
(1.1141141 0.0042749204 0)
(1.111417 0.0046500305 0)
(1.1085006 0.0049991819 0)
(1.1053816 0.0053194619 0)
(1.1020785 0.0056083768 0)
(1.098611 0.005863905 0)
(1.0949999 0.0060845111 0)
(1.0912668 0.0062691739 0)
(1.0874337 0.0064173682 0)
(1.083523 0.0065290675 0)
(1.0795566 0.0066047003 0)
(1.0755563 0.0066451319 0)
(1.0715429 0.0066516029 0)
(1.0675367 0.0066256962 0)
(1.0635567 0.0065692673 0)
(1.0596206 0.0064844034 0)
(1.0557451 0.0063733538 0)
(1.0519451 0.0062384873 0)
(1.0482342 0.0060822289 0)
(1.0446245 0.0059070217 0)
(1.0411267 0.0057152742 0)
(1.0377498 0.005509329 0)
(1.0345017 0.0052914242 0)
(1.0313888 0.0050636705 0)
(1.0284163 0.004828026 0)
(1.0255882 0.0045862837 0)
(1.0229077 0.0043400578 0)
(1.0203768 0.0040907802 0)
(1.0179968 0.0038396969 0)
(1.0157685 0.0035878726 0)
(1.0136917 0.0033361932 0)
(1.0117663 0.0030853776 0)
(1.0099911 0.0028359829 0)
(1.0083655 0.0025884217 0)
(1.0068877 0.0023429656 0)
(1.005557 0.0020997697 0)
(1.0043708 0.0018588651 0)
(1.0033295 0.0016202027 0)
(1.002429 0.0013836141 0)
(1.0016723 0.001148903 0)
(1.0010515 0.00091572933 0)
(1.0005769 0.00068382208 0)
(1.0002297 0.00045266977 0)
(1.000038 0.00022203848 0)
(1.0058534 -0.0013068198 0)
(1.006804 -0.0013568003 0)
(1.0071333 -0.0013995665 0)
(1.0079138 -0.0014538934 0)
(1.0084284 -0.0015064493 0)
(1.0091609 -0.0015662198 0)
(1.0097893 -0.0016272433 0)
(1.0105322 -0.0016936256 0)
(1.0112456 -0.0017627217 0)
(1.0120289 -0.0018364447 0)
(1.0128182 -0.0019136574 0)
(1.0136591 -0.0019952874 0)
(1.014524 -0.002080883 0)
(1.0154344 -0.0021709248 0)
(1.016379 -0.0022652661 0)
(1.0173685 -0.0023641758 0)
(1.0183989 -0.0024676315 0)
(1.0194762 -0.0025757874 0)
(1.0205997 -0.0026886545 0)
(1.0217733 -0.0028063086 0)
(1.0229978 -0.0029287454 0)
(1.0242761 -0.0030559712 0)
(1.0256097 -0.0031879375 0)
(1.0270011 -0.0033245784 0)
(1.028452 -0.0034657805 0)
(1.0299645 -0.0036113957 0)
(1.0315405 -0.0037612265 0)
(1.0331819 -0.0039150254 0)
(1.0348902 -0.0040724872 0)
(1.0366671 -0.0042332404 0)
(1.0385141 -0.0043968414 0)
(1.0404322 -0.0045627623 0)
(1.0424225 -0.0047303848 0)
(1.0444857 -0.0048989898 0)
(1.0466221 -0.0050677463 0)
(1.0488317 -0.0052357092 0)
(1.0511141 -0.0054018079 0)
(1.0534683 -0.005564849 0)
(1.0558929 -0.0057235111 0)
(1.0583859 -0.0058763538 0)
(1.0609445 -0.0060218207 0)
(1.0635654 -0.0061582566 0)
(1.0662445 -0.0062839206 0)
(1.0689769 -0.0063970106 0)
(1.0717568 -0.0064956877 0)
(1.0745779 -0.0065781051 0)
(1.0774328 -0.0066424397 0)
(1.0803136 -0.0066869243 0)
(1.0832112 -0.0067098787 0)
(1.0861162 -0.0067097388 0)
(1.0890184 -0.0066850806 0)
(1.0919069 -0.0066346392 0)
(1.0947703 -0.0065573188 0)
(1.0975968 -0.0064521965 0)
(1.1003741 -0.0063185159 0)
(1.1030895 -0.0061556759 0)
(1.1057304 -0.0059632115 0)
(1.1082834 -0.0057407739 0)
(1.1107355 -0.0054881096 0)
(1.1130731 -0.005205045 0)
(1.1152829 -0.0048914764 0)
(1.1173513 -0.0045473743 0)
(1.1192647 -0.0041727975 0)
(1.1210096 -0.003767924 0)
(1.1225726 -0.0033330944 0)
(1.1239405 -0.0028688677 0)
(1.1251004 -0.0023760866 0)
(1.1260397 -0.0018559429 0)
(1.1267468 -0.0013100471 0)
(1.1272106 -0.00074048244 0)
(1.1274211 -0.00014984989 0)
(1.1273699 0.00045869825 0)
(1.1270496 0.0010814702 0)
(1.126455 0.0017143009 0)
(1.1255827 0.0023525638 0)
(1.1244313 0.0029912229 0)
(1.123002 0.0036249524 0)
(1.1212982 0.0042482269 0)
(1.1193258 0.0048554578 0)
(1.117093 0.0054411137 0)
(1.1146108 0.00599985 0)
(1.1118919 0.0065266333 0)
(1.1089517 0.0070168478 0)
(1.1058071 0.0074664006 0)
(1.1024769 0.0078717889 0)
(1.0989812 0.0082301752 0)
(1.0953411 0.0085394072 0)
(1.0915786 0.0087980578 0)
(1.0877162 0.0090053986 0)
(1.0837764 0.009161406 0)
(1.0797815 0.0092666966 0)
(1.0757536 0.0093225042 0)
(1.0717138 0.0093305904 0)
(1.0676827 0.0092931998 0)
(1.0636792 0.0092129595 0)
(1.0597216 0.0090928223 0)
(1.0558262 0.0089359671 0)
(1.0520083 0.0087457395 0)
(1.0482815 0.0085255615 0)
(1.0446578 0.0082788778 0)
(1.0411479 0.008009082 0)
(1.0377607 0.0077194723 0)
(1.0345041 0.0074131965 0)
(1.0313842 0.0070932218 0)
(1.0284062 0.0067622977 0)
(1.025574 0.0064229401 0)
(1.0228906 0.0060774115 0)
(1.0203578 0.0057277173 0)
(1.017977 0.0053756003 0)
(1.0157485 0.0050225479 0)
(1.0136723 0.004669796 0)
(1.0117479 0.0043183451 0)
(1.0099742 0.0039689694 0)
(1.0083503 0.0036222393 0)
(1.0068744 0.0032785277 0)
(1.0055457 0.0029380448 0)
(1.0043616 0.0026008267 0)
(1.0033222 0.0022667972 0)
(1.0024235 0.0019357132 0)
(1.0016684 0.0016072935 0)
(1.001049 0.0012810544 0)
(1.0005755 0.00095661136 0)
(1.0002291 0.00063323956 0)
(1.0000379 0.00031060969 0)
(1.0058141 -0.0016770326 0)
(1.0067594 -0.0017412759 0)
(1.0070869 -0.0017962894 0)
(1.0078633 -0.0018661509 0)
(1.0083755 -0.0019337377 0)
(1.0091044 -0.002010601 0)
(1.00973 -0.0020890704 0)
(1.0104695 -0.0021744297 0)
(1.01118 -0.0022632718 0)
(1.0119599 -0.0023580595 0)
(1.0127461 -0.0024573266 0)
(1.0135838 -0.0025622676 0)
(1.0144456 -0.0026722992 0)
(1.0153527 -0.0027880411 0)
(1.016294 -0.0029093042 0)
(1.0172802 -0.0030364362 0)
(1.0183072 -0.0031694094 0)
(1.0193811 -0.0033084255 0)
(1.0205011 -0.0034535018 0)
(1.0216712 -0.0036047401 0)
(1.0228921 -0.00376214 0)
(1.0241669 -0.0039257152 0)
(1.0254969 -0.0040954099 0)
(1.0268847 -0.004271146 0)
(1.0283321 -0.0044527852 0)
(1.0298413 -0.0046401442 0)
(1.031414 -0.0048329767 0)
(1.0330523 -0.0050309719 0)
(1.0347578 -0.0052337445 0)
(1.0365323 -0.0054408238 0)
(1.0383772 -0.0056516463 0)
(1.0402937 -0.0058655392 0)
(1.042283 -0.0060817135 0)
(1.0443459 -0.00629925 0)
(1.0464827 -0.0065170852 0)
(1.0486937 -0.0067340082 0)
(1.0509784 -0.0069486461 0)
(1.053336 -0.0071594675 0)
(1.0557653 -0.0073647753 0)
(1.0582643 -0.0075627181 0)
(1.0608303 -0.007751294 0)
(1.0634603 -0.0079283728 0)
(1.0661501 -0.0080917113 0)
(1.0688949 -0.0082389862 0)
(1.0716893 -0.0083678232 0)
(1.0745269 -0.0084758357 0)
(1.0774003 -0.0085606643 0)
(1.0803017 -0.0086200177 0)
(1.0832222 -0.0086517132 0)
(1.0861523 -0.0086537136 0)
(1.0890817 -0.0086241585 0)
(1.0919997 -0.0085613881 0)
(1.0948946 -0.0084639574 0)
(1.0977545 -0.0083306406 0)
(1.100567 -0.0081604245 0)
(1.1033194 -0.0079524938 0)
(1.1059985 -0.0077062083 0)
(1.1085909 -0.0074210785 0)
(1.111083 -0.0070967396 0)
(1.1134612 -0.0067329334 0)
(1.1157114 -0.0063294973 0)
(1.1178199 -0.0058863704 0)
(1.1197725 -0.0054036139 0)
(1.1215552 -0.0048814509 0)
(1.1231543 -0.0043203235 0)
(1.124556 -0.003720964 0)
(1.1257469 -0.0030844795 0)
(1.1267143 -0.0024124339 0)
(1.1274459 -0.001706938 0)
(1.1279305 -0.00097071402 0)
(1.1281578 -0.00020715913 0)
(1.128119 0.00057962956 0)
(1.1278068 0.001384847 0)
(1.1272157 0.0022030696 0)
(1.1263423 0.0030282899 0)
(1.1251854 0.00385397 0)
(1.123746 0.0046732039 0)
(1.1220278 0.0054788299 0)
(1.1200369 0.006263608 0)
(1.1177818 0.0070203751 0)
(1.1152736 0.007742211 0)
(1.1125256 0.0084226008 0)
(1.1095534 0.0090555702 0)
(1.1063743 0.0096358244 0)
(1.1030077 0.010158833 0)
(1.0994741 0.010620931 0)
(1.0957951 0.01101934 0)
(1.0919932 0.011352229 0)
(1.0880913 0.011618671 0)
(1.0841124 0.011818657 0)
(1.0800793 0.01195301 0)
(1.0760143 0.012023356 0)
(1.0719392 0.012032007 0)
(1.0678746 0.011981899 0)
(1.0638399 0.011876466 0)
(1.0598533 0.01171956 0)
(1.0559315 0.011515326 0)
(1.0520898 0.011268118 0)
(1.0483417 0.010982389 0)
(1.0446994 0.010662612 0)
(1.0411734 0.010313192 0)
(1.0377727 0.0099384042 0)
(1.0345047 0.009542325 0)
(1.0313757 0.0091287918 0)
(1.0283906 0.0087013564 0)
(1.0255531 0.0082632646 0)
(1.0228659 0.0078174317 0)
(1.0203309 0.0073664378 0)
(1.017949 0.0069125218 0)
(1.0157205 0.0064575909 0)
(1.0136452 0.0060032267 0)
(1.0117223 0.0055507061 0)
(1.0099507 0.0051010133 0)
(1.0083293 0.0046548699 0)
(1.0068561 0.0042127428 0)
(1.0055301 0.0037748893 0)
(1.0043488 0.0033413425 0)
(1.0033121 0.0029119923 0)
(1.0024159 0.0024865125 0)
(1.0016631 0.0020645303 0)
(1.0010456 0.00164541 0)
(1.0005736 0.001228648 0)
(1.0002284 0.00081329638 0)
(1.0000378 0.00039892675 0)
(1.005766 -0.0020448585 0)
(1.0067046 -0.0021233351 0)
(1.0070301 -0.0021906074 0)
(1.0078014 -0.0022759936 0)
(1.0083105 -0.0023586159 0)
(1.0090349 -0.0024525657 0)
(1.0096569 -0.002548478 0)
(1.0103923 -0.0026528044 0)
(1.011099 -0.0027613803 0)
(1.011875 -0.0028772146 0)
(1.0126573 -0.0029985132 0)
(1.013491 -0.003126736 0)
(1.0143487 -0.003261169 0)
(1.0152518 -0.0034025701 0)
(1.016189 -0.003550709 0)
(1.017171 -0.0037060125 0)
(1.0181938 -0.0038684498 0)
(1.0192633 -0.0040382711 0)
(1.020379 -0.0042155028 0)
(1.0215446 -0.0044002756 0)
(1.0227611 -0.0045925961 0)
(1.0240313 -0.0047924898 0)
(1.0253569 -0.0049998976 0)
(1.0267403 -0.005214734 0)
(1.0281833 -0.0054368407 0)
(1.0296881 -0.0056660045 0)
(1.0312568 -0.0059019354 0)
(1.0328912 -0.0061442648 0)
(1.0345932 -0.0063925327 0)
(1.0363646 -0.0066461746 0)
(1.0382068 -0.006904512 0)
(1.0401214 -0.0071667327 0)
(1.0421094 -0.0074318817 0)
(1.0441718 -0.0076988446 0)
(1.0463091 -0.0079663297 0)
(1.0485216 -0.0082328645 0)
(1.0508091 -0.0084967777 0)
(1.0531709 -0.0087562032 0)
(1.0556058 -0.0090090706 0)
(1.0581121 -0.0092531195 0)
(1.0606874 -0.0094859035 0)
(1.0633284 -0.0097048163 0)
(1.0660314 -0.0099071109 0)
(1.0687918 -0.010089938 0)
(1.071604 -0.010250384 0)
(1.0744619 -0.010385513 0)
(1.0773584 -0.010492418 0)
(1.0802855 -0.010568272 0)
(1.0832344 -0.010610372 0)
(1.0861957 -0.010616189 0)
(1.0891592 -0.010583404 0)
(1.0921138 -0.010509936 0)
(1.0950481 -0.010393964 0)
(1.0979498 -0.010233928 0)
(1.1008065 -0.010028527 0)
(1.103605 -0.009776696 0)
(1.106332 -0.0094775874 0)
(1.1089737 -0.009130537 0)
(1.1115162 -0.0087350371 0)
(1.1139451 -0.0082907161 0)
(1.1162463 -0.0077973276 0)
(1.118405 -0.0072547601 0)
(1.1204068 -0.0066630636 0)
(1.1222371 -0.0060225002 0)
(1.1238815 -0.005333615 0)
(1.1253256 -0.0045973235 0)
(1.1265557 -0.0038150149 0)
(1.1275584 -0.0029886508 0)
(1.1283209 -0.0021208754 0)
(1.1288316 -0.0012150888 0)
(1.12908 -0.00027552948 0)
(1.1290568 0.00069271474 0)
(1.1287547 0.0016836748 0)
(1.128168 0.0026906198 0)
(1.1272932 0.0037061183 0)
(1.1261292 0.0047220851 0)
(1.1246772 0.0057299934 0)
(1.1229409 0.0067210046 0)
(1.1209267 0.0076861907 0)
(1.1186435 0.0086167214 0)
(1.1161026 0.0095040687 0)
(1.113318 0.010340207 0)
(1.1103055 0.011117778 0)
(1.1070831 0.011830263 0)
(1.1036707 0.012472087 0)
(1.1000894 0.013038747 0)
(1.0963615 0.013526836 0)
(1.09251 0.013934118 0)
(1.0885584 0.014259479 0)
(1.0845303 0.014502941 0)
(1.0804492 0.014665558 0)
(1.0763379 0.014749378 0)
(1.0722184 0.014757294 0)
(1.0681118 0.014692975 0)
(1.0640379 0.0145607 0)
(1.0600151 0.014365264 0)
(1.0560602 0.014111815 0)
(1.0521888 0.013805757 0)
(1.0484143 0.013452607 0)
(1.0447488 0.013057902 0)
(1.0412028 0.012627085 0)
(1.0377852 0.012165434 0)
(1.0345032 0.011677971 0)
(1.031363 0.011169419 0)
(1.0283691 0.010644143 0)
(1.0255252 0.010106127 0)
(1.0228336 0.0095589398 0)
(1.0202959 0.0090057377 0)
(1.0179128 0.0084492529 0)
(1.0156845 0.007891808 0)
(1.0136104 0.0073353236 0)
(1.0116896 0.0067813456 0)
(1.0099207 0.0062310596 0)
(1.0083024 0.0056853294 0)
(1.0068327 0.005144706 0)
(1.0055103 0.0046094845 0)
(1.0043326 0.0040796854 0)
(1.0032993 0.0035551547 0)
(1.0024063 0.0030354744 0)
(1.0016563 0.0025201709 0)
(1.0010412 0.0020084479 0)
(1.0005712 0.0014996751 0)
(1.0002274 0.00099267246 0)
(1.0000376 0.00048690779 0)
(1.0057092 -0.0024098727 0)
(1.00664 -0.0025025732 0)
(1.006963 -0.0025821208 0)
(1.0077282 -0.0026830343 0)
(1.0082336 -0.0027807001 0)
(1.0089527 -0.0028917396 0)
(1.0095706 -0.0030050967 0)
(1.010301 -0.0031283884 0)
(1.0110032 -0.0032566928 0)
(1.0117743 -0.0033935641 0)
(1.012552 -0.0035368798 0)
(1.0133808 -0.0036883651 0)
(1.0142337 -0.0038471752 0)
(1.0151319 -0.0040142071 0)
(1.0160641 -0.0041891895 0)
(1.017041 -0.0043726303 0)
(1.0180587 -0.0045644967 0)
(1.019123 -0.0047650906 0)
(1.0202334 -0.0049744499 0)
(1.0213937 -0.005192738 0)
(1.0226047 -0.0054199729 0)
(1.0238695 -0.0056561961 0)
(1.0251897 -0.0059013506 0)
(1.0265676 -0.0061553492 0)
(1.0280053 -0.0064180193 0)
(1.0295051 -0.006689124 0)
(1.0310688 -0.0069683362 0)
(1.0326985 -0.0072552357 0)
(1.0343963 -0.0075492942 0)
(1.0361638 -0.0078498599 0)
(1.0380029 -0.0081561455 0)
(1.039915 -0.0084672055 0)
(1.0419013 -0.0087819247 0)
(1.043963 -0.0090989989 0)
(1.0461008 -0.0094169136 0)
(1.048315 -0.0097339392 0)
(1.0506057 -0.01004811 0)
(1.0529723 -0.010357228 0)
(1.0554139 -0.010658853 0)
(1.0579288 -0.010950315 0)
(1.0605148 -0.011228724 0)
(1.063169 -0.011490995 0)
(1.0658877 -0.011733874 0)
(1.0686665 -0.01195398 0)
(1.0715 -0.012147848 0)
(1.0743822 -0.012311985 0)
(1.0773062 -0.012442922 0)
(1.080264 -0.012537276 0)
(1.083247 -0.012591806 0)
(1.0862457 -0.012603465 0)
(1.0892499 -0.012569448 0)
(1.0922486 -0.012487223 0)
(1.0952302 -0.012354558 0)
(1.0981823 -0.012169524 0)
(1.101092 -0.011930491 0)
(1.1039462 -0.011636109 0)
(1.1067309 -0.01128528 0)
(1.109432 -0.010877127 0)
(1.1120351 -0.010410964 0)
(1.1145254 -0.0098862712 0)
(1.1168879 -0.0093026919 0)
(1.1191073 -0.0086600414 0)
(1.1211686 -0.0079583445 0)
(1.1230564 -0.0071978965 0)
(1.1247555 -0.0063793484 0)
(1.1262511 -0.0055038113 0)
(1.1275285 -0.0045729773 0)
(1.1285737 -0.0035892348 0)
(1.1293737 -0.002555798 0)
(1.1299161 -0.0014767858 0)
(1.1301899 -0.00035732595 0)
(1.1301858 0.00079645535 0)
(1.1298959 0.0019773696 0)
(1.1293146 0.0031773213 0)
(1.1284382 0.0043873999 0)
(1.1272657 0.0055979155 0)
(1.1257984 0.0067986647 0)
(1.1240403 0.0079790785 0)
(1.1219979 0.009128488 0)
(1.1196806 0.010236347 0)
(1.1171002 0.011292472 0)
(1.1142711 0.012287284 0)
(1.1112098 0.013212001 0)
(1.1079349 0.01405885 0)
(1.104467 0.014821183 0)
(1.1008279 0.015493641 0)
(1.0970406 0.016072177 0)
(1.0931289 0.016554154 0)
(1.0891172 0.016938278 0)
(1.0850296 0.017224628 0)
(1.0808904 0.017414511 0)
(1.0767228 0.017510441 0)
(1.0725497 0.017515935 0)
(1.0683924 0.017435449 0)
(1.0642712 0.017274155 0)
(1.0602048 0.01703785 0)
(1.0562102 0.016732737 0)
(1.052303 0.016365325 0)
(1.0484968 0.015942241 0)
(1.0448036 0.015470133 0)
(1.0412338 0.014955518 0)
(1.0377961 0.014404709 0)
(1.0344976 0.013823703 0)
(1.0313441 0.013218128 0)
(1.02834 0.012593177 0)
(1.0254885 0.01195358 0)
(1.0227919 0.011303568 0)
(1.0202513 0.010646872 0)
(1.0178671 0.0099867154 0)
(1.0156393 0.0093258308 0)
(1.0135669 0.0086664702 0)
(1.0116488 0.008010439 0)
(1.0098834 0.0073591137 0)
(1.0082692 0.0067134886 0)
(1.0068038 0.0060741869 0)
(1.0054859 0.0054415293 0)
(1.0043125 0.0048155112 0)
(1.0032835 0.0041959234 0)
(1.0023944 0.0035822432 0)
(1.0016479 0.002973886 0)
(1.0010359 0.002369882 0)
(1.0005682 0.0017694655 0)
(1.0002262 0.0011712103 0)
(1.0000374 0.00057447433 0)
(1.0056441 -0.0027715252 0)
(1.0065657 -0.0028784303 0)
(1.0068859 -0.0029702569 0)
(1.007644 -0.0030866874 0)
(1.0081452 -0.0031993936 0)
(1.0088581 -0.0033275111 0)
(1.0094711 -0.0034583008 0)
(1.0101957 -0.0036005388 0)
(1.0108927 -0.0037485478 0)
(1.0116582 -0.0039064253 0)
(1.0124304 -0.0040717207 0)
(1.0132535 -0.004246424 0)
(1.0141009 -0.0044295598 0)
(1.0149932 -0.0046221647 0)
(1.0159197 -0.0048239274 0)
(1.0168906 -0.0050354383 0)
(1.0179023 -0.005256665 0)
(1.0189605 -0.0054879631 0)
(1.0200647 -0.0057293858 0)
(1.0212186 -0.0059811331 0)
(1.0224234 -0.0062432387 0)
(1.0236818 -0.0065157656 0)
(1.0249956 -0.0067986645 0)
(1.0263672 -0.0070918526 0)
(1.0277987 -0.0073951496 0)
(1.0292923 -0.0077083024 0)
(1.0308502 -0.0080309535 0)
(1.0324745 -0.008362639 0)
(1.0341672 -0.0087027699 0)
(1.0359302 -0.0090506147 0)
(1.0377654 -0.0094052852 0)
(1.0396744 -0.0097657102 0)
(1.0416587 -0.010130622 0)
(1.0437195 -0.010498534 0)
(1.0458576 -0.010867715 0)
(1.0480737 -0.011236186 0)
(1.0503679 -0.011601693 0)
(1.0527399 -0.011961711 0)
(1.0551889 -0.012313432 0)
(1.0577136 -0.012653783 0)
(1.060312 -0.012979428 0)
(1.0629812 -0.013286805 0)
(1.065718 -0.013572148 0)
(1.068518 -0.013831539 0)
(1.0713761 -0.014060956 0)
(1.0742865 -0.014256333 0)
(1.0772422 -0.014413623 0)
(1.0802357 -0.01452887 0)
(1.0832583 -0.014598267 0)
(1.0863006 -0.014618224 0)
(1.0893524 -0.014585414 0)
(1.0924026 -0.01449682 0)
(1.0954393 -0.014349755 0)
(1.0984502 -0.014141876 0)
(1.1014222 -0.01387118 0)
(1.1043415 -0.01353598 0)
(1.1071939 -0.013134879 0)
(1.1099648 -0.012666739 0)
(1.1126391 -0.012130647 0)
(1.1152014 -0.011525896 0)
(1.117636 -0.010851981 0)
(1.1199269 -0.010108616 0)
(1.1220581 -0.0092957817 0)
(1.1240135 -0.0084137985 0)
(1.1257772 -0.0074634263 0)
(1.1273333 -0.0064459861 0)
(1.1286664 -0.0053634995 0)
(1.129762 -0.0042188186 0)
(1.130606 -0.0030157745 0)
(1.1311857 -0.0017592599 0)
(1.1314896 -0.00045535359 0)
(1.1315079 0.00088871612 0)
(1.1312325 0.0022644711 0)
(1.1306575 0.0036623826 0)
(1.1297793 0.0050719966 0)
(1.1285969 0.006481952 0)
(1.1271115 0.007880307 0)
(1.1253276 0.0092547011 0)
(1.1232521 0.010592667 0)
(1.1208946 0.011881887 0)
(1.1182676 0.013110471 0)
(1.115386 0.014267241 0)
(1.1122671 0.015341945 0)
(1.1089303 0.01632552 0)
(1.1053969 0.017210218 0)
(1.1016895 0.017989804 0)
(1.0978322 0.018659581 0)
(1.0938497 0.019216515 0)
(1.089767 0.019659141 0)
(1.0856093 0.019987622 0)
(1.0814016 0.020203557 0)
(1.077168 0.020309968 0)
(1.0729318 0.020311051 0)
(1.068715 0.020212107 0)
(1.0645383 0.020019268 0)
(1.0604208 0.019739392 0)
(1.0563798 0.019379803 0)
(1.0524308 0.018948176 0)
(1.0485877 0.018452302 0)
(1.0448623 0.017899988 0)
(1.0412649 0.017298873 0)
(1.037804 0.016656338 0)
(1.0344865 0.015979384 0)
(1.0313179 0.015274569 0)
(1.0283021 0.014547927 0)
(1.0254423 0.013804944 0)
(1.02274 0.013050517 0)
(1.0201964 0.012288952 0)
(1.0178113 0.011523959 0)
(1.0155843 0.010758672 0)
(1.0135142 0.0099956659 0)
(1.0115996 0.0092369931 0)
(1.0098385 0.0084842079 0)
(1.0082292 0.0077384211 0)
(1.0067691 0.0070003138 0)
(1.0054566 0.0062702179 0)
(1.0042886 0.0055480892 0)
(1.0032646 0.0048336493 0)
(1.0023803 0.0041262572 0)
(1.001638 0.0034252046 0)
(1.0010295 0.0027293347 0)
(1.0005647 0.0020377359 0)
(1.0002248 0.0013487217 0)
(1.0000372 0.00066153384 0)
(1.0055707 -0.0031293764 0)
(1.0064819 -0.003250481 0)
(1.0067989 -0.0033545961 0)
(1.0075489 -0.0034865412 0)
(1.0080453 -0.0036142873 0)
(1.0087512 -0.0037594759 0)
(1.0093586 -0.0039076879 0)
(1.0100767 -0.004068856 0)
(1.0107677 -0.004236548 0)
(1.0115267 -0.0044154033 0)
(1.0122927 -0.0046026435 0)
(1.0131093 -0.0048005234 0)
(1.0139502 -0.005007937 0)
(1.0148359 -0.0052260616 0)
(1.0157557 -0.0054545473 0)
(1.0167198 -0.0056940686 0)
(1.0177246 -0.0059445959 0)
(1.0187757 -0.0062065421 0)
(1.0198728 -0.0064799792 0)
(1.0210195 -0.0067651482 0)
(1.022217 -0.0070621039 0)
(1.023468 -0.0073709364 0)
(1.0247744 -0.0076916105 0)
(1.0261388 -0.0080240549 0)
(1.027563 -0.0083680894 0)
(1.0290497 -0.0087234519 0)
(1.0306008 -0.0090897633 0)
(1.0322187 -0.0094665242 0)
(1.0339055 -0.0098530938 0)
(1.0356633 -0.01024867 0)
(1.037494 -0.010652272 0)
(1.0393994 -0.011062712 0)
(1.0413811 -0.011478579 0)
(1.0434406 -0.011898211 0)
(1.0455789 -0.012319671 0)
(1.0477968 -0.012740735 0)
(1.0500947 -0.013158868 0)
(1.0524726 -0.013571224 0)
(1.0549299 -0.013974633 0)
(1.0574655 -0.01436562 0)
(1.0600776 -0.014740406 0)
(1.0627638 -0.015094948 0)
(1.0655209 -0.015424965 0)
(1.0683449 -0.015725995 0)
(1.0712308 -0.015993446 0)
(1.0741731 -0.016222667 0)
(1.0771651 -0.016409015 0)
(1.0801992 -0.016547933 0)
(1.0832669 -0.016635025 0)
(1.086359 -0.016666119 0)
(1.0894651 -0.016637333 0)
(1.0925742 -0.016545117 0)
(1.0956743 -0.016386285 0)
(1.0987527 -0.016158029 0)
(1.101796 -0.015857914 0)
(1.1047901 -0.015483861 0)
(1.1077204 -0.015034119 0)
(1.1105716 -0.014507231 0)
(1.113328 -0.013902005 0)
(1.1159733 -0.013217497 0)
(1.1184911 -0.012453013 0)
(1.1208645 -0.011608134 0)
(1.1230765 -0.010682774 0)
(1.12511 -0.00967727 0)
(1.1269482 -0.0085924925 0)
(1.1285742 -0.0074299902 0)
(1.1299719 -0.0061921429 0)
(1.1311256 -0.0048823085 0)
(1.1320206 -0.003504987 0)
(1.1326435 -0.0020659055 0)
(1.1329823 -0.00057216248 0)
(1.1330265 0.00096784011 0)
(1.1327679 0.0025442552 0)