/*--------------------------------*- C++ -*----------------------------------*\
| =========                 |                                                 |
| \\      /  F ield         | foam-extend: Open Source CFD                    |
|  \\    /   O peration     | Version:     4.1                                |
|   \\  /    A nd           | Web:         http://www.foam-extend.org         |
|    \\/     M anipulation  |                                                 |
\*---------------------------------------------------------------------------*/
FoamFile
{
    version     2.0;
    format      ascii;
    class       volScalarField;
    location    "1.4";
    object      p;
}
// * * * * * * * * * * * * * * * * * * * * * * * * * * * * * * * * * * * * * //

dimensions      [0 2 -2 0 0 0 0];

internalField   nonuniform List<scalar> 
4393
(
-46.418272
-92.981806
-146.7466
-201.53767
-258.52845
-318.02962
-380.42414
-446.02155
-515.04611
-587.60797
-663.67509
-743.04505
-825.31975
-909.88658
-995.91033
-1082.3384
-1167.9203
-1251.2386
-1330.7463
-1404.806
-1471.7265
-1529.7973
-1577.3239
-1612.6683
-1634.3032
-1640.8854
-1631.3605
-1605.1087
-1562.0231
-1502.6039
-1428.0624
-1340.3041
-1241.8233
-1135.5206
-1024.4766
-911.72586
-800.06789
-691.93532
-589.32527
-493.78591
-406.44468
-328.06266
-259.10039
-199.78372
-150.17402
-110.24029
-79.763207
-57.832264
-43.627968
-45.166107
-92.395986
-146.03401
-200.67385
-257.49552
-316.84191
-379.10958
-444.62018
-513.6098
-586.20065
-662.37229
-741.93237
-824.48983
-909.43457
-995.92815
-1082.909
-1169.1129
-1253.106
-1333.3245
-1408.115
-1475.7717
-1534.5696
-1582.7973
-1618.7954
-1641.0075
-1648.0568
-1638.8539
-1612.7037
-1569.4361
-1509.5441
-1434.2447
-1345.4785
-1245.8054
-1138.2117
-1025.8679
-911.88874
-799.13366
-690.07198
-586.71525
-490.60827
-402.8628
-324.21734
-255.10981
-195.75323
-146.20047
-106.36019
-75.961548
-54.862614
-44.264442
-44.361868
-91.499233
-144.77573
-199.05479
-255.52563
-314.56078
-376.57892
-441.92396
-510.85514
-583.51835
-659.916
-739.87537
-823.01874
-908.73986
-996.19233
-1084.2947
-1171.7532
-1257.0996
-1338.7353
-1414.975
-1484.0843
-1544.3101
-1593.9091
-1631.1785
-1654.5012
-1662.4208
-1653.7591
-1627.738
-1584.0956
-1523.2532
-1446.4221
-1355.6119
-1253.5193
-1143.3091
-1028.338
-911.88381
-796.92622
-686.00493
-581.15559
-483.91046
-395.34367
-316.14211
-246.68985
-187.15626
-137.55072
-97.687894
-67.257786
-46.702861
-37.920332
-43.571149
-90.203487
-142.87201
-196.57256
-252.49937
-311.0536
-372.68275
-437.7627
-506.58748
-579.3395
-656.05699
-736.59865
-820.60888
-907.48891
-996.38124
-1086.174
-1175.5279
-1262.9213
-1346.7025
-1425.1387
-1496.4546
-1558.8583
-1610.5622
-1649.8028
-1674.8749
-1684.1995
-1676.4523
-1650.7042
-1606.5449
-1544.2894
-1465.1355
-1371.1991
-1265.3939
-1151.1695
-1032.1787
-911.956
-793.66707
-679.95742
-572.89543
-473.98955
-384.25269
-304.29097
-234.40468
-174.68797
-125.07519
-85.291362
-55.022174
-34.934224
-26.7901
-42.746015
-88.586066
-140.40162
-193.29786
-248.47664
-306.36997
-367.46082
-432.16659
-500.82791
-573.67706
-650.80211
-732.10628
-817.26628
-905.69532
-996.52115
-1088.589
-1180.4947
-1270.6404
-1357.3006
-1438.6791
-1512.9482
-1578.2702
-1632.8044
-1674.7131
-1702.1782
-1713.4589
-1707.0291
-1681.739
-1636.9529
-1572.8177
-1490.4976
-1392.2537
-1281.3116
-1161.5348
-1037.0026
-911.61327
-788.78894
-671.31371
-561.29021
-460.18297
-368.91157
-287.9654
-217.52578
-157.57762
-107.95363
-68.296568
-38.299716
-18.683357
-10.926948
-41.737438
-86.536878
-137.25306
-189.11399
-243.33039
-300.36944
-360.75689
-424.96191
-493.38476
-566.32287
-643.93064
-726.17223
-812.77015
-903.15677
-996.44214
-1091.4141
-1186.5793
-1280.2368
-1370.5625
-1455.6797
-1533.7003
-1602.7369
-1660.8935
-1706.2492
-1736.8501
-1750.7506
-1746.1565
-1721.6151
-1676.169
-1609.7098
-1523.3302
-1419.4773
-1301.8088
-1174.7658
-1043.0178
-910.95462
-782.33316
-660.10544
-546.40002
-442.60517
-349.50305
-267.41959
-196.37222
-136.19505
-86.586683
-47.090408
-17.368659
1.8953914
9.4342137
-40.595507
-84.127162
-133.49117
-184.07007
-237.08792
-293.05301
-352.54161
-416.08548
-484.15859
-557.14071
-635.27211
-718.59807
-806.90495
-899.65523
-995.93944
-1094.4704
-1193.635
-1291.594
-1386.3953
-1476.0639
-1558.6463
-1632.2098
-1694.8102
-1744.4435
-1779.0049
-1796.3012
-1794.1937
-1770.825
-1724.7864
-1655.5861
-1564.1762
-1453.2321
-1326.9988
-1190.7119
-1049.8413
-909.42592
-773.64345
-645.63658
-527.53709
-420.60867
-325.43849
-242.13253
-170.49413
-110.16492
-60.679781
-21.460651
7.9041569
26.823723
34.190987
-39.186005
-81.205542
-128.95643
-178.00159
-229.57702
-284.23732
-342.61689
-405.32132
-472.91371
-545.87571
-624.55661
-709.10806
-799.40446
-894.95484
-994.83035
-1097.6467
-1201.6305
-1304.7572
-1404.9088
-1499.9923
-1587.9889
-1666.9349
-1734.8567
-1789.6812
-1829.1468
-1850.7725
-1851.9888
-1830.4104
-1784.0054
-1711.7092
-1614.2142
-1494.4632
-1357.4974
-1209.6431
-1057.4494
-906.79879
-762.3831
-627.5442
-504.37047
-393.92799
-296.53028
-211.99144
-139.84077
-79.481314
-30.253129
8.5657116
37.490212
56.043848
63.248604
-37.653446
-77.930929
-123.79686
-171.03284
-220.89022
-273.97551
-330.98875
-392.62109
-459.54164
-532.35652
-611.55193
-697.41822
-789.95103
-888.73175
-992.81686
-1100.6982
-1210.3873
-1319.6102
-1426.0328
-1527.4229
-1621.7033
-1706.9071
-1781.0686
-1842.077
-1887.523
-1914.605
-1920.2264
-1901.3233
-1855.012
-1779.3761
-1674.6455
-1544.058
-1393.7393
-1231.5242
-1065.418
-902.3912
-747.74701
-605.01077
-476.14647
-361.91655
-262.25652
-176.59936
-104.13038
-43.963155
4.7914007
43.023727
71.374836
89.494162
96.516975
-35.748812
-74.00482
-117.69206
-162.83152
-210.68184
-261.90423
-317.27074
-377.56961
-443.5941
-516.10036
-595.74476
-682.99664
-778.01786
-880.50101
-989.49992
-1103.3489
-1219.7671
-1336.1397
-1449.8471
-1558.4921
-1659.9569
-1752.3186
-1833.6804
-1901.9527
-1954.6112
-1988.5129
-1999.9353
-1984.9553
-1939.5403
-1860.5126
-1747.2973
-1603.4218
-1436.5075
-1256.5009
-1073.3829
-895.51879
-728.91353
-577.21779
-442.13786
-323.98093
-222.16724
-135.63948
-63.159501
-3.498014
44.496601
81.904432
109.50754
127.08895
133.89266
-33.798632
-69.806233
-111.02788
-153.76791
-199.2948
-248.32731
-301.71453
-360.3525
-425.17738
-497.12408
-577.05822
-665.67857
-763.37413
-870.00854
-984.66016
-1105.4661
-1229.7462
-1354.4137
-1476.4673
-1593.3172
-1702.8402
-1803.2313
-1892.7562
-1969.4401
-2030.7076
-2073.0755
-2092.1038
-2082.7929
-2039.5857
-1957.4487
-1834.4242
-1674.2474
-1486.6343
-1284.5443
-1080.6575
-885.11607
-704.69064
-543.02745
-401.36504
-279.3422
-175.68585
-88.716538
-16.683803
42.039515
88.898509
125.17883
151.81132
168.71723
175.24999
-31.322727
-64.748347
-103.16396
-143.16709
-186.01792
-232.49045
-283.51345
-340.10044
-403.35025
-474.4091
-554.39859
-644.30965
-744.84094
-856.1185
-977.29909
-1106.2777
-1239.8196
-1374.1694
-1505.8014
-1631.8965
-1750.3826
-1859.6801
-1958.3491
-2044.6713
-2116.1356
-2168.9573
-2197.9199
-2196.6908
-2157.7326
-2073.3255
-1939.1483
-1758.8896
-1545.2551
-1315.6017
-1086.3277
-869.81854
-673.60684
-501.08694
-352.70786
-227.14595
-122.20856
-35.439731
35.518335
92.742999
137.99743
172.78087
198.17308
214.23507
220.4326
-28.93535
-59.575009
-94.898061
-131.84686
-171.67524
-215.21021
-263.45971
-317.56071
-378.79206
-448.54482
-528.24824
-619.25848
-722.68943
-839.06426
-967.71674
-1106.2532
-1250.6595
-1396.2153
-1538.6635
-1674.9219
-1803.0778
-1921.9453
-2030.5694
-2127.6998
-2211.08
-2276.7105
-2318.5366
-2328.6705
-2297.0937
-2212.1922
-2065.652
-1860.4853
-1613.7494
-1349.4069
-1089.0112
-847.73842
-633.73472
-449.70514
-294.8273
-166.41697
-61.081444
24.585984
93.64581
148.66934
191.75107
224.60063
248.4374
263.45906
269.24624
-25.834183
-53.293409
-85.133317
-118.63357
-155.00884
-195.12763
-240.07113
-291.10191
-349.69467
-417.5224
-496.38347
-588.08837
-694.30526
-816.16067
-953.3534
-1103.1787
-1260.5219
-1419.2472
-1574.0533
-1721.5574
-1860.1745
-1989.3362
-2108.7969
-2218.0399
-2315.3461
-2396.67
-2455.097
-2481.02
-2461.4976
-2379.419
-2219.7582
-1983.4125
-1693.8848
-1385.41
-1086.7045
-816.33258
-582.61614
-386.83335
-226.18363
-96.095823
8.3586517
91.722717
157.84472
209.81614
250.05839
280.47308
302.39855
316.15963
321.45242
-22.988271
-47.105606
-75.194238
-104.93106
-137.49258
-173.78001
-214.9391
-262.35452
-317.70632
-382.98373
-460.41856
-552.37003
-661.22081
-788.98789
-936.05531
-1099.4241
-1272.3862
-1446.6589
-1615.3976
-1774.8821
-1924.1581
-2063.6285
-2194.0746
-2316.1133
-2429.0547
-2529.1507
-2608.6685
-2656.1733
-2655.5154
-2582.0935
-2409.6775
-2133.891
-1787.8783
-1422.5328
-1076.4503
-772.13839
-517.10646
-310.00233
-145.03278
-15.064564
86.748944
166.26565
228.18001
276.10003
312.74393
340.16726
359.79285
372.05523
376.76307
-19.234002
-39.566126
-63.483974
-89.028666
-117.28552
-149.16097
-185.84181
-228.81607
-279.96337
-341.61494
-416.50489
-507.64531
-618.31824
-751.84282
-909.8698
-1089.2874
-1281.1051
-1473.7726
-1658.1739
-1830.2917
-1990.3739
-2140.3276
-2282.2798
-2418.3712
-2549.5398
-2672.7615
-2779.4822
-2856.4147
-2884.4362
-2829.5603
-2647.2461
-2321.0871
-1898.5226
-1458.8317
-1053.8857
-710.45799
-433.22531
-216.29695
-49.466921
77.789674
174.63822
248.39177
304.59742
347.33022
379.54036
403.37514
420.29172
430.80759
434.83664
-15.909559
-32.367243
-51.889443
-72.946149
-96.528095
-123.52998
-155.16114
-192.99621
-239.10679
-296.19283
-367.57393
-457.03002
-568.92169
-708.39585
-879.34013
-1079.0097
-1295.059
-1510.7436
-1713.4127
-1898.7625
-2069.1471
-2228.6986
-2381.1216
-2530.4773
-2680.3856
-2829.6038
-2969.1766
-3084.338
-3154.0988
-3134.011
-2949.96
-2559.1607
-2029.2977
-1490.9055
-1012.5345
-624.92458
-325.99156
-102.36335
62.502606
183.47663
272.40183
338.09605
386.87973
423.18041
450.07142
469.7019
483.49635
492.01881
495.27609
-11.483932
-23.591261
-38.294694
-54.438665
-72.848135
-94.363239
-120.16999
-151.87516
-191.6807
-242.61945
-308.63684
-394.36254
-505.33303
-649.10799
-833.41832
-1057.118
-1303.0125
-1546.0298
-1768.1208
-1964.9808
-2142.9742
-2309.8847
-2471.3079
-2633.6117
-2804.7354
-2986.77
-3170.3479
-3338.4982
-3469.9066
-3511.259
-3344.1366
-2870.7983
-2184.1432
-1512.87
-942.74508
-506.96171
-189.29465
35.498642
192.78356
302.7506
380.12573
435.11298
474.59769
503.16012
523.83641
538.65832
548.93481
555.23093
557.62925
-7.5459534
-15.399263
-25.214367
-36.272638
-49.208315
-64.768123
-84.068995
-108.69892
-140.93296
-184.11084
-242.90329
-322.98243
-431.14906
-577.96554
-777.58715
-1033.2897
-1320.8801
-1601.2874
-1847.8978
-2056.6837
-2241.3071
-2415.2341
-2585.4241
-2759.5249
-2951.4774
-3168.7937
-3401.8413
-3630.6652
-3839.934
-3979.4505
-3868.0219
-3294.1302
-2367.8698
-1515.4534
-830.29332
-345.15968
-15.872001
201.09515
342.92643
435.89036
497.45823
538.82667
567.05991
586.58917
600.19885
609.65735
616.06262
619.92847
621.39206
-2.494061
-5.6554203
-10.105317
-15.573857
-22.445032
-31.342442
-43.273928
-59.749462
-83.013088
-116.56759
-165.75617
-237.36422
-339.18032
-484.64157
-697.71892
-992.03939
-1333.7672
-1659.6114
-1930.1029
-2142.1465
-2323.1198
-2495.6057
-2666.7929
-2843.1721
-3048.9947
-3303.1738
-3599.0875
-3914.1975
-4241.407
-4553.2175
-4583.0234
-3903.4783
-2589.3112
-1483.2202
-653.43089
-124.34831
202.50738
397.84717
513.6835
582.39888
623.43327
648.17735
663.26855
672.58001
678.3824
682.0164
684.26798
685.54482
686.01537
2.9587852
3.9729785
4.5462404
4.3727381
3.3872851
1.1546145
-3.1202336
-10.724121
-23.652402
-45.261233
-81.374411
-140.13087
-230.27334
-367.38832
-589.8776
-934.91041
-1357.8537
-1750.6933
-2054.89
-2266.925
-2439.8806
-2611.5589
-2788.5987
-2969.4137
-3193.9261
-3500.0126
-3883.2972
-4313.0921
-4763.9032
-5291.5201
-5573.8102
-4825.3577
-2837.3019
-1376.2418
-376.92572
174.9085
474.14917
627.83446
704.34012
740.62133
756.28039
761.57924
761.89124
760.03434
757.47742
754.96735
752.88234
751.47262
750.9151
8.28511
13.265317
19.323516
25.157953
31.020623
36.677836
41.595076
44.763045
44.510383
37.799813
18.45212
-23.53914
-98.146697
-220.10635
-443.9419
-853.46414
-1397.282
-1876.4148
-2210.743
-2392.8795
-2530.4285
-2685.6835
-2862.7827
-3027.815
-3238.6401
-3573.5316
-4023.7138
-4561.746
-5089.7117
-5960.3609
-6823.7181
-6299.5145
-3074.0128
-1170.9514
36.506782
572.65499
805.01211
890.1737
911.79916
907.31729
893.25931
876.87542
861.26383
847.66127
836.46183
827.67554
821.19686
817.07828
815.48596
17.84114
25.859706
36.761744
47.719748
59.416628
71.801361
84.631518
97.25846
108.52229
116.23579
114.96653
93.71543
41.620087
-49.538252
-244.6753
-715.1512
-1441.88
-2033.61
-2413.373
-2545.7123
-2643.0182
-2787.1991
-2982.146
-3113.6798
-3276.6774
-3677.6988
-4224.3714
-4961.7033
-5679.3055
-7242.8539
-8882.0925
-9068.3527
-3578.1297
-1038.2193
635.19331
1099.0922
1197.351
1178.9795
1129.5275
1077.2886
1030.5876
991.36669
959.44129
934.02445
914.23866
899.2687
888.48488
881.72036
879.11839
22.15058
30.895251
46.136756
62.23824
80.171555
100.10828
122.29212
146.74784
173.26291
201.23849
227.41511
240.71466
225.96332
180.34566
45.408811
-483.28424
-1555.1587
-2311.4993
-2773.6625
-2771.009
-2749.6657
-2813.1451
-3022.6409
-3099.9057
-3207.1637
-3763.2634
-4232.9946
-5185.222
-6470.8432
-7863.4477
-9589.1442
-12103.54
-4823.2657
-72.514855
1722.8308
1811.9828
1641.1423
1478.7602
1346.2297
1243.2035
1163.5573
1101.9566
1054.3115
1017.6218
989.69047
968.87451
954.02891
944.77071
941.21743
36.937088
46.533255
66.460125
87.314035
110.74809
137.07743
166.9066
200.72085
238.86212
281.6627
327.57468
365.35507
371.82667
347.26638
293.74176
-191.1094
-1818.0783
-2617.1351
-3115.4964
-2772.7578
-2626.8084
-2732.543
-3131.7558
-3271.1275
-3302.4339
0
0
0
0
0
0
0
0
6202.3753
3402.4563
2582.4955
2068.2386
1755.8595
1545.1253
1396.0885
1287.0015
1205.4551
1143.7778
1096.9952
1061.747
1035.6642
1017.1505
1005.6369
1001.2225
35.366746
42.182756
64.028434
87.075105
113.20493
142.73974
176.5793
215.67661
261.07481
314.42463
377.59026
445.98944
502.79975
560.82594
710.68094
552.80445
-1996.7854
-2776.9626
-3646.9057
-2968.6376
-3044.3363
-3012.3246
0
0
0
0
0
0
0
0
0
0
10129.575
6286.2538
4123.9549
3000.3244
2361.313
1969.1781
1709.0493
1527.5632
1396.2859
1299.0428
1225.9924
1170.8554
1129.457
1098.8967
1077.2397
1063.784
1058.6266
44.2638
54.950279
80.950081
106.97763
136.15444
169.03607
206.87575
251.10422
303.50619
367.08046
447.11668
546.08864
653.2889
754.39134
842.1959
568.4733
-3108.2259
-3581.599
-3205.2811
0
0
0
0
0
0
0
0
0
0
0
1780.6719
3364.5944
5756.1165
5236.0897
3961.3824
3100.1685
2507.1431
2107.7402
1830.6544
1632.9921
1488.4298
1380.7309
1299.5698
1238.1936
1192.0514
1157.9577
1133.7808
1118.7536
1112.9926
22.191628
42.166346
66.371037
91.284957
118.75244
149.54733
184.74331
225.50539
273.13251
329.82987
399.49999
478.02734
537.53031
536.24781
558.10722
702.38722
0
0
0
0
0
0
-1132.0675
-1103.5233
-1011.3056
-917.55613
-790.08497
-495.29881
-94.947191
697.08394
2026.4399
3361.9107
4750.9874
4489.8577
3714.8022
3058.6867
2552.6655
2182.2204
1911.4457
1711.6615
1562.3547
1449.5321
1363.6925
1298.345
1248.9834
1212.3854
1186.3705
1170.1779
1163.9662
19.954027
50.022204
74.970534
100.54388
127.96167
158.05684
191.47973
228.66498
269.57203
313.41802
357.89978
396.56235
406.14921
338.09204
142.01802
-338.13514
-1284.4168
-1227.4741
-1147.1011
-1100.478
-1051.0814
-1021.613
-1010.364
-803.28916
-838.68208
-583.1816
-362.34494
-204.61725
259.08291
904.85467
1960.2927
3049.3234
3956.5655
3851.8967
3404.2981
2933.5972
2528.4617
2206.0157
1956.7041
1765.4225
1618.5288
1505.3809
1418.1055
1351.0013
1299.9424
1261.8834
1234.7285
1217.7885
1211.284
20.66334
46.48543
72.120294
97.971823
125.28643
154.81519
187.13917
222.62499
261.25913
302.13415
342.03506
373.73568
384.81883
353.15845
205.21575
-227.92216
-792.30497
-920.95878
-962.54788
-966.15075
-887.80288
-842.32029
-818.5494
-691.80002
-620.9436
-417.54024
-179.14323
77.742993
510.88702
1096.4663
1896.1869
2721.5883
3334.8856
3356.8268
3105.6568
2777.1432
2463.3575
2193.8101
1973.5975
1797.6786
1658.5138
1548.9432
1463.0388
1396.1805
1344.8435
1306.3178
1278.698
1261.4186
1254.7757
14.996595
36.230615
58.797022
81.291062
104.29087
128.03552
152.5305
177.41596
201.78999
223.68918
238.89692
240.18118
218.24902
159.21449
15.075112
-283.91203
-606.90315
-732.46451
-784.51836
-794.28636
-753.12521
-703.47413
-642.2349
-537.76204
-423.88629
-238.24305
-11.498492
269.8839
668.60852
1187.7223
1823.2424
2450.8965
2889.5205
2967.0587
2834.9722
2613.0012
2376.1815
2157.6763
1969.1885
1812.3856
1684.4723
1581.3762
1499.091
1434.1697
1383.8001
1345.7039
1318.2395
1300.9995
1294.3627
23.838368
46.444905
70.189899
93.656186
117.54426
141.96102
166.72598
191.21047
214.09576
232.81515
242.68437
236.67
205.98879
135.39762
-7.2593282
-236.55098
-460.15467
-579.8057
-635.38311
-644.54082
-615.83458
-568.29268
-497.28098
-394.4599
-264.34901
-82.932799
139.1611
416.11354
777.02668
1223.7721
1735.5103
2221.7455
2557.2301
2658.5602
2599.6227
2454.8463
2280.1779
2107.1229
1949.7497
1813.469
1698.7943
1604.1109
1527.1063
1465.4576
1417.0851
1380.1847
1353.418
1336.5534
1330.0513
12.024202
29.927714
50.032212
70.035776
90.041056
109.92728
129.38619
147.74694
163.76079
175.18276
178.31573
168.06162
137.6386
74.654384
-40.055083
-203.50762
-358.80713
-456.74743
-506.07895
-514.23355
-488.93004
-440.00556
-365.68919
-262.60079
-128.53846
46.964269
261.85456
525.19104
849.67438
1232.3375
1648.6363
2032.8058
2301.9489
2411.5833
2398.1277
2308.5356
2183.1596
2048.9511
1920.3869
1804.4655
1703.8311
1618.6751
1548.0642
1490.6662
1445.0904
1410.0051
1384.3869
1368.1815
1361.9233
21.407261
40.632434
60.854112
80.367752
99.453619
117.84348
135.02367
150.10174
161.62899
167.32368
163.94546
147.5486
113.08114
52.273697
-43.556874
-165.61525
-279.0033
-356.12471
-395.68996
-400.45667
-375.18741
-324.72556
-248.67402
-145.28264
-11.774139
156.7925
361.05919
606.02202
895.95184
1224.416
1567.8665
1878.5077
2101.9971
2212.1876
2227.1467
2176.7607
2089.8437
1988.0678
1885.0999
1788.3899
1701.7413
1626.5698
1562.9909
1510.491
1468.2867
1435.486
1411.37
1396.0509
1390.125
11.864137
27.968656
45.959762
63.611641
80.820543
97.231956
112.31669
125.22207
134.61715
138.50968
134.22489
118.55913
87.50235
35.679738
-40.002183
-130.43167
-213.52473
-271.83066
-300.849
-300.62647
-273.46201
-221.63386
-145.0319
-42.511086
87.994256
248.90866
441.01378
666.3005
924.57421
1207.7344
1495.177
1752.1624
1942.6282
2049.764
2082.4754
2059.9382
2002.6783
1927.6336
1846.8495
1767.6916
1694.4094
1629.1884
1572.8939
1525.6525
1487.1886
1456.9988
1434.6432
1420.3807
1414.8539
17.140355
33.237321
50.220012
66.364787
81.714339
95.886742
108.32927
118.22215
124.38328
125.18564
118.61229
102.36249
73.691106
29.625508
-29.988791
-97.382079
-158.13642
-200.46208
-219.38488
-213.53439
-183.55773
-130.34317
-53.764289
46.96035
173.10557
325.77665
505.17499
711.2464
941.41834
1187.1582
1431.2314
1648.3114
1813.9322
1916.494
1960.2187
1957.498
1922.9612
1869.6953
1807.8367
1744.3105
1683.4267
1627.7752
1578.7191
1536.8593
1502.3258
1474.9439
1454.5175
1441.4278
1436.3464
11.965872
26.365715
42.104197
57.21661
71.535765
84.633754
95.9555
104.7278
109.89844
110.11349
103.80204
89.276701
64.758343
28.907402
-17.019564
-66.703589
-110.25
-139.22881
-148.99449
-137.5513
-104.54782
-50.079588
26.067958
124.39885
245.5459
389.7855
556.64734
744.78767
950.46873
1165.4734
1375.7035
1562.5376
1708.9273
1806.4499
1856.8891
1868.2992
1851.1312
1815.4435
1769.5686
1719.7249
1670.096
1623.4069
1581.325
1544.7831
1514.221
1489.7315
1471.3239
1459.4742
1454.8659
13.672517
27.359579
41.871669
55.550764
68.31573
79.771184
89.415436
96.58113
100.40717
99.848966
93.763602
81.00722
60.559607
32.098526
-2.5893169
-38.476516
-68.501636
-86.407627
-88.11
-71.431232
-35.489584
20.054062
95.479384
191.0738
307.00131
442.97355
597.96303
769.86575
954.48577
1144.3019
1327.897
1491.4046
1622.6062
1715.1567
1769.5578
1791.0638
1787.1665
1765.5773
1733.0733
1695.0581
1655.4635
1616.9945
1581.4711
1550.0422
1523.3734
1501.7675
1485.4001
1474.8152
1470.6913
11.353744
24.027835
37.645123
50.500567
62.432375
73.04678
81.88003
88.352005
91.760681
91.312645
86.206102
75.732769
59.446072
37.651125
12.276104
-12.652327
-31.896823
-40.645098
-35.405049
-14.037836
24.575455
80.98836
155.49848
248.21857
358.9785
487.10022
631.16261
788.66206
955.34902
1124.5375
1286.9999
1432.2482
1551.2804
1639.181
1695.7798
1724.5054
1730.7501
1720.4243
1699.0134
1671.127
1640.3516
1609.2937
1579.8157
1553.1933
1530.248
1511.4414
1497.0799
1487.7493
1484.1078
11.407411
23.295998
35.923474
47.754345
58.666185
68.305014
76.268441
82.0767
85.182545
85.010366
81.033263
72.876371
60.489143
44.522122
26.847315
10.721199
0.16250374
-1.0282742
10.105407
35.553924
76.498764
133.57349
207.05505
296.91483
402.74673
523.60915
657.83542
802.75911
954.29717
1106.6006
1252.1845
1382.9755
1492.1646
1575.8548
1633.5315
1667.4214
1681.4224
1680.0721
1667.8004
1648.5064
1625.3923
1600.9185
1576.9179
1554.7271
1535.2679
1519.1188
1506.6846
1498.5704
1495.3986
10.343696
21.515213
33.418475
44.560533
54.805655
63.829407
71.285705
76.786988
79.92282
80.301626
77.62062
71.76271
62.951124
52.019572
40.711796
31.704873
28.182106
33.206459
49.28129
78.20439
121.12213
178.6679
251.0726
338.19327
439.45901
553.75816
679.29318
813.38254
952.21543
1090.7115
1222.7514
1342.0032
1443.1851
1523.1435
1581.1972
1618.7739
1638.7038
1644.483
1639.6905
1627.6168
1611.0829
1592.3713
1573.2516
1555.0722
1538.8131
1525.1351
1514.5166
1507.5611
1504.8394
9.9406052
20.476361
31.670302
42.130004
51.740048
60.213276
67.259675
72.575131
75.865224
76.886696
75.510402
71.807494
66.178338
59.53827
53.481568
50.250072
52.431855
62.544071
82.715244
114.54297
159.08954
216.94398
288.27812
372.85685
469.99608
578.48221
696.46774
821.34179
949.60216
1076.8386
1197.9927
1307.9983
1402.6585
1479.37
1537.3816
1577.5853
1602.0459
1613.4717
1614.7642
1608.7018
1597.7598
1584.0284
1569.1943
1554.5867
1541.2124
1529.7898
1520.8527
1514.9873
1512.6935
9.3564872
19.364684
30.008314
39.956319
49.101849
57.191824
63.988235
69.261453
72.815913
74.529256
74.407981
72.6612
69.801721
66.769784
65.018115
66.459661
73.249579
87.495596
111.02122
145.23578
191.09835
249.13287
319.44852
401.7366
495.2371
598.68212
710.22649
827.37313
946.92379
1065.032
1177.4572
1280.0605
1369.4253
1443.3601
1501.0942
1543.1583
1571.0667
1586.9346
1593.1294
1592.007
1585.7418
1576.2384
1565.0921
1553.596
1542.7636
1533.3524
1525.9436
1521.0961
1519.2105
8.9349247
18.485937
28.650073
38.160456
46.922811
54.71564
61.346506
66.648497
70.506274
72.892236
73.915172
73.881761
73.372959
73.323729
75.06218
80.252132
90.729993
108.29454
134.52471
170.66343
217.56521
275.68322
345.06669
425.34908
515.72094
614.89176
721.0487
831.82333
944.2938
1055.0746
1160.5506
1257.2641
1342.3651
1413.9708
1471.3165
1514.6885
1545.2058
1564.5397
1574.6428
1577.5291
1575.1201
1569.1527
1561.1298
1552.3027
1543.6752
1536.0298
1529.9956
1526.1075
1524.6262
8.5490896
17.743437
27.539671
36.720596
45.201115
52.788078
59.328733
64.708643
68.877054
71.879923
73.902206
75.318337
76.748775
79.10972
83.625667
91.773035
105.1533
125.33316
153.6993
191.35469
239.05856
297.19699
365.76613
444.35498
532.12327
627.77716
729.54973
835.19752
942.03529
1047.0436
1147.0792
1239.1827
1320.9148
1390.6226
1447.5583
1491.8427
1524.3119
1546.3086
1559.4681
1565.5346
1566.2222
1563.1245
1557.6592
1551.0353
1544.239
1538.0665
1533.213
1530.228
1529.1732
8.1797964
17.102079
26.616371
35.549364
43.821664
51.264832
57.758895
63.231092
67.680338
71.207547
74.052619
76.63584
79.599481
83.837477
90.492441
100.90241
116.49797
138.67454
168.67215
207.48188
255.78275
313.90302
381.79483
459.01402
544.70184
637.57111
735.90261
837.56227
940.05603
1040.6446
1136.5326
1225.1189
1304.2584
1372.466
1429.014
1473.9122
1507.7983
1531.7774
1547.2491
1555.752
1558.8387
1557.9876
1554.5459
1549.6889
1544.3861
1539.4368
1535.6169
1533.5683
1533.0777
7.8074672
16.603257
25.94027
34.71246
42.84696
50.199302
56.676529
62.237948
66.919215
70.860746
74.340525
77.808648
81.918309
87.542412
95.761719
107.81608
125.01743
148.64074
179.8202
219.46343
268.18763
326.2758
393.64654
469.8323
553.9641
644.76496
740.55747
839.29442
938.62568
1036.0148
1128.9111
1214.9613
1292.223
1359.3287
1415.5684
1460.8801
1495.7669
1521.169
1538.3193
1548.6078
1553.4682
1554.292
1552.3723
1548.859
1544.7054
1540.6822
1537.6141
1536.3937
1536.6788
7.3041623
16.16769
25.424168
34.111379
42.165174
49.465538
55.940296
61.570929
66.417194
70.644552
74.554315
78.613657
83.480006
90.010532
99.246093
112.36657
130.61033
155.17371
187.12062
227.30322
276.29693
334.35386
401.37014
476.8633
559.95904
649.3893
743.5068
840.3239
937.58592
1032.8878
1123.8346
1208.2293
1284.2563
1350.6234
1406.6335
1452.1815
1487.6871
1513.9861
1532.2049
1543.6367
1549.6372
1551.5383
1550.5927
1547.9361
1544.5156
1541.0471
1538.3507
1537.92
1540.1131
6.0814621
15.835473
25.143167
33.822791
41.845899
49.124508
55.600664
61.268044
66.198711
70.570655
74.696934
79.053474
84.300572
91.290228
101.04808
114.71787
133.49028
158.52479
190.85537
231.30731
280.43513
338.47529
405.31242
480.45651
563.0307
651.77178
745.04818
840.90281
937.12934
1031.3885
1121.3625
1204.9313
1280.3424
1346.3407
1402.2365
1447.9044
1483.7239
1510.4798
1529.2465
1541.2704
1547.8635
1550.3272
1549.9022
1547.7275
1544.7604
1541.6761
1539.2603
1539.7833
1545.6255
-2227.7587
-2483.6254
-2699.5395
-2881.4842
-3023.9679
-3106.215
-3108.2259
-3029.2216
-2857.2789
-2664.0036
-3205.3891
-3205.2811
-3198.4356
-3187.4487
-3173.3344
-3160.5816
-3148.7458
-3158.2125
-3158.8147
-3131.4103
-3183.0314
-3181.907
-3167.1526
-3150.1894
-3133.2743
-3124.2835
-3105.9909
-3113.2079
-3100.0763
-3046.5502
-3137.842
-3135.1799
-3126.5768
-3117.881
-3109.0875
-3112.0997
-3101.0041
-3098.9715
-3085.5702
-3048.7083
-3078.1499
-3076.7153
-3072.1698
-3066.2524
-3057.7469
-3058.147
-3057.8126
-3057.1425
-3055.664
-3059.4008
-3030.1692
-3029.3769
-3023.616
-3013.4549
-2998.1999
-2968.6376
-2990.8016
-3003.1024
-3009.7481
-3023.0969
-3013.4129
-3015.107
-3018.3588
-3021.7459
-3032.6626
-3008.5367
-3008.2147
-3004.5875
-2989.6693
-2966.6813
-3027.9232
-3029.554
-3035.6399
-3044.3363
-3068.3863
-3076.1028
-3056.7216
-3030.7041
-3000.8673
-2965.4633
-3848.4527
-3860.7651
-3831.7263
-3787.3167
-3749.7568
-3717.6917
-3696.1884
-3682.4622
-3673.5223
-3675.2644
-2986.9816
-2985.7894
-2977.9085
-2960.9534
-2921.5852
-2946.9461
-2958.9509
-2961.1436
-2950.6578
-2923.5509
-3009.2482
-3012.3246
-3018.6879
-3037.9313
-3013.9712
-3005.2507
-3001.2991
-2993.8835
-2979.8934
-2964.7517
-3048.5067
-3050.9593
-3056.1372
-3080.7264
-3093.4961
-3069.4239
-3042.6919
-3022.4074
-3003.5385
-2987.0528
-2999.6596
-2995.8309
-2976.942
-2951.6611
-2974.598
-2992.079
-3003.3181
-3010.738
-3013.0011
-3020.0185
-3033.2652
-3035.7256
-3034.862
-2997.9709
-3007.1042
-3020.717
-3031.5172
-3038.7503
-3041.7997
-3051.3644
-3156.8901
-3164.6841
-3188.9174
-3187.4466
-3159.5469
-3131.7558
-3111.0624
-3095.6695
-3080.2521
-3063.0193
-3141.9779
-3137.1432
-3129.6596
-3149.8307
-3150.4246
-3144.6318
-3138.4093
-3132.9743
-3126.9763
-3128.8786
-3162.7555
-3162.0348
-3137.7504
-3147.9045
-3159.3502
-3167.4862
-3171.9064
-3173.7101
-3173.0007
-3177.7021
-3277.1162
-3289.5195
-3285.4687
-3271.1275
-3255.8057
-3243.7649
-3235.0333
-3229.2397
-3222.4244
-3213.864
-3282.4888
-3286.5603
-3294.0149
-3285.937
-3276.2939
-3270.7939
-3270.5588
-3274.9999
-3280.0406
-3292.343
-3186.3248
-3172.2148
-3189.5512
-3215.4281
-3244.9015
-3273.5984
-3300.5723
-3325.1452
-3345.298
-3370.2632
-3326.053
-3302.4339
-3312.0414
-3332.349
-3359.1124
-3384.3603
-3406.8258
-3425.2571
-3437.7755
-3453.4904
-3701.6748
-3692.6554
-3661.9567
-3627.8856
-3602.8067
-3583.3215
-3571.2314
-3564.0735
-3557.9585
-3555.0924
-3016.6787
-3015.1531
-3009.7381
-2998.1198
-2992.6338
-2999.8927
-2999.5298
-2994.1792
-2984.947
-2983.9233
-3540.5385
-3549.1353
-3563.5695
-3610.8534
-3667.0289
-3718.8605
-3739.9427
-3721.8037
-3638.103
-3466.2534
-3268.7587
-3268.9935
-3271.943
-3276.8111
-3277.9218
-3277.0257
-3275.0644
-3269.9198
-3265.7621
-3219.285
-3179.5263
-3227.5525
-3289.6669
-3394.37
-3505.6954
-3592.521
-3635.0767
-3595.2074
-3447.0641
-3214.6352
-3480.2771
-3490.3207
-3511.2514
-3547.9506
-3581.599
-3610.2585
-3618.8296
-3618.3248
-3582.5468
-3470.1576
-3367.3455
-3371.7354
-3385.915
-3409.8732
-3430.8341
-3448.49
-3456.6156
-3446.1967
-3433.579
-3381.8275
11318.722
10715.547
10129.575
9489.9393
8832.8461
8179.5391
7545.1804
6936.7838
6347.3441
5770.3042
8301.8485
8224.5316
8101.2596
7839.6075
7501.7192
7111.2849
6689.6066
6254.5662
5816.3991
5360.0011
-3709.5007
-3727.9363
-3745.344
-3751.3104
-3759.9991
-3763.2634
-3768.0589
-3771.4947
-3772.8199
-3776.3115
-3705.8519
-3709.7031
-3745.0494
-3776.2801
-3815.3391
-3842.5108
-3866.4371
-3882.4672
-3891.1147
-3895.3025
-3946.5154
-3939.28
-3955.5089
-3963.0859
-3991.4658
-4009.8456
-4029.6725
-4042.6488
-4048.0681
-4043.6182
-4222.4231
-4212.0682
-4226.3371
-4216.9235
-4232.9946
-4234.8765
-4241.3992
-4242.4478
-4238.8757
-4234.5147
-4544.8767
-4526.737
-4538.4821
-4511.447
-4515.2328
-4497.3859
-4484.9277
-4464.9007
-4437.2332
-4404.8726
-4901.1054
-4873.8833
-4883.4903
-4837.0691
-4828.6371
-4790.1481
-4757.3172
-4713.8952
-4659.2256
-4599.0146
-5281.8495
-5243.3992
-5252.0393
-5185.222
-5165.6718
-5107.5831
-5056.1877
-4992.7187
-4916.4634
-4831.1514
-5682.8601
-5630.785
-5639.6098
-5550.5886
-5519.7718
-5441.5437
-5370.8774
-5288.4426
-5198.4686
-5115.9182
-6105.044
-6035.9215
-6045.7705
-5931.7762
-5888.3056
-5787.8968
-5693.5293
-5583.5008
-5458.1876
-5322.5871
-6548.5003
-6458.4125
-6470.8432
-6329.1983
-6271.9441
-6149.0593
-6030.8963
-5896.7842
-5747.1781
-5585.4188
-7019.3413
-6902.2103
-6917.9744
-6744.4916
-6670.3454
-6522.7545
-6376.8532
-6214.6283
-6036.1368
-5850.2662
-7516.4402
-7366.2088
-7388.3263
-7179.8869
-7085.7238
-6911.6634
-6733.8684
-6537.786
-6319.1648
-6081.8847
-8058.1147
-7863.4477