/*--------------------------------*- C++ -*----------------------------------*\
| =========                 |                                                 |
| \\      /  F ield         | foam-extend: Open Source CFD                    |
|  \\    /   O peration     | Version:     4.1                                |
|   \\  /    A nd           | Web:         http://www.foam-extend.org         |
|    \\/     M anipulation  |                                                 |
\*---------------------------------------------------------------------------*/
FoamFile
{
    version     2.0;
    format      ascii;
    class       volScalarField;
    location    "1.4";
    object      p;
}
// * * * * * * * * * * * * * * * * * * * * * * * * * * * * * * * * * * * * * //

dimensions      [0 2 -2 0 0 0 0];

internalField   nonuniform List<scalar> 
4393
(
-46.325323
-92.838358
-146.533
-201.25325
-258.16969
-317.59305
-379.9061
-445.41854
-514.35502
-586.82646
-662.80201
-742.08091
-824.26718
-908.75079
-994.69939
-1081.0634
-1166.5951
-1249.8794
-1329.3706
-1403.4319
-1470.3712
-1528.4763
-1576.0499
-1611.451
-1633.1484
-1639.7957
-1630.3353
-1604.1445
-1561.1148
-1501.7452
-1427.2461
-1339.5228
-1241.07
-1134.7887
-1023.7602
-911.02014
-799.3687
-691.23943
-588.63022
-493.08994
-405.74662
-327.3618
-258.39643
-199.07667
-149.4641
-109.52787
-79.048896
-57.116622
-42.911641
-45.0734
-92.253128
-145.82126
-200.39044
-257.13788
-316.40647
-378.59262
-444.01803
-512.91921
-585.4191
-661.49843
-740.96653
-823.43447
-908.29479
-994.712
-1081.6276
-1167.7804
-1251.739
-1331.941
-1406.7335
-1474.4098
-1533.2431
-1581.5193
-1617.5754
-1639.8515
-1646.9671
-1637.8294
-1611.7412
-1568.5301
-1508.6879
-1433.431
-1344.6996
-1245.0543
-1137.4817
-1025.1532
-911.18432
-798.43548
-689.37684
-586.02073
-489.91264
-402.16492
-323.51654
-254.4058
-195.04604
-145.49036
-105.64754
-75.246971
-54.146685
-43.547823
-44.269661
-91.35688
-144.56382
-198.77252
-255.16933
-314.12672
-376.06316
-441.32259
-510.16458
-582.73573
-659.03961
-738.90514
-821.95682
-907.59112
-994.96482
-1082.9998
-1170.4055
-1255.7164
-1337.3355
-1413.5782
-1482.709
-1542.9728
-1592.6231
-1629.9536
-1653.3433
-1661.3318
-1652.7374
-1626.7796
-1583.1946
-1522.4024
-1445.6137
-1354.8381
-1252.7728
-1142.5831
-1027.6267
-911.18213
-796.23018
-685.31138
-580.46218
-483.21554
-394.64617
-315.44142
-245.98575
-186.44881
-136.84024
-96.97477
-66.54267
-45.986356
-37.203123
-43.479559
-90.062385
-142.66196
-196.29265
-252.14576
-310.62233
-372.16955
-437.16328
-505.89778
-578.55611
-655.1776
-735.6226
-819.53779
-906.32732
-995.13709
-1084.859
-1174.1574
-1261.5137
-1345.2782
-1423.7187
-1495.0588
-1557.5044
-1609.2641
-1648.5705
-1673.714
-1683.1115
-1675.4347
-1649.752
-1605.6515
-1543.4467
-1464.3353
-1370.4332
-1264.6545
-1150.4496
-1031.4725
-911.2584
-792.97418
-679.26619
-572.20363
-473.29565
-383.55571
-303.59041
-233.7004
-173.98011
-124.36411
-84.577514
-54.306241
-34.216845
-26.071995
-42.654793
-88.446318
-140.19376
-193.02086
-248.12643
-305.94227
-366.95096
-431.56974
-500.13937
-572.8927
-649.91878
-731.12252
-816.18294
-904.5164
-995.25443
-1087.2466
-1179.0929
-1269.1994
-1355.8427
-1437.2273
-1511.5246
-1576.8938
-1631.4901
-1673.4712
-1701.0138
-1712.3728
-1706.0176
-1680.7958
-1636.0702
-1571.9865
-1489.7087
-1391.4983
-1280.5817
-1160.823
-1036.3031
-910.92108
-788.10021
-670.62552
-560.60049
-459.49035
-368.21522
-287.26496
-216.82122
-156.86917
-107.24172
-67.581722
-37.582667
-17.964789
-10.207628
-41.646774
-86.399055
-137.04829
-188.84105
-242.98493
-299.94678
-360.25184
-424.36899
-492.69847
-565.53809
-643.04318
-725.17949
-811.67194
-901.95628
-995.14688
-1090.0366
-1185.1373
-1278.7523
-1369.0608
-1454.1867
-1532.2406
-1601.3315
-1659.5587
-1704.9953
-1735.6819
-1749.6675
-1745.1533
-1720.684
-1675.3004
-1608.8935
-1522.5559
-1418.7354
-1301.0909
-1174.0644
-1042.3268
-910.26913
-781.64952
-659.42093
-545.7128
-441.91404
-348.8074
-266.71922
-195.66723
-135.48579
-85.873686
-46.374272
-16.650179
2.6154764
10.155083
-40.505558
-83.991754
-133.29029
-183.80227
-236.74852
-292.63688
-352.04294
-415.49799
-483.4758
-556.35632
-634.38057
-717.59533
-805.7894
-898.4289
-994.60931
-1093.0494
-1192.1425
-1290.0549
-1384.8384
-1474.5189
-1557.1414
-1630.7687
-1693.4504
-1743.1756
-1777.833
-1795.2232
-1793.2021
-1769.9097
-1723.936
-1654.7887
-1563.4202
-1452.5071
-1326.2956
-1190.0228
-1049.1604
-908.74833
-772.96573
-644.95629
-526.85264
-419.91915
-324.74351
-241.43208
-169.7885
-109.45459
-59.965399
-20.7429
8.6244122
27.545679
34.913764
-39.096843
-81.072985
-128.76024
-177.7401
-229.24517
-283.82946
-342.1265
-404.7412
-472.23621
-545.09309
-623.66163
-708.09482
-798.26945
-893.69847
-993.45868
-1096.173
-1200.0762
-1303.1507
-1403.2834
-1498.3831
-1586.4284
-1665.4502
-1733.4672
-1788.3977
-1827.9719
-1849.7022
-1851.0127
-1829.5157
-1783.178
-1710.9352
-1613.4805
-1493.7584
-1356.8117
-1208.9686
-1056.7802
-906.13023
-761.71205
-626.86855
-503.689
-393.24011
-295.83586
-211.29073
-139.13424
-78.769614
-29.537028
9.2854313
38.212608
56.768047
63.973662
-37.565592
-77.802173
-123.60673
-170.77939
-220.56798
-273.57826
-330.50919
-392.05099
-458.87199
-531.57787
-610.65502
-696.39478
-788.79511
-887.44146
-991.39674
-1099.1617
-1208.758
-1317.9212
-1424.3237
-1525.7351
-1620.0753
-1705.3704
-1779.6446
-1840.7764
-1886.3468
-1913.5461
-1919.2711
-1900.455
-1854.2136
-1778.6309
-1673.9388
-1543.3771
-1393.074
-1230.8665
-1064.7619
-901.73263
-747.08317
-604.34003
-475.46802
-361.23017
-261.56244
-175.89809
-103.42261
-43.249717
5.5096061
43.745809
72.099771
90.221008
97.244716
-35.662178
-73.88018
-117.50878
-162.58739
-210.37096
-261.51979
-316.80461
-377.0124
-442.93527
-515.3285
-594.84813
-681.96411
-776.84022
-879.17318
-988.02405
-1101.738
-1218.0476
-1334.3505
-1448.0357
-1556.7085
-1658.2474
-1750.7201
-1832.217
-1900.6345
-1953.4365
-1987.471
-1999.0078
-1984.1208
-1938.7778
-1859.8025
-1746.6227
-1602.769
-1435.8656
-1255.862
-1072.7414
-894.87099
-728.25728
-576.55202
-441.46229
-323.2958
-221.47316
-134.93725
-62.450084
-2.7824147
45.217336
82.629302
110.23544
127.81886
134.62351
-33.714117
-69.687161
-110.85341
-153.53554
-198.99821
-247.95906
-301.26562
-359.81232
-424.53371
-496.36325
-576.16562
-664.63951
-762.17531
-868.64043
-983.12122
-1103.7683
-1227.9188
-1352.503
-1474.5314
-1591.4174
-1701.0328
-1801.5604
-1891.2487
-1968.105
-2029.5391
-2072.0574
-2091.2128
-2082.0015
-2038.8676
-1956.7809
-1833.7875
-1673.6268
-1486.0188
-1283.9262
-1080.0317
-884.47955
-704.04207
-542.36647
-400.692
-278.65788
-174.99128
-88.012869
-15.972237
42.75777
89.622257
125.90695
152.54264
169.45067
175.98439
-31.240164
-64.635118
-102.99917
-142.94798
-185.73775
-232.1412
-283.08525
-339.58145
-402.72646
-473.66431
-553.51486
-643.26804
-743.62292
-854.70851
-975.6899
-1104.4785
-1237.863
-1372.1113
-1503.7138
-1629.8554
-1748.4576
-1857.9242
-1956.7926
-2043.3213
-2114.9801
-2167.9727
-2197.0775
-2195.9549
-2157.0694
-2072.7085
-1938.556
-1758.306
-1544.669
-1315.006
-1085.7183
-869.19347
-672.96571
-500.43028
-352.03678
-226.46181
-121.51287
-34.733999
36.232637
93.464465
138.72471
173.51276
198.90831
214.9725
221.17103
-28.855846
-59.469423
-94.7454
-131.64406
-171.41519
-214.88434
-263.05734
-317.06876
-378.19464
-447.82302
-527.3803
-618.22047
-721.45634
-837.61244
-966.03036
-1104.3363
-1248.5477
-1393.9774
-1536.39
-1672.7088
-1801.0116
-1920.0907
-2028.9607
-2126.3401
-2209.9488
-2275.7743
-2317.7562
-2328.0022
-2296.4975
-2211.6361
-2065.1113
-1859.9434
-1613.1956
-1348.8351
-1088.4185
-847.12449
-633.10036
-449.05198
-294.15729
-165.73216
-60.383829
25.294524
94.363533
149.39464
192.48248
225.33682
249.17706
264.20098
269.98918
-25.757751
-53.196062
-84.994069
-118.44911
-154.77179
-194.82896
-239.69946
-290.64305
-349.13094
-416.83206
-495.54054
-587.06315
-693.06498
-814.67098
-951.58564
-1101.1274
-1258.2249
-1416.7899
-1571.5522
-1719.1344
-1857.9385
-1987.367
-2107.1335
-2216.6788
-2314.2542
-2395.8006
-2454.3986
-2480.4379
-2460.984
-2378.9356
-2219.2774
-1982.9173
-1693.3657
-1384.8628
-1086.1284
-815.72888
-581.98739
-386.18245
-225.51352
-95.409251
9.0591683
92.434929
158.56663
210.54597
250.79455
281.21416
303.14317
316.90656
322.20037
-22.915907
-47.018182
-75.070797
-104.76805
-137.28238
-173.51331
-214.60398
-261.93584
-317.18477
-382.3347
-459.6115
-551.36871
-659.98332
-787.46618
-934.2018
-1097.2167
-1269.8626
-1443.9279
-1612.6119
-1772.1988
-1921.7148
-2061.5254
-2192.3562
-2314.7652
-2428.024
-2528.3721
-2608.0764
-2655.7003
-2655.1035
-2581.697
-2409.2657
-2133.4474
-1787.396
-1422.0101
-1075.8894
-771.54327
-516.48155
-309.352
-144.36103
-14.374886
87.453519
166.98253
228.90696
276.83513
313.48549
340.91381
360.54299
372.80769
377.51655
-19.166522
-39.490164
-63.378656
-88.890251
-117.10635
-148.93166
-185.55022
-228.4465
-279.49527
-341.02113
-415.75016
-506.68636
-617.10311
-750.30666
-907.93791
-1086.909
-1278.3126
-1470.7068
-1655.0398
-1827.2932
-1987.6844
-2138.0736
-2280.5129
-2417.0598
-2548.6009
-2672.1049
-2779.0262
-2856.0788
-2884.1493
-2829.2676
-2646.9132
-2320.6996
-1898.078
-1458.3323
-1053.3379
-709.86883
-432.60172
-215.64495
-48.791616
78.484047
175.34817
249.11442
305.33035
348.0714
380.28801
404.12779
421.04793
431.56611
435.59617
-15.847499
-32.3039
-51.804094
-72.834861
-96.383278
-123.34237
-154.91865
-192.68296
-238.70149
-295.66622
-366.88613
-456.13014
-567.74708
-706.86225
-877.33459
-1076.4327
-1291.9258
-1507.2408
-1709.8254
-1895.3585
-2066.1437
-2226.2594
-2379.31
-2529.2349
-2679.5814
-2829.1116
-2968.8971
-3084.1766
-3153.9665
-3133.8427
-2949.7173
-2558.833
-2028.8904
-1490.4262
-1011.9959
-624.33759
-325.36593
-101.70686
63.183741
184.17754
273.11864
338.82567
387.61963
423.92848
450.82588
470.46126
484.25921
492.78393
496.04218
-11.429627
-23.54335
-38.232615
-54.358395
-72.742513
-94.223639
-119.98504
-151.6296
-191.35358
-242.18069
-308.04276
-393.55477
-504.23891
-647.62366
-831.37986
-1054.3449
-1299.4784
-1541.9874
-1763.9823
-1961.1007
-2139.6136
-2307.2555
-2469.492
-2632.5083
-2804.135
-2986.4951
-3170.2881
-3338.5497
-3469.964
-3511.2393
-3343.9967
-2870.533
-2183.7709
-1512.4056
-942.21003
-506.37169
-188.66269
36.162993
193.47316
303.46008
380.85099
435.85083
475.34556
503.91593
524.5984
539.42502
549.70487
556.00316
558.40239
-7.4994803
-15.367508
-25.17727
-36.226133
-49.145773
-64.681713
-83.948298
-108.5297
-140.69535
-183.77516
-242.42294
-322.29107
-430.16483
-576.56826
-775.54905
-1030.297
-1316.8143
-1596.4943
-1843.0035
-2052.1656
-2237.4549
-2412.3321
-2583.597
-2758.6147
-2951.1479
-3168.7887
-3402.0619
-3630.9832
-3840.2259
-3979.6128
-3867.9996
-3293.9277
-2367.5272
-1514.9948
-829.75354
-344.55977
-15.228458
201.77131
343.62742
436.6106
498.19361
539.57404
567.81678
587.35354
600.96906
610.43199
616.84043
620.70831
622.17276
-2.4619153
-5.6449787
-10.097093
-15.563806
-22.427672
-31.311589
-43.221225
-59.663117
-82.876342
-116.35433
-165.42048
-236.83368
-338.36747
-483.42338
-695.80143
-988.89789
-1329.0873
-1653.8623
-1924.2826
-2136.9213
-2318.7377
-2492.4581
-2665.0878
-2842.664
-3049.1295
-3303.5469
-3599.6781
-3914.8529
-4241.9709
-4553.5869
-4583.1336
-3903.3361
-2588.9883
-1482.7536
-652.87526
-123.7299
203.16869
398.53951
514.39898
583.13213
624.18042
648.9355
664.03542
673.35375
679.16148
682.79955
685.05403
686.33273
686.80406
2.9785115
3.9647326
4.5260831
4.3438711
3.3536074
1.1204527
-3.148783
-10.737989
-23.638609
-45.199332
-81.222647
-139.81112
-229.69136
-366.4365
-588.20997
-931.67265
-1352.3242
-1743.492
-2047.6998
-2260.7698
-2434.7431
-2607.9909
-2786.9902
-2969.4073
-3194.6389
-3500.7203
-3884.2612
-4314.1436
-4764.8032
-5292.1851
-5574.0967
-4825.273
-2836.9859
-1375.7506
-376.34038
175.55581
474.83523
628.5476
705.07321
741.36977
757.0409
762.34937
762.66903
760.8182
758.26601
755.75954
753.67711
752.26905
751.7122
8.2695656
13.222038
19.263637
25.084438
30.935457
36.582955
41.493334
44.65925
44.411499
37.716293
18.413618
-23.454518
-97.837041
-219.51329
-442.74972
-850.37606
-1390.7922
-1867.2976
-2201.857
-2385.9559
-2524.5036
-2681.6358
-2861.4959
-3028.74
-3240.4514
-3574.6693
-4025.2542
-4563.4485
-5091.0689
-5961.3528
-6824.1648
-6299.4575
-3073.7193
-1170.4081
37.142805
573.34425
805.73047
890.9121
912.55271
908.08284
894.03457
877.65856
862.05336
848.45589
837.26046
828.47724
822.00076
817.88359
816.29185
17.803118
25.804054
36.681997
47.615108
59.285422
71.642274
84.443592
97.041835
108.27777
115.96246
114.67431
93.471441
41.537357
-49.48166
-244.36728
-712.7726
-1434.2897
-2021.5316
-2401.4713
-2537.8097
-2635.7939
-2782.3465
-2981.5189
-3115.8473
-3280.2069
-3678.8465
-4226.3617
-4964.0142
-5680.9488
-7244.1581
-8882.7213
-9068.3716
-3577.8946
-1037.5538
635.91255
1099.8363
1198.1082
1179.7467
1130.3037
1078.0728
1031.3787
992.16371
960.24322
934.8304
915.0478
900.08031
889.29827
882.5349
879.93338
22.027776
30.777515
45.99308
62.067523
79.970429
99.874136
122.02157
146.43668
172.90494
200.81856
226.91149
240.15882
225.48319
179.87062
44.61294
-482.23613
-1545.8703
-2294.839
-2757.1165
-2764.5394
-2742.4636
-2807.6681
-3022.5581
-3102.654
-3213.8282
-3763.5868
-4235.2783
-5188.35
-6473.636
-7865.3886
-9590.1796
-12103.624
-4822.2099
-71.644857
1723.6557
1812.787
1641.9413
1479.558
1347.0298
1244.0073
1164.365
1102.7681
1055.1263
1018.4395
990.51047
969.69633
954.85207
945.59474
942.04178
36.775554
46.428934
66.327218
87.144548
110.53382
136.81207
166.58206
200.32645
238.38389
281.07479
326.82887
364.43961
370.90175
346.32041
291.67873
-193.01548
-1807.5454
-2596.5223
-3093.3001
-2770.5782
-2615.3948
-2721.4626
-3130.584
-3280.1161
-3314.3403
0
0
0
0
0
0
0
0
6203.2165
3403.4153
2583.3641
2069.0794
1756.6879
1545.9495
1396.9121
1287.8261
1206.2813
1144.6059
1097.8249
1062.5781
1036.4964
1017.9837
1006.4706
1002.0564
35.111824
42.003376
63.806603
86.80992
112.89234
142.37741
176.16265
215.19778
260.52234
313.77452
376.78049
444.94701
501.62883
559.49218
707.14688
546.09261
-1984.7026
-2750.9117
-3609.9276
-2964.3805
-3035.9917
-3009.1281
0
0
0
0
0
0
0
0
0
0
10130.269
6287.3843
4124.9477
3001.2356
2362.1868
1970.0338
1709.8963
1528.4063
1397.1274
1299.8839
1226.8338
1171.6973
1130.2994
1099.7396
1078.083
1064.6276
1059.4702
44.08853
54.824911
80.774375
106.75305
135.87878
168.70629
206.48481
250.63983
302.94973
366.3973
446.22503
544.86621
651.78484
752.57798
838.80553
563.71049
-3089.7972
-3551.4234
-3190.9875
0
0
0
0
0
0
0
0
0
0
0
1781.4899
3365.3299
5757.0454
5237.0915
3962.3385
3101.0927
2508.0395
2108.6188
1831.5223
1633.8537
1489.2878
1381.5868
1300.4245
1239.0477
1192.9052
1158.8112
1134.6342
1119.607
1113.8459
22.1865
41.97379
66.107378
90.969229
118.39574
149.15337
184.31114
225.02972
272.60448
329.23197
398.79457
477.2042
536.71733
536.13905
558.15742
692.32472
0
0
0
0
0
0
-1130.0572
-1101.7164
-1009.6567
-916.03489
-788.67835
-494.00635
-93.781932
698.12539
2027.3453
3362.69
4751.879
4490.862
3715.7734
3059.6288
2553.5828
2183.1198
1912.333
1712.5408
1563.2286
1450.4024
1364.5603
1299.2112
1249.8484
1213.2496
1187.2341
1171.0412
1164.8293
20.013529
49.88939
74.78293
100.3135
127.69669
157.75805
191.14395
228.28621
269.14336
312.93139
357.34033
395.8957
405.51814
338.10059
142.64528
-338.48963
-1278.0135
-1222.5447
-1143.3276
-1097.4164
-1048.4961
-1019.3578
-1008.2219
-801.30938
-836.87856
-581.56117
-360.87676
-203.28357
260.27543
905.91586
1961.2437
3050.2225
3957.5294
3852.8969
3405.279
2934.552
2529.3968
2206.9337
1957.6094
1766.3184
1619.418
1506.2652
1418.9862
1351.8794
1300.8185
1262.7581
1235.6022
1218.6617
1212.1568
20.629997
46.336073
71.905936
97.709972
124.98781
154.48412
186.77566
222.2257
260.81848
301.64362
341.48212
373.112
384.20047
352.64587
204.65524
-227.78145
-788.88066
-917.44664
-959.32364
-963.27078
-885.21318
-839.97242
-816.51943
-689.94457
-619.24152
-415.9817
-177.71341
79.054416
512.08556
1097.5616
1897.2037
2722.566
3335.8878
3357.837
3106.6543
2778.1163
2464.31
2194.7456
1974.5196
1798.5903
1659.4176
1549.8409
1463.932
1397.0701
1345.7306
1307.2028
1279.5817
1262.3014
1255.6581
14.96126
36.137857
58.658365
81.119213
104.09499
127.82181
152.30343
177.17973
201.55003
223.4523
238.67498
240.01235
218.23665
159.38739
15.367399
-282.8694
-604.28556
-729.58984
-781.7436
-791.71612
-750.75004
-701.26897
-640.22814
-535.91635
-422.18609
-236.6762
-10.051443
271.22094
669.84318
1188.8657
1824.3151
2451.9307
2890.5531
2968.0838
2835.982
2613.9898
2377.1493
2158.6277
1970.1261
1813.3121
1685.3899
1582.2869
1499.9961
1435.0706
1384.6977
1346.5991
1319.1329
1301.8918
1295.2545
23.775994
46.341004
70.041769
93.473423
117.33374
141.72801
166.47458
190.94492
213.82184
232.54134
242.42755
236.47386
205.93588
135.53493
-6.8408136
-235.43185
-458.08967
-577.40178
-632.93498
-642.18498
-613.61277
-566.21445
-495.35386
-392.66703
-262.68107
-81.380868
140.60649
417.46071
778.28367
1224.9495
1736.6247
2222.8213
2558.2893
2659.6031
2600.6475
2455.8511
2281.1619
2108.0895
1950.7019
1814.4093
1699.7249
1605.0338
1528.0229
1466.3694
1417.993
1381.0896
1354.3209
1337.455
1330.9522
11.96768
29.852649
49.930165
69.915287
89.908666
109.78919
129.24836
147.6159
163.64452
175.09186
178.26877
168.09569
137.80632
74.996213
-39.428988
-202.35208
-357.05155
-454.68716
-503.91781
-512.08946
-486.85932
-438.0362
-363.83439
-260.85714
-126.90171
48.499938
263.29581
526.54458
850.94763
1233.5399
1649.7818
2033.912
2303.0303
2412.6428
2399.1664
2309.5538
2184.1578
2049.9314
1921.3526
1805.4187
1704.7741
1619.6096
1548.9918
1491.5883
1446.0082
1410.9195
1385.2989
1369.092
1362.8331
21.351096
40.563083
60.760367
80.25638
99.330446
117.71511
134.89745
149.98658
161.53632
167.26914
163.95313
147.65516
113.33072
52.711199
-42.837708
-164.48043
-277.44261
-354.3003
-393.74622
-398.49115
-373.25644
-322.86162
-246.89406
-143.59131
-10.171845
158.30822
362.4924
607.37774
897.23618
1225.637
1569.0351
1879.637
2103.0974
2213.2629
2228.1993
2177.7922
2090.8556
1989.0614
1886.0782
1789.3552
1702.6957
1627.5151
1563.9289
1511.423
1469.2139
1436.4094
1412.2908
1396.97
1391.0433
11.809332
27.912363
45.891194
63.537291
80.745549
97.162365
112.25941
125.18549
134.61198
138.55067
134.33398
118.76739
87.846543
36.203338
-39.227274
-129.33049
-212.10274
-270.18403
-299.07923
-298.81109
-271.65346
-219.8656
-143.32338
-40.871549
89.560941
250.40213
442.43587
667.65456
925.86495
1208.9683
1496.3626
1753.3093
1943.7441
2050.8531
2083.5405
2060.9816
2003.7019
1928.6392
1847.8392
1768.6681
1695.3745
1630.144
1573.8416
1526.5938
1488.1247
1457.9309
1435.5724
1421.308
1415.7803
17.094172
33.194165
50.168606
66.311021
81.663558
95.845707
108.306
118.22636
124.42705
125.28468
118.78764
102.64085
74.103319
30.208772
-29.183822
-96.314063
-156.81537
-198.94981
-217.75312
-211.84463
-181.85589
-128.66117
-52.122555
48.549964
174.63672
327.24674
506.58395
712.59599
942.71189
1188.4006
1432.4292
1649.4718
1815.0611
1917.5953
1961.2955
1958.5526
1923.9958
1870.712
1808.8373
1745.2974
1684.4017
1628.7403
1579.6759
1537.8093
1503.2703
1475.8841
1455.4546
1442.3629
1437.2806
11.919799
26.329811
42.068199
57.186201
71.515715
84.630242
95.976019
104.78157
109.997
110.27169
104.03889
89.615301
65.225014
29.532859
-16.200025
-65.66664
-109.00575
-137.81998
-147.47324
-135.96612
-102.93796
-48.474306
27.64839
125.94131
247.04241
391.23177
558.04176
746.1306
951.76219
1166.721
1376.9099
1563.7081
1710.0666
1807.5616
1857.976
1869.3637
1852.1756
1816.4699
1770.5789
1720.7211
1671.0802
1624.3809
1582.2903
1545.7413
1515.1734
1490.6794
1472.2685
1460.4166
1455.8074
13.634601
27.336315
41.852789
55.541678
68.321343
79.797897
89.470967
96.674796
100.55031
100.05557
94.050624
81.394355
61.068795
32.754029
-1.7632034
-37.466605
-67.317572
-85.080124
-86.677862
-69.932996
-33.958447
21.59186
97.004453
192.5726
308.46486
444.39638
599.34227
771.20059
955.77706
1145.5519
1329.1091
1492.5827
1623.7539
1716.2771
1770.6536
1792.1372
1788.2198
1766.6126
1734.0925
1696.063
1656.4561
1617.9766
1582.4442
1551.0079
1524.3332
1502.7225
1486.3516
1475.7645
1471.6396
11.317024
24.010833
37.6383
50.509146
62.460908
73.10128
81.967811
88.481906
91.943363
91.560917
86.534942
76.159007
59.987888
38.327382
13.103538
-11.666439
-30.761265
-39.382533
-34.045367
-12.611987
26.039452
82.467227
156.97408
249.67747
360.41122
488.50044
632.52653
789.98789
956.6366
1125.788
1288.2156
1433.4319
1552.4348
1640.3087
1696.8831
1725.5866
1731.8113
1721.4675
1700.0404
1672.1397
1641.3518
1610.2832
1580.796
1554.166
1531.2144
1512.403
1498.0379
1488.705
1485.0624
11.376346
23.288566
35.930296
47.780434
58.716038
68.384537
76.384743
82.238244
85.399313
85.293994
81.396887
73.334287
61.056281
45.213
27.67346
11.68627
1.2589912
0.18201281
11.405975
36.919598
77.905817
135.00137
208.48699
298.33783
404.15113
524.9881
659.18442
804.07557
955.58009
1107.8503
1253.4022
1384.1631
1493.3242
1576.9885
1634.6414
1668.5095
1682.4906
1681.1223
1668.8344
1649.5262
1626.3994
1601.9147
1577.9047
1555.7061
1536.2406
1520.0863
1507.6485
1499.5319
1496.359
10.314738
21.513682
33.435446
44.600831
54.873528
63.930442
71.426616
76.975702
80.168538
80.61482
78.012812
72.246013
63.537703
52.720581
41.535176
32.652157
29.246719
34.3743
50.533426
79.520039
122.48106
180.05193
252.46635
339.58433
440.83775
555.11743
680.62797
814.68962
953.49311
1091.9593
1223.9699
1343.1935
1444.3487
1524.2821
1582.3126
1619.8678
1639.778
1645.5393
1640.7307
1628.6427
1612.0961
1593.3735
1574.2443
1556.057
1539.7913
1526.1081
1515.4858
1508.5278
1505.8051
9.9153252
20.481629
31.697396
42.183563
51.824173
60.333328
67.422033
72.787225
76.135517
77.224592
75.925987
72.31109
66.779875
60.246282
54.301494
51.18227
53.470444
63.677424
83.927771
115.81723
160.40811
218.29072
289.63893
374.21995
471.35202
579.82369
697.78939
822.6399
950.87447
1078.084
1199.2111
1309.1904
1403.8251
1480.5125
1538.5015
1578.6841
1603.1253
1614.5335
1615.8099
1609.7331
1598.7784
1585.0359
1570.1922
1555.5765
1542.1956
1530.7677
1521.8267
1515.9588
1513.6639
9.3333516
19.374893
30.043424
40.020798
49.199593
57.327912
64.168673
69.493165
73.106658
74.887476
74.842513
73.180841
70.414621
67.482533
65.834455
67.379159
74.266921
88.600947
112.20144
146.476
192.38335
250.44822
320.78124
403.07557
496.57309
600.00779
711.53623
828.66287
948.19082
1066.2748
1178.6751
1281.2535
1370.5941
1444.5057
1502.2178
1544.2613
1572.1506
1588.0009
1594.1798
1593.043
1586.765
1577.2505
1566.0945
1554.5903
1543.7512
1534.3346
1526.9219
1522.0717
1520.185
8.9142104
18.500876
28.692392
38.234463
47.032237
54.865327
61.542134
66.896538
70.81387
73.26701
74.364925
74.414049
73.994519
74.039699
75.875125
81.161125
91.730171
109.37738
135.67889
171.876
218.82271
276.9726
346.37596
426.66767
517.03991
616.20378
722.348
833.10559
945.55595
1056.3147
1161.7676
1258.4577
1343.5356
1415.1188
1472.4431
1515.7949
1546.2934
1565.6099
1575.697
1578.5691
1576.1473
1570.1687
1562.1361
1553.3007
1544.6665
1537.0156
1530.9775
1527.0868
1525.6043
8.5299922
17.761928
27.587657
36.802242
45.319987
52.948792
59.536665
64.969861
69.198165
72.267862
74.363927
75.860404
77.376837
79.827845
84.435593
92.673525
106.13984
126.39818
154.83282
192.54522
240.29399
298.46536
367.05625
445.65681
533.4281
629.07772
730.84017
836.4733
943.2931
1048.2811
1148.2952
1240.3765
1322.0864
1391.7725
1448.6873
1492.9518
1525.4025
1547.3819
1560.5257
1566.5778
1567.2527
1564.1438
1558.6687
1552.0365
1545.2333
1539.0554
1534.1979
1531.2102
1530.1543
8.1621994
17.123643
26.669094
35.637268
43.948173
51.434371
57.976588
63.502675
68.011987
71.60565
74.523472
77.185254
80.232298
84.557
91.299834
101.79624
117.474
139.72587
169.78979
208.65539
257.00104
315.15498
383.06991
460.30257
545.99541
638.86247
737.18586
838.83274
941.31021
1041.88
1137.7476
1226.3128
1305.4308
1373.6173
1430.1447
1475.0234
1508.8912
1532.8531
1548.3091
1556.7979
1559.8718
1559.0094
1555.5579
1550.6927
1545.383
1540.4281
1536.6043
1534.553
1534.0612
7.7907039
16.626848
25.996293
34.804832
42.978988
50.37526
56.901346
62.517104
67.25856
71.266261
74.818017
78.363376
82.554535
88.262888
96.567208
108.70504
125.98582
149.68216
180.92631
220.62456
269.3934
327.51571
394.91052
471.11102
555.24927
646.04943
741.83529
840.56085
939.87706
1037.2485
1130.1253
1216.1551
1293.396
1360.481
1416.7005
1461.9929
1496.8615
1522.2466
1539.3813
1549.6556
1554.5032
1555.3157
1553.3862
1549.8646
1545.7041
1541.6754
1538.6032
1537.3801
1537.6641
7.2875904
16.192766
25.482724
34.207074
42.3012
49.646054
56.170091
61.855305
66.761774
71.055039
75.036191
79.17182
84.118344
90.731467
100.05017
113.25225
131.57371
156.20864
188.21917
228.45622
277.49444
335.58581
402.62674
478.13546
561.23859
650.66913
744.78097
841.58758
938.83538
1034.1203
1125.0483
1209.4229
1285.4296
1351.7763
1407.7664
1453.2953
1488.7828
1515.0649
1533.2681
1544.6858
1550.6735
1552.5633
1551.6079
1548.9429
1545.5156
1542.0416
1539.341
1538.9076
1541.0996
6.0652023
15.86163
25.202805
33.919909
41.983677
49.307067
55.832729
61.554832
66.545735
70.983486
75.180903
79.613307
84.939998
92.011569
101.85184
115.60221
134.45126
159.55653
191.95022
232.45631
281.62859
339.70333
406.56542
481.72547
564.3075
653.04935
746.32057
842.16517
938.37788
1032.6204
1122.5759
1206.125
1281.5158
1347.4938
1403.3698
1449.0187
1484.8201
1511.5592
1530.3103
1542.32
1548.9004
1551.3529
1550.918
1548.735
1545.761
1542.6711
1540.2513
1540.7716
1546.6126
-2222.5371
-2474.4811
-2687.5314
-2867.2256
-3007.8372
-3088.6488
-3089.7972
-3010.4254
-2838.9689
-2647.715
-3190.9578
-3190.9875
-3183.421
-3171.519
-3156.7043
-3143.6305
-3131.0563
-3141.3162
-3140.7907
-3112.602
-3172.5431
-3171.3278
-3156.3177
-3139.5661
-3123.1769
-3115.3984
-3097.4577
-3103.4282
-3088.382
-3033.2919
-3126.2336
-3123.4937
-3115.5039
-3107.7163
-3099.7049
-3103.6532
-3093.7682
-3090.5287
-3075.7693
-3037.7459
-3066.3886
-3065.1982
-3060.9588
-3055.1933
-3046.2767
-3044.9614
-3046.9678
-3047.1773
-3045.9941
-3049.3554
-3022.8736
-3022.2492
-3017.1226
-3008.038
-2994.564
-2964.3805
-2986.4408
-2998.1475
-3003.896
-3016.0995
-3009.2597
-3011.1098
-3014.9859
-3019.3191
-3032.8281
-3011.2223
-3008.372
-3002.5545
-2985.7391
-2961.1497
-3021.5219
-3022.9478
-3028.4129
-3035.9917
-3058.6626
-3067.9815
-3048.9788
-3023.2971
-2993.6187
-2958.2175
-3849.1825
-3862.3105
-3833.9237
-3789.9416
-3752.6784
-3720.7557
-3699.2816
-3685.477
-3676.3804
-3677.8895
-2979.6304
-2978.515
-2971.9173
-2957.6447
-2918.0267
-2941.8469
-2953.0235
-2954.8341
-2944.121
-2916.9368
-3005.9825
-3009.1281
-3015.8911
-3037.3834
-3016.8085
-3005.8312
-2999.205
-2989.8145
-2974.5289
-2958.6807
-3040.5241
-3042.3567
-3045.8413
-3068.4196
-3081.6505
-3058.9909
-3033.4473
-3013.9848
-2995.7249
-2979.7259
-2986.5164
-2982.6759
-2962.2874
-2935.2159
-2958.4529
-2977.6291
-2990.9545
-3000.3383
-3004.2373
-3012.5297
-3023.7688
-3026.9218
-3025.8675
-2987.2966
-2996.6995
-3011.0803
-3022.8802
-3031.1838
-3035.2323
-3045.6889
-3157.7793
-3166.279
-3191.288
-3189.387
-3159.7845
-3130.584
-3108.9654
-3093.043
-3077.3518
-3059.9607
-3145.417
-3140.6565
-3132.7768
-3153.8132
-3154.2615
-3147.6962
-3140.5287
-3134.185
-3127.3901
-3128.66
-3170.3187
-3170.0522
-3146.0756
-3155.3402
-3166.2266
-3173.5401
-3176.8476
-3177.4755
-3175.6851
-3179.5233
-3285.3238
-3297.8742
-3295.0399
-3280.1161
-3263.5545
-3250.2954
-3240.4411
-3233.6105
-3225.8448
-3216.4597
-3284.0452
-3287.3662
-3294.7173
-3287.8069
-3279.3367
-3274.528
-3274.5361
-3278.8595
-3283.5097
-3295.2409
-3190.9749
-3176.6324
-3194.0577
-3220.1126
-3249.8354
-3278.6699
-3305.5572
-3329.8063
-3349.453
-3373.8087
-3338.0579
-3314.3403
-3323.2431
-3342.4682
-3368.0223
-3392.0794
-3413.4497
-3430.8838
-3442.5042
-3457.4137
-3712.3663
-3703.7454
-3672.2589
-3637.1368
-3610.8829
-3590.2261
-3577.0913
-3569.0338
-3562.1597
-3558.6565
-3005.3033
-3003.5928
-2997.5353
-2984.49
-2975.7812
-2984.359
-2986.3556
-2983.2685
-2975.6534
-2975.5343
-3512.5275
-3521.0804
-3535.9828
-3582.8372
-3638.2866
-3689.2748
-3709.3709
-3690.4093
-3606.9337
-3436.0353
-3247.6517
-3247.7871
-3250.2823
-3254.0379
-3253.9198
-3251.8114
-3248.7556
-3244.2077
-3240.0188
-3193.9807
-3162.5965
-3208.648
-3269.4402
-3372.3641
-3481.8514
-3567.0443
-3608.6569
-3568.4645
-3420.2905
-3189.1572
-3451.8729
-3461.6627
-3482.5123
-3518.52
-3551.4234
-3579.2377
-3587.1677
-3585.8651
-3550.4237
-3439.0477
-3342.0059
-3346.0723
-3359.7623
-3382.6825
-3402.5953
-3419.189
-3426.7415
-3415.7104
-3403.2723
-3352.4504
11319.451
10716.248
10130.269
9490.6316
8833.5415
8180.2421
7545.8947
6937.5121
6348.0878
5771.0672
8302.343
8225.0348
8101.7979
7840.1778
7502.3226
7111.9214
6690.2762
6255.2694
5817.1361
5360.7717
-3705.3532
-3723.5275
-3742.0421
-3749.3785
-3759.3346
-3763.5868
-3769.1178
-3773.0277
-3774.618
-3778.2005
-3704.8989
-3708.6905
-3744.1796
-3775.7149
-3815.3049
-3842.9695
-3867.3493
-3883.7139
-3892.584
-3896.8776
-3948.4106
-3941.0425
-3957.1378
-3964.5076
-3992.8756
-4011.2503
-4031.1489
-4044.1815
-4049.6425
-4045.1943
-4225.1532
-4214.7263
-4228.9493
-4219.3163
-4235.2783
-4236.9856
-4243.4036
-4244.3395
-4240.6666
-4236.1833
-4548.1474
-4529.9109
-4541.6075
-4514.3405
-4517.9978
-4499.9198
-4487.2894
-4467.072
-4439.2313
-4406.6896
-4904.6
-4877.2766
-4886.8347
-4840.1769
-4831.6188
-4792.8848
-4759.8634
-4716.2234
-4661.3495
-4600.9272
-5285.3554
-5246.8004
-5255.3974
-5188.35
-5168.688
-5110.361
-5058.7795
-4995.0913
-4918.6243
-4833.0923
-5686.2411
-5634.0605
-5642.8499
-5553.6105
-5522.6998
-5444.25
-5373.4126
-5290.7722
-5200.5963
-5117.8309
-6108.2184
-6038.9897
-6048.8112
-5934.6119
-5891.0649
-5790.4543
-5695.9334
-5585.7184
-5460.2196
-5324.4254
-6551.419
-6461.2253
-6473.636
-6331.7996
-6274.484
-6151.4178
-6033.1177
-5898.8377
-5749.0604
-5587.1197
-7021.98
-6904.7428
-6920.4926
-6746.8312
-6672.6356
-6524.8833
-6378.8602
-6216.487
-6037.8419
-5851.8016
-7518.783
-7368.4467
-7390.5558
-7181.9507
-7087.7474
-6913.5444
-6735.6408
-6539.4288
-6320.674
-6083.2523
-8060.1605
-7865.3886
-7894.3337
-7644.9731