/*--------------------------------*- C++ -*----------------------------------*\
| =========                 |                                                 |
| \\      /  F ield         | foam-extend: Open Source CFD                    |
|  \\    /   O peration     | Version:     4.1                                |
|   \\  /    A nd           | Web:         http://www.foam-extend.org         |
|    \\/     M anipulation  |                                                 |
\*---------------------------------------------------------------------------*/
FoamFile
{
    version     2.0;
    format      ascii;
    class       volScalarField;
    location    "1.4";
    object      rAU;
}
// * * * * * * * * * * * * * * * * * * * * * * * * * * * * * * * * * * * * * //

dimensions      [0 0 1 0 0 0 0];

internalField   nonuniform List<scalar> 
4393
(
0.0002276405
0.0002272677
0.00022690265
0.00022652974
0.00022614686
0.00022575259
0.00022534454
0.00022492152
0.00022448268
0.00022402781
0.0002235575
0.00022307324
0.00022257753
0.00022207388
0.00022156666
0.00022106199
0.00022056566
0.00022008465
0.0002196266
0.00021919908
0.00021880986
0.00021846661
0.00021817686
0.00021794782
0.00021778615
0.00021769781
0.00021768747
0.00021768747
0.00021775843
0.00021791182
0.00021814581
0.00021845543
0.00021883247
0.0002192659
0.00021974245
0.00022024759
0.00022076649
0.00022128497
0.00022179018
0.00022227113
0.00022271883
0.00022312634
0.00022348859
0.00022380213
0.00022406486
0.00022427579
0.00022443498
0.00022454296
0.00022458508
0.00022450909
0.00022418957
0.00022388497
0.0002235713
0.00022324581
0.00022290685
0.00022255218
0.00022218094
0.00022179272
0.00022138786
0.00022096763
0.0002205343
0.00022009122
0.00021964285
0.00021919449
0.00021875315
0.00021832541
0.00021791888
0.00021754163
0.00021720152
0.00021690641
0.00021666402
0.00021648177
0.0002163667
0.00021632514
0.00021636251
0.00021644979
0.0002164227
0.00021646528
0.00021659157
0.00021680309
0.0002170983
0.00021747206
0.0002179156
0.00021841696
0.00021896185
0.00021953479
0.00022012027
0.00022070371
0.00022127218
0.00022181478
0.00022232281
0.00022278967
0.0002232106
0.00022358237
0.00022390282
0.00022417107
0.00022438863
0.00022454271
0.00022400509
0.00022369735
0.00022339813
0.00022308734
0.00022276226
0.00022242138
0.00022206269
0.00022168561
0.00022129013
0.00022087713
0.0002204485
0.00022000729
0.00021955772
0.00021910523
0.00021865612
0.0002182184
0.00021779954
0.00021740788
0.00021705204
0.0002167402
0.00021648042
0.00021628049
0.00021614781
0.00021608935
0.00021611128
0.00021621867
0.00021630787
0.00021618813
0.0002161492
0.00021619811
0.00021633979
0.00021657593
0.00021690397
0.00021731677
0.00021780279
0.00021834711
0.0002189328
0.00021954236
0.00022015902
0.00022076769
0.00022135553
0.00022191218
0.00022242971
0.00022290238
0.0002233262
0.00022369853
0.00022401827
0.00022428554
0.00022448063
0.00022365081
0.00022334844
0.00022304912
0.00022273518
0.00022240416
0.00022205476
0.00022168511
0.00022129489
0.00022088441
0.000220455
0.00022000914
0.00021955062
0.00021908455
0.00021861742
0.00021815666
0.00021771142
0.00021729026
0.00021690244
0.00021655726
0.00021626342
0.00021602928
0.00021586281
0.00021577158
0.00021576267
0.00021584238
0.00021601576
0.00021610096
0.00021589512
0.00021577181
0.0002157416
0.0002158132
0.00021599185
0.00021627768
0.00021666497
0.00021714218
0.00021769317
0.00021829891
0.0002189394
0.00021959529
0.0002202491
0.00022088598
0.00022149396
0.00022206391
0.00022258924
0.00022306545
0.00022348972
0.00022386082
0.00022417778
0.00022442245
0.00022328996
0.00022299173
0.00022269272
0.00022237595
0.00022203914
0.00022168111
0.00022130014
0.00022089606
0.00022046944
0.00022002201
0.00021955678
0.00021907823
0.00021859241
0.00021810687
0.00021763029
0.00021717312
0.00021674515
0.00021635668
0.00021601781
0.00021573776
0.00021552525
0.00021538845
0.00021533518
0.00021537278
0.00021550789
0.00021574591
0.00021583795
0.00021554157
0.00021532992
0.00021521759
0.00021521769
0.00021533956
0.00021558632
0.00021595353
0.00021642916
0.00021699512
0.00021762952
0.00021830914
0.00021901157
0.00021971667
0.00022040746
0.00022107042
0.00022169534
0.00022227502
0.00022280462
0.00022328132
0.0002237038
0.0002240709
0.00022436676
0.00022291332
0.00022261976
0.00022232211
0.00022200347
0.00022166166
0.00022129556
0.00022090348
0.00022048538
0.00022004201
0.00021957537
0.00021908895
0.00021858792
0.0002180792
0.00021757152
0.00021707494
0.00021660135
0.00021616199
0.00021576836
0.00021543145
0.00021516103
0.00021496614
0.0002148552
0.00021483627
0.00021491715
0.0002151051
0.0002154063
0.00021552035
0.00021512761
0.00021482197
0.00021462271
0.00021454821
0.00021461273
0.00021482291
0.00021517553
0.00021565748
0.00021624775
0.00021692056
0.00021764864
0.00021840586
0.0002191691
0.00021991914
0.00022064096
0.00022132352
0.00022195918
0.00022254312
0.00022307272
0.00022354686
0.00022396482
0.00022431254
0.00022252137
0.00022223317
0.0002219379
0.0002216184
0.00022127244
0.00022089886
0.00022049597
0.00022006371
0.00021960291
0.00021911579
0.0002186062
0.00021807992
0.0002175448
0.0002170108
0.0002164895
0.00021599454
0.00021553881
0.00021513523
0.00021479576
0.00021453075
0.00021434947
0.00021426051
0.00021427223
0.00021439298
0.00021463099
0.00021499371
0.00021515019
0.00021465378
0.00021424667
0.00021395361
0.00021379945
0.00021380467
0.00021398024
0.0002143242
0.00021482153
0.00021544705
0.00021616978
0.00021695723
0.00021777885
0.00021860809
0.0002194234
0.0002202084
0.00022095138
0.00022164463
0.0002222836
0.00022286615
0.0002233917
0.00022386037
0.00022425952
0.00022211613
0.00022183464
0.00022154294
0.00022122359
0.00022087432
0.00022049386
0.0002200804
0.00021963376
0.00021915476
0.00021864567
0.00021811062
0.00021755594
0.00021699036
0.00021642516
0.00021587371
0.00021535167
0.00021487397
0.00021445519
0.00021410837
0.00021384436
0.00021367255
0.00021360154
0.00021363993
0.00021379675
0.00021408151
0.00021450355
0.00021472903
0.00021412
0.00021360173
0.00021320546
0.00021296412
0.00021290631
0.00021304861
0.00021339042
0.00021391371
0.00021458744
0.0002153736
0.00021623312
0.00021713008
0.00021803409
0.00021892125
0.00021977398
0.00022058026
0.00022133264
0.00022202721
0.0002226626
0.00022323912
0.00022375793
0.00022420765
0.00022169929
0.00022142535
0.0002211383
0.00022082018
0.00022046853
0.00022008188
0.00021965819
0.00021919707
0.00021869912
0.00021816656
0.00021760365
0.00021701712
0.00021641659
0.00021581476
0.00021522702
0.00021467151
0.00021416566
0.00021372606
0.00021336695
0.00021309954
0.00021293309
0.00021287596
0.00021293682
0.00021312543
0.00021345293
0.00021393127
0.00021425979
0.00021352734
0.00021288566
0.00021237363
0.00021203449
0.00021190764
0.00021201735
0.00021236455
0.00021292665
0.00021366428
0.00021453006
0.00021547653
0.00021646134
0.00021744986
0.00021841589
0.00021934095
0.00022021318
0.00022102585
0.0002217761
0.00022246375
0.00022309028
0.0002236581
0.0002241571
0.00022127285
0.00022100835
0.00022072737
0.00022041166
0.00022005866
0.00021966659
0.0002192331
0.00021875742
0.00021823979
0.00021768217
0.00021708873
0.0002164665
0.0002158259
0.00021518112
0.00021454992
0.00021395348
0.00021341239
0.00021294576
0.00021256915
0.00021229393
0.00021212877
0.00021208137
0.00021216016
0.00021237561
0.00021274084
0.00021327117
0.00021374583
0.0002128772
0.00021209684
0.00021145263
0.00021100092
0.000210796
0.00021087295
0.0002112346
0.00021185146
0.00021267234
0.00021363729
0.00021468819
0.00021577509
0.00021685881
0.00021791104
0.00021891296
0.00021985344
0.00022072709
0.00022153261
0.00022227137
0.00022294641
0.00022356157
0.00022410814
0.00022083945
0.00022058498
0.00022031117
0.00021999907
0.00021964581
0.00021924924
0.00021880653
0.0002183164
0.00021777852
0.00021719432
0.00021656769
0.0002159057
0.00021521942
0.0002145246
0.00021384175
0.00021319587
0.00021261166
0.00021211142
0.00021171219
0.0002114251
0.00021125756
0.00021121593
0.00021130795
0.00021154459
0.00021194124
0.00021251751
0.0002131925
0.00021217276
0.00021123493
0.00021043717
0.00020985262
0.00020955634
0.00020959926
0.00020998672
0.00021067865
0.00021160706
0.000212695
0.0002138709
0.00021507598
0.00021626638
0.0002174122
0.00021849509
0.00021950548
0.00022044003
0.00022129959
0.00022208763
0.00022280899
0.00022346923
0.00022406113
0.00022040006
0.00022015818
0.00021989331
0.00021958633
0.0002192342
0.00021883435
0.00021838336
0.00021787923
0.00021732081
0.00021670874
0.00021604626
0.0002153402
0.00021460201
0.00021384897
0.00021310475
0.00021239921
0.00021176253
0.00021122124
0.00021079405
0.00021049122
0.00021031791
0.00021027817
0.00021037832
0.00021062948
0.00021104947
0.00021166322
0.00021249066
0.00021141857
0.00021030074
0.00020932195
0.00020857676
0.00020816974
0.00020817581
0.00020860386
0.00020939744
0.00021046428
0.00021170443
0.00021302953
0.00021437078
0.00021567992
0.00021692645
0.00021809365
0.0002191746
0.00022016895
0.00022108041
0.00022191498
0.00022267973
0.00022338209
0.00022401654
0.00021995989
0.00021973068
0.00021947581
0.00021917528
0.00021882565
0.00021842379
0.00021796556
0.00021744803
0.00021686897
0.00021622784
0.00021552683
0.00021477209
0.0002139751
0.00021315444
0.00021233738
0.00021156007
0.00021086017
0.00021026998
0.00020981015
0.00020948905
0.00020930803
0.00020926738
0.00020937096
0.00020962939
0.00021006287
0.00021070264
0.00021158867
0.00021062268
0.00020929771
0.00020810269
0.0002071587
0.0002066125
0.0002065765
0.00020706522
0.00020799594
0.00020924109
0.0002106695
0.00021217212
0.00021366932
0.0002151094
0.00021646291
0.00021771645
0.00021886722
0.00021991891
0.00022087889
0.00022175623
0.00022256054
0.00022330132
0.00022397492
0.00021951763
0.00021930444
0.00021906176
0.00021876964
0.00021842447
0.00021802258
0.00021755898
0.00021702959
0.00021643078
0.00021576038
0.00021501899
0.00021421149
0.00021334875
0.0002124502
0.00021154697
0.00021068328
0.00020990724
0.00020925933
0.00020876245
0.0002084215
0.0002082316
0.00020818741
0.00020828905
0.00020854574
0.00020897973
0.00020962956
0.00021054814
0.00020979683
0.00020823282
0.00020677699
0.00020558174
0.00020485417
0.00020476706
0.00020534472
0.00020646108
0.00020793668
0.0002095979
0.00021131084
0.00021298515
0.00021456778
0.00021603294
0.0002173729
0.00021859079
0.00021969566
0.00022069932
0.00022161446
0.00022245351
0.00022322822
0.00022393686
0.00021908404
0.00021888633
0.00021865688
0.00021837474
0.00021803584
0.0002176358
0.00021716866
0.00021662894
0.00021601124
0.00021531125
0.00021452727
0.00021366214
0.00021272527
0.00021173601
0.00021072933
0.00020975991
0.00020889088
0.00020817475
0.00020763732
0.00020727754
0.00020708072
0.00020703313
0.00020712957
0.00020737639
0.00020779674
0.00020843689
0.00020936549
0.00020895756
0.00020711827
0.00020534622
0.00020382766
0.00020285518
0.00020270117
0.00020340932
0.00020477896
0.00020655391
0.00020850289
0.00021046355
0.00021233661
0.0002140716
0.00021565037
0.00021707401
0.00021835378
0.00021950552
0.00022054633
0.00022149296
0.00022236088
0.00022316415
0.00022390302
0.00021865063
0.0002184724
0.00021825859
0.00021798867
0.00021765852
0.00021726314
0.00021679548
0.00021624851
0.00021561469
0.00021488697
0.00021406052
0.00021313514
0.00021211757
0.00021102552
0.00020989683
0.00020879941
0.00020781832
0.00020702411
0.00020644624
0.0002060734
0.0002058752
0.00020582566
0.0002059126
0.00020613805
0.00020652426
0.00020712558
0.0002080301
0.00020813054
0.00020597449
0.00020381865
0.0002018784
0.0002005637
0.00020031437
0.00020121666
0.00020293569
0.00020510193
0.00020740598
0.00020965567
0.00021174791
0.00021364151
0.00021533165
0.00021683231
0.00021816549
0.00021935525
0.00022042476
0.00022139511
0.0002222849
0.00022311051
0.00022387407
0.00021824026
0.00021808033
0.00021788328
0.00021762765
0.00021730891
0.0002169213
0.00021645658
0.00021590591
0.00021525917
0.00021450585
0.00021363687
0.00021264754
0.0002115404
0.00021032895
0.00020905143
0.00020779177
0.00020666786
0.00020577866
0.00020515877
0.00020478037
0.0002045886
0.00020454051
0.0002046163
0.00020481255
0.00020514687
0.00020567978
0.00020652158
0.00020734432
0.00020483107
0.00020221469
0.00019972081
0.00019791257
0.00019751381
0.00019871202
0.00020091954
0.00020360061
0.00020634082
0.00020892282
0.00021125048
0.00021330265
0.00021509574
0.00021666161
0.00021803575
0.00021925176
0.0002203394
0.0002213242
0.00022222781
0.00022306868
0.00022385068
0.0002178323
0.00021769489
0.00021751697
0.0002172779
0.00021697333
0.0002165969
0.00021613914
0.00021558931
0.00021493448
0.00021416012
0.0002132517
0.00021219851
0.00021099704
0.00020965332
0.00020820058
0.00020674041
0.00020544041
0.00020444549
0.00020379701
0.00020343982
0.00020327924
0.00020324744
0.00020331677
0.00020347715
0.0002037341
0.00020414975
0.00020486129
0.00020604286
0.00020374779
0.00020058193
0.00019735958
0.00019482049
0.00019416316
0.00019582594
0.00019872547
0.00020208772
0.00020535889
0.00020831398
0.0002108842
0.00021308479
0.00021496376
0.00021657645
0.0002179744
0.0002192017
0.00022029475
0.00022128328
0.00022219159
0.00022303991
0.00022383348
0.00021748446
0.00021736787
0.00021721044
0.00021699085
0.0002167046
0.00021634471
0.00021590054
0.00021535937
0.00021470523
0.00021391883
0.00021297859
0.00021186515
0.00021056621
0.00020907575
0.00020741152
0.00020568931
0.00020415282
0.00020302449
0.00020235431
0.00020204354
0.00020193276
0.00020191948
0.00020197363
0.00020208428
0.00020223566
0.00020248544
0.00020300279
0.00020403447
0.00020279171
0.00019901247
0.00019485738
0.00019121756
0.00019006631
0.0001924747
0.00019636391
0.00020063087
0.0002045378
0.00020789543
0.00021069843
0.00021302195
0.00021495812
0.00021659123
0.00021799065
0.00021921096
0.00022029463
0.00022127486
0.00022217793
0.00022302526
0.00022382301
0.0002172178
0.00021712641
0.00021699338
0.00021679778
0.00021653541
0.00021619877
0.00021577604
0.00021525252
0.00021460904
0.00021382119
0.00021285908
0.0002116919
0.00021029602
0.00020865007
0.00020674084
0.00020468322
0.00020283776
0.00020156501
0.0002009215
0.00020073986
0.00020075156
0.000200805
0.000200879
0.000200976
0.00020103328
0.00020108037
0.00020131478
0.00020204624
0.0002023374
0.00019783324
0.00019245979
0.00018713118
0.0001849648
0.00018857776
0.00019388722
0.00019935034
0.0002039941
0.00020775516
0.00021075213
0.00021315092
0.00021510083
0.00021671887
0.00021809203
0.00021928401
0.00022034178
0.00022130069
0.00022218798
0.00022302549
0.00022381969
0.00021727808
0.00021721475
0.00021711212
0.00021694822
0.00021671925
0.00021641745
0.00021603038
0.00021554198
0.00021493061
0.00021416739
0.00021321362
0.00021202353
0.00021055684
0.00020877305
0.00020660452
0.00020411718
0.00020184194
0.00020040332
0.00019984545
0.0001999022
0.00020011421
0.00020026014
0.00020034469
0.00020042356
0.00020034319
0.00020007028
0.00019986127
0.00020008259
0.00020118126
0.00019740925
0.00019066693
0.00018292168
0.0001786192
0.0001841685
0.00019147227
0.00019845675
0.00020389906
0.0002080058
0.00021111165
0.00021350803
0.00021541087
0.00021696894
0.00021828327
0.00021942317
0.0002204374
0.00022136148
0.00022222224
0.00022304098
0.00022382378
0.0002180372
0.0002180087
0.00021795095
0.00021783679
0.00021766248
0.00021742017
0.00021709736
0.00021667724
0.00021613603
0.00021544042
0.00021454191
0.00021337426
0.00021187015
0.00020996806
0.00020752903
0.00020446728
0.00020154079
0.00019994457
0.00019962589
0.00020019738
0.0002008257
0.00020119313
0.00020135341
0.000201543
0.00020146351
0.00020090496
0.00020028831
0.00019983693
0.00020078886
0.00019976736
0.00019130037
0.00018002457
0.00017095168
0.00017966149
0.00018948305
0.00019827546
0.00020449199
0.00020878355
0.0002118444
0.00021412332
0.00021590016
0.00021734528
0.00021856494
0.00021962791
0.00022058078
0.00022145669
0.00022228043
0.00022307168
0.00022383532
0.00022068922
0.00022073746
0.0002207672
0.00022074651
0.00022067357
0.00022054145
0.00022033889
0.00022005001
0.0002196511
0.00021910739
0.00021836512
0.00021733998
0.00021592944
0.00021405069
0.00021150357
0.00020783799
0.0002039553
0.00020244189
0.00020277562
0.00020451233
0.0002060018
0.00020688169
0.00020726664
0.00020791282
0.00020825953
0.00020728861
0.00020615301
0.00020429287
0.0002049378
0.00020347742
0.00019649956
0.00018118295
0.00016222375
0.00017631141
0.000188701
0.00019950041
0.00020615228
0.00021024915
0.00021300638
0.00021501105
0.0002165683
0.00021784339
0.0002189322
0.00021989425
0.000220769
0.00022158436
0.00022236137
0.000223117
0.00022385413
0.00022645809
0.00022660026
0.00022676158
0.0002268878
0.00022697673
0.0002270235
0.00022702098
0.00022695835
0.00022681726
0.00022656809
0.00022615981
0.00022549477
0.0002244108
0.00022274351
0.00022024796
0.00021580777
0.00020964657
0.00020833992
0.00020954431
0.00021344999
0.0002164188
0.00021828612
0.0002188531
0.0002202923
0.00022199008
9.2975527e-05
9.5434375e-05
9.7684864e-05
9.9869884e-05
0.00010286611
9.4456632e-05
8.620309e-05
0.00010656755
0.00017933769
0.00019343667
0.0002041305
0.00020945757
0.00021253732
0.0002146078
0.00021615389
0.0002173962
0.00021844802
0.00021937399
0.00022021448
0.00022099686
0.00022174115
0.00022246305
0.00022317586
0.00022387979
0.00023930771
0.00023975146
0.00024024737
0.00024072817
0.00024120307
0.00024167623
0.00024215243
0.00024263536
0.00024312376
0.00024360673
0.0002440513
0.00024436453
0.00024432616
0.00024360109
0.0002419702
0.00023803157
0.00022686205
0.0002293952
0.00023545944
0.00024984248
0.00026109716
0.00026982339
0.00012816607
0.00016645059
0.00032119119
0.00046102341
0.00049956686
0.00049956686
0.00049956686
0.00049956686
0.00049956686
0.00045031626
0.00033650351
6.8076096e-05
0.00021297875
0.00021346489
0.00021438213
0.00021549717
0.00021653873
0.00021748297
0.00021834133
0.00021913245
0.00021987316
0.00022057747
0.00022125714
0.00022192243
0.00022258264
0.00022324671
0.00022391165
0.00026441458
0.00026541212
0.0002665535
0.00026773699
0.00026898325
0.00027031686
0.00027177188
0.00027339116
0.00027522754
0.00027734801
0.00027983798
0.00028279304
0.000286312
0.0002904417
0.00029500421
0.00030201363
0.00027342056
0.00030479111
0.00035604244
0.00037116542
0.00027876566
0.00032431543
0.00049956686
0.00049956686
0.00049956686
0.00049956686
0.00049956686
0.00049956686
0.00049956686
0.00049956686
0.00041263111
0.00041826462
0.0001020374
0.00026660376
0.00023114672
0.00022210144
0.00021927869
0.00021853759
0.00021855651
0.00021888359
0.0002193429
0.0002198616
0.00022040826
0.00022096961
0.00022154108
0.00022212259
0.00022271667
0.0002233276
0.00022394887
0.00030217981
0.00030430389
0.00030641636
0.00030860117
0.00031093306
0.00031348498
0.00031634304
0.00031962065
0.00032347732
0.00032815665
0.00033405474
0.00034174718
0.00035178905
0.00036479504
0.00038496604
0.00040198302
0.00025757657
0.00025394068
0.00026546527
0.00049030167
0.00047836097
0.0004881745
0.00047869875
0.00047372176
0.00047746481
0.00045865695
0.00045171801
0.00045351471
0.00044093398
0.00043651769
0.00010691588
0.00010766815
0.00021976687
0.00025235483
0.0002369537
0.00022741475
0.00022311905
0.00022122167
0.00022045153
0.00022024644
0.00022033958
0.00022059899
0.00022095661
0.0002213764
0.00022183924
0.00022233552
0.0002228613
0.00022341629
0.00022399043
0.00028854731
0.00028907058
0.00028927339
0.00028947451
0.00028967506
0.0002899063
0.00029019375
0.00029057388
0.00029109931
0.00029184736
0.00029293985
0.00029399839
0.00029496249
0.00029573098
0.00029311826
0.00010300506
0.0003762916
0.00047088823
0.0004729836
0.00049383143
0.00048613491
0.0004824483
0.00012421194
0.00012128038
0.00010076903
0.00010005203
0.00010062688
0.00010197045
0.00010292477
0.00010451879
0.00020120312
0.00020767039
0.00021807305
0.00023900541
0.00023963486
0.00023076519
0.0002259608
0.00022341946
0.00022211033
0.00022149443
0.00022128162
0.0002213125
0.00022149719
0.00022178386
0.00022214228
0.00022255502
0.00022301254
0.00022351041
0.00022403523
0.00022324344
0.00022307985
0.00022279631
0.00022252182
0.00022226404
0.00022204005
0.00022186581
0.00022176466
0.0002217689
0.00022192337
0.00022229296
0.00022208875
0.00022116026
0.00021941962
0.00021674178
0.00021316169
9.589914e-05
9.9117026e-05
9.9865802e-05
9.9771193e-05
0.00010014657
0.00010017326
0.00021253565
0.00021080891
0.0002089244
0.00020553809
0.0002044294
0.00020387283
0.00020210177
0.00020211968
0.00020329963
0.0002090049
0.00021822721
0.00023216666
0.00023801976
0.00023248523
0.00022786016
0.00022509171
0.00022347798
0.00022258075
0.00022213402
0.00022197718
0.00022201247
0.00022217972
0.00022244166
0.00022277521
0.00022316647
0.0002236076
0.00022408214
0.00021926075
0.00021934017
0.00021946522
0.00021959925
0.00021975347
0.00021994001
0.00022017145
0.00022046384
0.00022083644
0.000221312
0.00022184718
0.0002215559
0.000220803
0.00021957071
0.00021779983
0.00021499051
0.00021252884
0.00021404572
0.0002158904
0.00021420615
0.00021237436
0.000211209
0.0002100531
0.00020833092
0.00020729701
0.00020567962
0.00020477342
0.00020419895
0.00020347307
0.00020394165
0.00020592529
0.00021088103
0.00021854036
0.00022810049
0.00023382501
0.00023318498
0.00022902311
0.00022628808
0.0002245501
0.00022348638
0.00022287689
0.00022257621
0.00022248931
0.00022255412
0.00022273011
0.00022299088
0.00022331952
0.00022370557
0.00022413005
0.00021788582
0.00021796415
0.00021808776
0.0002182248
0.00021837819
0.00021855548
0.00021876519
0.00021901837
0.00021932749
0.00021970621
0.00021996523
0.00021947527
0.00021872008
0.00021764921
0.00021622513
0.00021439541
0.00021327434
0.00021412444
0.00021526802
0.00021348462
0.000211893
0.0002106748
0.00020951893
0.00020830412
0.00020734949
0.00020629067
0.00020564037
0.0002052798
0.00020520544
0.00020608107
0.00020832443
0.00021261323
0.00021875196
0.00022560789
0.00023029403
0.00023231157
0.00022962955
0.00022708325
0.00022534919
0.00022421171
0.00022350271
0.00022310034
0.00022291909
0.0002228998
0.00022300188
0.00022319766
0.00022346854
0.00022380227
0.0002241779
0.00021720922
0.00021732863
0.00021746656
0.00021761581
0.00021778236
0.00021797266
0.00021819287
0.00021845049
0.0002187525
0.00021910426
0.00021920143
0.00021876023
0.00021811122
0.00021722409
0.00021607859
0.00021482449
0.00021420315
0.000214707
0.00021502438
0.00021340005
0.00021200436
0.00021085357
0.00020979685
0.00020881575
0.00020799598
0.00020726065
0.00020684223
0.00020672753
0.00020702369
0.00020811672
0.00021032891
0.00021398599
0.00021886435
0.00022400355
0.00022785775
0.00023021406
0.00022984855
0.00022756122
0.00022591231
0.00022476977
0.00022401321
0.00022354655
0.00022329724
0.0002232121
0.00022325283
0.00022339214
0.00022361093
0.00022389594
0.00022422479
0.00021691989
0.00021699139
0.00021710573
0.00021723924
0.00021739006
0.00021756172
0.00021775801
0.00021798381
0.00021824298
0.00021853699
0.00021851096
0.00021812335
0.00021759311
0.00021690847
0.00021608217
0.00021529193
0.00021498187
0.00021537084
0.00021498124
0.00021358279
0.0002123592
0.00021131392
0.00021038132
0.00020956147
0.00020888752
0.00020836967
0.00020812909
0.0002082022
0.00020870604
0.00020988167
0.00021194702
0.00021504474
0.00021894526
0.00022293812
0.00022613439
0.00022829959
0.00022929957
0.00022779561
0.00022627992
0.00022518005
0.00022441614
0.00022391649
0.00022362251
0.0002234886
0.00022348027
0.00022357186
0.00022374466
0.00022398511
0.00022426991
0.00021677782
0.00021688926
0.00021701318
0.00021714726
0.00021729552
0.00021746105
0.00021764554
0.00021785086
0.00021807705
0.00021832092
0.00021823758
0.00021789066
0.0002174405
0.00021689171
0.00021628449
0.00021577771
0.00021563768
0.00021595706
0.0002150346
0.0002138475
0.00021278596
0.00021186119
0.00021105291
0.00021036876
0.00020983173
0.00020947441
0.00020937212
0.00020957745
0.00021019179
0.00021137119
0.00021325155
0.00021587743
0.00021903739
0.0002222287
0.00022490386
0.00022685289
0.00022808686
0.00022785227
0.00022649163
0.00022546469
0.00022472273
0.00022421496
0.00022389616
0.00022372875
0.00022368285
0.00022373524
0.00022386828
0.00022406866
0.00022431263
0.00021670427
0.00021677289
0.00021687782
0.00021699963
0.00021713585
0.00021728762
0.0002174551
0.00021763851
0.00021783594
0.0002180419
0.00021795758
0.000217674
0.0002173199
0.00021690835
0.00021648777
0.00021618291
0.00021615805
0.00021616626
0.00021512745
0.00021412828
0.00021321857
0.00021241812
0.00021172949
0.00021116608
0.00021075068
0.00021051887
0.00021052511
0.00021082201
0.00021148967
0.00021262975
0.00021432027
0.00021655498
0.00021915267
0.00022176023
0.00022401973
0.00022575689
0.00022694611
0.00022750496
0.00022658163
0.00022564543
0.00022494563
0.00022444869
0.00022412122
0.00022393345
0.00022386031
0.00022388147
0.00022398084
0.00022414579
0.00022435247
0.00021665112
0.00021674126
0.00021684667
0.00021696139
0.00021708702
0.00021722454
0.00021737308
0.00021753144
0.00021769628
0.00021786084
0.00021778691
0.00021755046
0.00021726969
0.00021696349
0.00021667958
0.0002165114
0.0002165639
0.00021609515
0.0002152416
0.00021440667
0.00021363709
0.00021295784
0.00021238278
0.00021192925
0.00021162077
0.00021149055
0.00021158152
0.00021194001
0.00021262613
0.00021370504
0.00021521625
0.00021712926
0.00021929516
0.00022146353
0.00022338881
0.0002249307
0.00022604929
0.00022677457
0.00022658008
0.00022574257
0.00022509773
0.00022462531
0.00022430186
0.0002241046
0.00022401322
0.00022401041
0.00022408189
0.00022421598
0.0002243891
0.00021661882
0.00021668416
0.00021677782
0.0002168839
0.00021700022
0.00021712648
0.00021726082
0.00021740105
0.00021754283
0.00021767868
0.00021763875
0.00021745204
0.0002172396
0.00021702252
0.00021684352
0.00021677209
0.000216703
0.00021607549
0.00021537452
0.00021468227
0.00021404013
0.00021347491
0.00021300567
0.00021265193
0.00021243698
0.0002123904
0.0002125471
0.0002129452
0.00021362827
0.00021463652
0.00021598509
0.00021763392
0.00021946319
0.00022129221
0.00022294603
0.00022431293
0.00022534965
0.00022606578
0.00022637932
0.00022577363
0.00022519116
0.00022475268
0.00022444279
0.00022424483
0.00022414282
0.00022412244
0.00022417135
0.000224279
0.00022442231
0.00021659495
0.00021666615
0.00021675535
0.0002168527
0.00021695787
0.00021707049
0.00021718827
0.00021730853
0.00021742663
0.00021753518
0.00021752904
0.00021738385
0.00021722738
0.00021708056
0.00021697967
0.00021694398
0.00021663109
0.00021609774
0.00021552455
0.00021495646
0.00021442925
0.00021396927
0.00021359736
0.00021333366
0.00021320035
0.00021322316
0.00021343058
0.00021385269
0.00021451998
0.00021545566
0.00021666015
0.00021809163
0.00021965445
0.00022121563
0.00022264674
0.00022385902
0.00022481093
0.00022550068
0.00022595257
0.0002257539
0.00022523702
0.0002248384
0.00022454897
0.00022435713
0.00022425076
0.00022421833
0.00022424946
0.00022433483
0.00022445203
0.00021658391
0.00021664289
0.00021672438
0.0002168144
0.00021691101
0.00021701324
0.00021711836
0.00021722338
0.00021732356
0.0002174119
0.00021744063
0.00021733257
0.0002172232
0.00021713214
0.00021708948
0.00021695589
0.00021658866
0.00021615462
0.00021568996
0.00021523027
0.0002148061
0.00021444207
0.00021415885
0.00021397604
0.00021391398
0.00021399475
0.00021424136
0.00021467673
0.00021532138
0.00021618702
0.00021726571
0.00021851765
0.00021986651
0.00022121246
0.00022245898
0.00022353538
0.00022440402
0.00022505718
0.00022550858
0.0002256641
0.00022524503
0.0002248896
0.00022462532
0.00022444471
0.00022433898
0.00022429916
0.00022431671
0.00022438362
0.00022447827
0.0002165801
0.00021663772
0.00021671369
0.00021679601
0.00021688333
0.00021697466
0.00021706715
0.00021715779
0.00021724204
0.00021731358
0.00021735766
0.00021729385
0.00021722266
0.00021717477
0.0002171067
0.00021688852
0.00021658859
0.00021623914
0.0002158679
0.00021550333
0.00021517136
0.00021489425
0.00021469142
0.00021458111
0.00021458146
0.00021471106
0.00021498821
0.0002154298
0.00021604885
0.00021684947
0.00021781927
0.00021892215
0.0002200969
0.00022126721
0.00022235916
0.00022331623
0.00022410542
0.0002247163
0.00022515587
0.00022544225
0.00022522355
0.00022491269
0.0002246765
0.00022451079
0.00022440959
0.00022436617
0.00022437376
0.00022442567
0.00022450112
0.00021658475
0.00021663597
0.00021670621
0.00021678211
0.00021686181
0.00021694418
0.0002170263
0.00021710531
0.00021717701
0.00021723589
0.00021727487
0.00021726048
0.00021721982
0.00021717014
0.00021705126
0.00021686213
0.00021662152
0.00021634537
0.00021605546
0.00021577485
0.00021552545
0.00021532689
0.0002151968
0.00021515156
0.00021520692
0.00021537825
0.0002156797
0.00021612326
0.0002167164
0.00021745821
0.00021833434
0.0002193128
0.0002203442
0.00022136924
0.00022233045
0.00022318245
0.00022389693
0.00022446269
0.00022488258
0.00022516917
0.00022517993
0.00022491348
0.00022470691
0.00022455854
0.00022446473
0.00022442074
0.00022442142
0.00022446136
0.00022452073
0.0002165953
0.00021664334
0.00021670868
0.00021677838
0.0002168508
0.0002169248
0.00021699759
0.00021706654
0.00021712793
0.00021717708
0.00021720822
0.00021721469
0.00021718934
0.00021712535
0.00021701779
0.00021686717
0.00021667945
0.00021646766
0.00021624934
0.00021604331
0.00021586804
0.00021574056
0.00021567639
0.00021568981
0.00021579414
0.00021600174
0.00021632321
0.00021676654
0.00021733508
0.00021802473
0.00021882058
0.00021969461
0.00022060666
0.00022151002
0.00022235948
0.00022311853
0.00022376321
0.00022428273
0.00022467756
0.00022495646
0.00022509765
0.00022489693
0.00022472047
0.00022459092
0.00022450652
0.00022446427
0.0002244605
0.00022449112
0.00022453726
0.00021661122
0.00021665535
0.00021671628
0.00021678069
0.00021684686
0.00021691373
0.00021697865
0.00021703932
0.00021709257
0.00021713456
0.00021716074
0.0002171661
0.00021714556
0.00021709468
0.0002170109
0.00021689609
0.00021675593
0.00021660129
0.00021644658
0.00021630729
0.00021619892
0.00021613601
0.00021613187
0.00021619862
0.00021634715
0.00021658705
0.00021692587
0.00021736832
0.0002179147
0.00021855889
0.00021928616
0.00022007211
0.00022088383
0.0002216841
0.00022243704
0.00022311325
0.00022369278
0.00022416589
0.00022453187
0.00022479701
0.00022497224
0.00022486774