/*--------------------------------*- C++ -*----------------------------------*\
| =========                 |                                                 |
| \\      /  F ield         | foam-extend: Open Source CFD                    |
|  \\    /   O peration     | Version:     4.1                                |
|   \\  /    A nd           | Web:         http://www.foam-extend.org         |
|    \\/     M anipulation  |                                                 |
\*---------------------------------------------------------------------------*/
FoamFile
{
    version     2.0;
    format      ascii;
    class       volVectorField;
    location    "1.4";
    object      U;
}
// * * * * * * * * * * * * * * * * * * * * * * * * * * * * * * * * * * * * * //

dimensions      [0 1 -1 0 0 0 0];

internalField   nonuniform List<vector> 
4393
(
(146.05311 -0.15611027 0)
(146.60018 -0.1625499 0)
(147.01339 -0.16556872 0)
(147.45348 -0.16922364 0)
(147.90341 -0.17363575 0)
(148.3681 -0.17889091 0)
(148.84975 -0.18491146 0)
(149.35052 -0.19155175 0)
(149.87202 -0.19860685 0)
(150.41516 -0.20581455 0)
(150.97999 -0.21285552 0)
(151.56551 -0.21935646 0)
(152.16953 -0.22489882 0)
(152.78857 -0.22903451 0)
(153.41775 -0.23130885 0)
(154.05084 -0.23128828 0)
(154.68037 -0.22858785 0)
(155.29781 -0.22289262 0)
(155.8938 -0.21396881 0)
(156.45841 -0.20166413 0)
(156.98135 -0.18590126 0)
(157.4522 -0.16667022 0)
(157.8606 -0.14402642 0)
(158.19645 -0.11809919 0)
(158.45016 -0.089114314 0)
(158.613 -0.057427638 0)
(158.67763 -0.023546906 0)
(158.63883 0.011859077 0)
(158.49326 0.047715827 0)
(158.24174 0.082607276 0)
(157.88925 0.11508481 0)
(157.4451 0.14373607 0)
(156.92268 0.16733155 0)
(156.33861 0.18497761 0)
(155.71156 0.19621511 0)
(155.0609 0.20103906 0)
(154.40537 0.19984473 0)
(153.76203 0.19332488 0)
(153.14561 0.18234874 0)
(152.5681 0.16784834 0)
(152.0388 0.15072832 0)
(151.56447 0.13180462 0)
(151.14965 0.11177131 0)
(150.79712 0.091202116 0)
(150.50824 0.070601271 0)
(150.28346 0.050427249 0)
(150.12222 0.030834732 0)
(150.02092 0.011722239 0)
(149.97389 -0.0031697231 0)
(149.47623 -0.3937611 0)
(149.94411 -0.40472434 0)
(150.28927 -0.4128361 0)
(150.65813 -0.42338957 0)
(151.03665 -0.43650098 0)
(151.42982 -0.45220723 0)
(151.84 -0.47023959 0)
(152.26944 -0.49015444 0)
(152.71984 -0.51134154 0)
(153.19219 -0.53302229 0)
(153.68661 -0.55424757 0)
(154.2022 -0.57390547 0)
(154.73683 -0.59074579 0)
(155.28703 -0.60342612 0)
(155.84794 -0.6105801 0)
(156.41329 -0.61090105 0)
(156.97554 -0.60322589 0)
(157.52606 -0.58660105 0)
(158.05539 -0.56031706 0)
(158.55348 -0.52391029 0)
(159.00994 -0.47714327 0)
(159.41426 -0.41998277 0)
(159.75598 -0.35259565 0)
(160.02485 -0.27537833 0)
(160.21112 -0.18903093 0)
(160.30587 -0.094673012 0)
(160.30153 0.0060439793 0)
(160.19247 0.11087338 0)
(159.97653 0.21673399 0)
(159.65442 0.31980992 0)
(159.23087 0.4159012 0)
(158.71506 0.50080849 0)
(158.12036 0.57083806 0)
(157.46358 0.6232802 0)
(156.76362 0.65671423 0)
(156.0401 0.67107171 0)
(155.31195 0.6674765 0)
(154.59635 0.647938 0)
(153.90802 0.61498981 0)
(153.25891 0.5713505 0)
(152.6582 0.51965334 0)
(152.11252 0.4622608 0)
(151.62633 0.40116101 0)
(151.20235 0.33795719 0)
(150.84197 0.27396807 0)
(150.54552 0.21025224 0)
(150.31218 0.1470972 0)
(150.14086 0.084342405 0)
(150.03531 0.028581486 0)
(149.74119 -0.62747196 0)
(150.19392 -0.63666836 0)
(150.52814 -0.64883787 0)
(150.88518 -0.66584762 0)
(151.25193 -0.68754748 0)
(151.63344 -0.71371706 0)
(152.03222 -0.74384918 0)
(152.45064 -0.7771881 0)
(152.89052 -0.81271525 0)
(153.35299 -0.84913323 0)
(153.83836 -0.88485664 0)
(154.34586 -0.9180218 0)
(154.87351 -0.94652557 0)
(155.41796 -0.96810214 0)
(155.97441 -0.98043969 0)
(156.53658 -0.98132588 0)
(157.09687 -0.96879526 0)
(157.64658 -0.94124472 0)
(158.1761 -0.89749186 0)
(158.67531 -0.83677286 0)
(159.13372 -0.75870112 0)
(159.54074 -0.66322141 0)
(159.88578 -0.55059623 0)
(160.15844 -0.42145313 0)
(160.34868 -0.27691204 0)
(160.44718 -0.11879621 0)
(160.44583 0.050117607 0)
(160.33839 0.22593811 0)
(160.1212 0.4036001 0)
(159.79431 0.57685567 0)
(159.36219 0.73859873 0)
(158.83424 0.88162611 0)
(158.2245 0.99957488 0)
(157.55078 1.0877877 0)
(156.8332 1.1438558 0)
(156.09252 1.1677209 0)
(155.34862 1.1613778 0)
(154.6193 1.1283225 0)
(153.91961 1.0729157 0)
(153.26154 0.99979409 0)
(152.65411 0.91341008 0)
(152.10366 0.81772172 0)
(151.6143 0.71602652 0)
(151.18843 0.61093534 0)
(150.82714 0.50446624 0)
(150.53032 0.3980476 0)
(150.2967 0.29219133 0)
(150.12702 0.18720136 0)
(150.02928 0.087415395 0)
(149.83357 -0.85575718 0)
(150.27837 -0.86556414 0)
(150.608 -0.88183924 0)
(150.96023 -0.90540522 0)
(151.3224 -0.93587544 0)
(151.69969 -0.97280189 0)
(152.09477 -1.0154452 0)
(152.51023 -1.0627527 0)
(152.94809 -1.1133163 0)
(153.40973 -1.165336 0)
(153.89567 -1.2165985 0)
(154.40537 -1.2644832 0)
(154.93704 -1.3060127 0)
(155.48741 -1.3379576 0)
(156.05167 -1.3570066 0)
(156.62342 -1.359982 0)
(157.19481 -1.3440641 0)
(157.75681 -1.3069658 0)
(158.2995 -1.2470172 0)
(158.81241 -1.163153 0)
(159.28477 -1.0548356 0)
(159.70572 -0.92197099 0)
(160.0644 -0.76487285 0)
(160.35005 -0.58431984 0)
(160.55216 -0.38173458 0)
(160.66071 -0.15949208 0)
(160.66675 0.078691007 0)
(160.56304 0.32744037 0)
(160.3449 0.57952903 0)
(160.01154 0.82592738 0)
(159.56705 1.0562819 0)
(159.02112 1.2600031 0)
(158.38885 1.4276997 0)
(157.68966 1.5525287 0)
(156.94559 1.6310314 0)
(156.1792 1.6632667 0)
(155.41183 1.6523229 0)
(154.66226 1.6034544 0)
(153.946 1.5231116 0)
(153.27509 1.4180696 0)
(152.65826 1.2947627 0)
(152.1014 1.1588563 0)
(151.60807 1.0150339 0)
(151.18014 0.86697155 0)
(150.81822 0.71742879 0)
(150.52163 0.56828816 0)
(150.28881 0.42057442 0)
(150.12121 0.27534229 0)
(150.02715 0.135028 0)
(149.94242 -1.0785413 0)
(150.37915 -1.0899032 0)
(150.70345 -1.1104047 0)
(151.0503 -1.1406443 0)
(151.40745 -1.1800649 0)
(151.7802 -1.2280302 0)
(152.17145 -1.2835816 0)
(152.58402 -1.3453799 0)
(153.02022 -1.4116349 0)
(153.48176 -1.4800451 0)
(153.96946 -1.5477582 0)
(154.48308 -1.6113697 0)
(155.02107 -1.6669775 0)
(155.5803 -1.7103174 0)
(156.15593 -1.7369895 0)
(156.74136 -1.7427619 0)
(157.32842 -1.7238912 0)
(157.90759 -1.6773742 0)
(158.46849 -1.6010625 0)
(159.00019 -1.4936268 0)
(159.49157 -1.3544236 0)
(159.93142 -1.1833487 0)
(160.30858 -0.98076117 0)
(160.61186 -0.74754233 0)
(160.83016 -0.4853295 0)
(160.95258 -0.19693792 0)
(160.96903 0.11308628 0)
(160.87091 0.43798853 0)
(160.65199 0.76845468 0)
(160.31025 1.0924945 0)
(159.84911 1.3960789 0)
(159.2786 1.6646545 0)
(158.6153 1.8852426 0)
(157.88099 2.0484453 0)
(157.10043 2.1496649 0)
(156.2988 2.1892465 0)
(155.49946 2.1717081 0)
(154.72251 2.1044534 0)
(153.98404 1.9963798 0)
(153.29606 1.8566692 0)
(152.66687 1.6939017 0)
(152.10165 1.5155117 0)
(151.60321 1.3275456 0)
(151.17266 1.1346497 0)
(150.80992 0.94018404 0)
(150.5137 0.7463433 0)
(150.28219 0.55441942 0)
(150.11706 0.36561098 0)
(150.02586 0.18119569 0)
(150.07984 -1.2988075 0)
(150.50659 -1.3122142 0)
(150.82406 -1.3371268 0)
(151.1641 -1.37426 0)
(151.51489 -1.4229524 0)
(151.88188 -1.4824365 0)
(152.26823 -1.5515732 0)
(152.67706 -1.6287709 0)
(153.11105 -1.7118852 0)
(153.5723 -1.7981305 0)
(154.06205 -1.8840156 0)
(154.58048 -1.9653245 0)
(155.12634 -2.037171 0)
(155.69673 -2.094158 0)
(156.28677 -2.1306689 0)
(156.88965 -2.1412801 0)
(157.49668 -2.1212108 0)
(158.09776 -2.0666789 0)
(158.68184 -1.9750513 0)
(159.23742 -1.8447686 0)
(159.75293 -1.6751211 0)
(160.2168 -1.4660047 0)
(160.6175 -1.2177777 0)
(160.94342 -0.93130656 0)
(161.18273 -0.60825875 0)
(161.32347 -0.2516628 0)
(161.35404 0.13331939 0)
(161.26402 0.53864031 0)
(161.0451 0.95280919 0)
(160.69336 1.3605896 0)
(160.2112 1.7436734 0)
(159.60897 2.0827078 0)
(158.90525 2.3603076 0)
(158.1251 2.5639933 0)
(157.29707 2.6879315 0)
(156.44988 2.7330481 0)
(155.60962 2.7058247 0)
(154.79804 2.6164187 0)
(154.03187 2.476721 0)
(153.32297 2.2987409 0)
(152.67895 2.0934809 0)
(152.104 1.8702936 0)
(151.59984 1.6366358 0)
(151.16657 1.3980976 0)
(150.80315 1.1585761 0)
(150.50753 0.9205 0)
(150.27748 0.68520461 0)
(150.11444 0.45353245 0)
(150.02513 0.22567725 0)
(150.24649 -1.5100135 0)
(150.66169 -1.5257613 0)
(150.97083 -1.5553541 0)
(151.30247 -1.5997159 0)
(151.64537 -1.658112 0)
(152.00517 -1.7296871 0)
(152.38532 -1.8131614 0)
(152.7893 -1.9067284 0)
(153.22024 -2.0079237 0)
(153.68073 -2.1135 0)
(154.17257 -2.2193287 0)
(154.69643 -2.3203541 0)
(155.25156 -2.4106345 0)
(155.83529 -2.4835185 0)
(156.44281 -2.5320085 0)
(157.06696 -2.5493109 0)
(157.69845 -2.5294645 0)
(158.32632 -2.4678439 0)
(158.9387 -2.3613585 0)
(159.52336 -2.2083095 0)
(160.06818 -2.0080245 0)
(160.56123 -1.760464 0)
(160.99068 -1.465971 0)
(161.34446 -1.1252824 0)
(161.61001 -0.7398765 0)
(161.77408 -0.31269616 0)
(161.82321 0.15079836 0)
(161.74467 0.64152525 0)
(161.52721 1.1459245 0)
(161.16426 1.6451983 0)
(160.6565 2.1159576 0)
(160.01457 2.5328594 0)
(159.25963 2.8729087 0)
(158.42124 3.1197705 0)
(157.53313 3.2662451 0)
(156.62877 3.3142677 0)
(155.73776 3.2730293 0)
(154.88385 3.1562484 0)
(154.08441 2.9795024 0)
(153.3509 2.7581252 0)
(152.68989 2.5058358 0)
(152.10421 2.2340313 0)
(151.59416 1.9515852 0)
(151.1585 1.6649699 0)
(150.79503 1.3785416 0)
(150.50078 1.0948974 0)
(150.27284 0.81532835 0)
(150.11214 0.54028191 0)
(150.02456 0.26917213 0)
(150.44169 -1.7197906 0)
(150.84282 -1.7378941 0)
(151.142 -1.7721856 0)
(151.46359 -1.8238802 0)
(151.79702 -1.8922197 0)
(152.14809 -1.9763167 0)
(152.52061 -2.0748072 0)
(152.9185 -2.1857289 0)
(153.3454 -2.3063512 0)
(153.8045 -2.4330069 0)
(154.29828 -2.5609466 0)
(154.82812 -2.6842509 0)
(155.39383 -2.7958417 0)
(155.9932 -2.887661 0)
(156.62146 -2.9511068 0)
(157.27107 -2.977761 0)
(157.93191 -2.9602696 0)
(158.59193 -2.8930625 0)
(159.23813 -2.7726237 0)
(159.85738 -2.5972396 0)
(160.43696 -2.3664174 0)
(160.96462 -2.0802681 0)
(161.4283 -1.7390979 0)
(161.81559 -1.3433549 0)
(162.11318 -0.89402657 0)
(162.30643 -0.39355386 0)
(162.37963 0.15276477 0)
(162.31707 0.7351654 0)
(162.10364 1.3381404 0)
(161.72894 1.9390165 0)
(161.19095 2.5082982 0)
(160.50031 3.0129872 0)
(159.68159 3.422742 0)
(158.77044 3.7162834 0)
(157.80768 3.884934 0)
(156.83305 3.9323373 0)
(155.88058 3.8715049 0)
(154.97635 3.7208586 0)
(154.13822 3.5005949 0)
(153.37687 3.2300053 0)
(152.69728 2.9258688 0)
(152.10047 2.6017408 0)
(151.58487 2.2678676 0)
(151.14757 1.9314686 0)
(150.78496 1.5971826 0)
(150.49295 1.2675803 0)
(150.26784 0.94370342 0)
(150.10984 0.62550529 0)
(150.02402 0.31174176 0)
(150.66488 -1.914651 0)
(151.05042 -1.9353502 0)
(151.33805 -1.9747474 0)
(151.64787 -2.0343375 0)
(151.97007 -2.1133531 0)
(152.31069 -2.2109212 0)
(152.67392 -2.3256534 0)
(153.06415 -2.4554971 0)
(153.48565 -2.5975214 0)
(153.94236 -2.7476923 0)
(154.43758 -2.9006648 0)
(154.97356 -3.0496341 0)
(155.55092 -3.1862932 0)
(156.16806 -3.3009871 0)
(156.82036 -3.3832141 0)
(157.49984 -3.4225808 0)
(158.19527 -3.4100434 0)
(158.89316 -3.3389594 0)
(159.579 -3.2054648 0)
(160.23856 -3.0080553 0)
(160.85846 -2.7466697 0)
(161.42622 -2.4217422 0)
(161.92975 -2.0335659 0)
(162.35651 -1.5821334 0)
(162.69257 -1.0675689 0)
(162.92181 -0.49126224 0)
(163.02585 0.14229454 0)
(162.98536 0.82325833 0)
(162.78006 1.5345818 0)
(162.39411 2.2494731 0)
(161.82127 2.9310504 0)
(161.07158 3.5363127 0)
(160.17401 4.0250066 0)
(159.17264 4.3693221 0)
(158.11793 4.5590209 0)
(157.05792 4.6005357 0)
(156.03216 4.5123004 0)
(155.0693 4.3189922 0)
(154.18734 4.0466221 0)
(153.39552 3.7191934 0)
(152.69661 3.3569118 0)
(152.08912 2.9755768 0)
(151.56912 2.5867222 0)
(151.13165 2.1981428 0)
(150.7714 1.8145628 0)
(150.48301 1.4383243 0)
(150.2618 1.0700287 0)
(150.10717 0.70901691 0)
(150.02341 0.35334214 0)
(150.91582 -2.1114501 0)
(151.28245 -2.1346182 0)
(151.55668 -2.1789657 0)
(151.85283 -2.2463561 0)
(152.16193 -2.3360762 0)
(152.49022 -2.4473351 0)
(152.84229 -2.578801 0)
(153.22308 -2.7284242 0)
(153.63759 -2.8931719 0)
(154.09061 -3.0687327 0)
(154.58647 -3.249227 0)
(155.12852 -3.4269726 0)
(155.71848 -3.5923565 0)
(156.35558 -3.7339187 0)
(157.03555 -3.8388904 0)
(157.74987 -3.8944296 0)
(158.48589 -3.8893889 0)
(159.2281 -3.8158798 0)
(159.96004 -3.6698258 0)
(160.66604 -3.4502773 0)
(161.33204 -3.1579804 0)
(161.94554 -2.7939417 0)
(162.49473 -2.3584815 0)
(162.96728 -1.8509228 0)
(163.34893 -1.270034 0)
(163.62211 -0.61541162 0)
(163.76542 0.11016067 0)
(163.75513 0.8976718 0)
(163.56421 1.729191 0)
(163.16915 2.573776 0)
(162.55708 3.385651 0)
(161.73631 4.1085214 0)
(160.74153 4.6883996 0)
(159.62849 5.0886299 0)
(158.46098 5.2974631 0)
(157.298 5.3258495 0)
(156.1859 5.199995 0)
(155.15589 4.9529546 0)
(154.22548 4.6180677 0)
(153.4015 4.2249087 0)
(152.68353 3.7974446 0)
(152.0668 3.3537052 0)
(151.54443 2.9063049 0)
(151.10895 2.4633308 0)
(150.75314 2.0293009 0)
(150.47014 1.606063 0)
(150.25423 1.1935625 0)
(150.10391 0.79038979 0)
(150.02268 0.39379485 0)
(151.19261 -2.2830374 0)
(151.53932 -2.3088087 0)
(151.79854 -2.3584966 0)
(152.07917 -2.4342957 0)
(152.37321 -2.5355629 0)
(152.68713 -2.6616545 0)
(153.02594 -2.8113862 0)
(153.39521 -2.9828227 0)
(153.8007 -3.1729509 0)
(154.24825 -3.3772993 0)
(154.74343 -3.5895401 0)
(155.29095 -3.8011386 0)
(155.89398 -4.001097 0)
(156.55299 -4.1758969 0)
(157.26429 -4.3100027 0)
(158.01879 -4.3874288 0)
(158.80197 -4.3942776 0)
(159.59557 -4.3211236 0)
(160.38047 -4.1638638 0)
(161.13916 -3.9226242 0)
(161.85695 -3.5995287 0)
(162.5216 -3.1965539 0)
(163.12211 -2.7141754 0)
(163.64693 -2.150863 0)
(164.08193 -1.5034732 0)
(164.40827 -0.76888253 0)
(164.6013 0.053031468 0)
(164.63204 0.9554629 0)
(164.46478 1.9207643 0)
(164.06529 2.9141943 0)
(163.41035 3.8794812 0)
(162.5044 4.7424149 0)
(161.38945 5.4294407 0)
(160.13781 5.8915737 0)
(158.83193 6.1159063 0)
(157.54534 6.1206718 0)
(156.3325 5.9432988 0)
(155.22691 5.628097 0)
(154.24435 5.217613 0)
(153.38787 4.7479253 0)
(152.65255 4.2470111 0)
(152.02937 3.7349702 0)
(151.50778 3.2251458 0)
(151.07741 2.7255117 0)
(150.72878 2.2399967 0)
(150.45348 1.7696252 0)
(150.24465 1.3134281 0)
(150.09984 0.86906524 0)
(150.02178 0.43283454 0)
(151.49676 -2.4652543 0)
(151.81911 -2.4937026 0)
(152.06114 -2.5486852 0)
(152.32403 -2.6328398 0)
(152.60076 -2.7456709 0)
(152.89793 -2.8867634 0)
(153.221 -3.0551857 0)
(153.57616 -3.2492476 0)
(153.97007 -3.4661093 0)
(154.40977 -3.7012988 0)
(154.90229 -3.948175 0)
(155.45409 -4.1974261 0)
(156.07023 -4.4366367 0)
(156.75294 -4.6499854 0)
(157.4996 -4.8185742 0)
(158.30057 -4.9223432 0)
(159.13882 -4.9437458 0)
(159.99229 -4.8714597 0)
(160.83814 -4.7017537 0)
(161.6565 -4.4367403 0)
(162.43206 -4.0808709 0)
(163.15336 -3.6377233 0)
(163.81088 -3.1081435 0)
(164.39468 -2.4895291 0)
(164.89152 -1.7760844 0)
(165.28178 -0.96065574 0)
(165.53746 -0.038510296 0)
(165.62262 0.98765405 0)
(165.49247 2.1021901 0)
(165.09711 3.268031 0)
(164.39722 4.4169103 0)
(163.38939 5.450262 0)
(162.12493 6.265871 0)
(160.70017 6.7970329 0)
(159.22404 7.0307369 0)
(157.7894 6.9969767 0)
(156.46014 6.7495071 0)
(155.27104 6.3477564 0)
(154.23416 5.8457309 0)
(153.34671 5.2869197 0)
(152.59762 4.703347 0)
(151.9724 4.1167711 0)
(151.45607 3.5406895 0)
(151.0349 2.9823917 0)
(150.69698 2.4447231 0)
(150.43221 1.927491 0)
(150.2326 1.4285201 0)
(150.09478 0.94433491 0)
(150.02066 0.4701175 0)
(151.82284 -2.6047685 0)
(152.12071 -2.63546 0)
(152.34399 -2.6955633 0)
(152.58723 -2.7880999 0)
(152.84453 -2.912745 0)
(153.12264 -3.0694064 0)
(153.42746 -3.2575456 0)
(153.7658 -3.4759027 0)
(154.14532 -3.7220372 0)
(154.57439 -3.9917264 0)
(155.06179 -4.278253 0)
(155.6161 -4.5717037 0)
(156.24482 -4.8583071 0)
(156.95274 -5.1197454 0)
(157.73898 -5.3330371 0)
(158.59353 -5.4727093 0)
(159.49602 -5.5161206 0)
(160.41898 -5.4493564 0)
(161.33431 -5.2694993 0)
(162.21902 -4.9818446 0)
(163.05739 -4.5943682 0)
(163.83956 -4.1129354 0)
(164.55857 -3.5389246 0)
(165.20728 -2.868419 0)
(165.77454 -2.0921931 0)
(166.24078 -1.1975513 0)
(166.57476 -0.17306723 0)
(166.73314 0.98489619 0)
(166.65937 2.2654326 0)
(166.28271 3.6320654 0)
(165.53894 5.0038624 0)
(164.40945 6.2491138 0)
(162.95711 7.2224306 0)
(161.31388 7.8306822 0)
(159.62722 8.0633673 0)
(158.01557 7.9695458 0)
(156.55322 7.6268833 0)
(155.27394 7.1150379 0)
(154.18296 6.5020465 0)
(153.26873 5.839512 0)
(152.51188 5.1631593 0)
(151.89103 4.4956141 0)
(151.386 3.8496578 0)
(150.97927 3.2311189 0)
(150.65638 2.641139 0)
(150.40555 2.0778446 0)
(150.21768 1.5375278 0)
(150.08856 1.0153569 0)
(150.01929 0.50523237 0)
(152.17563 -2.7715485 0)
(152.44327 -2.8053843 0)
(152.64527 -2.871339 0)
(152.86632 -2.9729464 0)
(153.1015 -3.1101491 0)
(153.35757 -3.2832795 0)
(153.64079 -3.4923273 0)
(153.95861 -3.7366365 0)
(154.31969 -4.0143837 0)
(154.73391 -4.3218497 0)
(155.21211 -4.6524878 0)
(155.76546 -4.9959639 0)
(156.4046 -5.3372224 0)
(157.13793 -5.6552523 0)
(157.96756 -5.9220635 0)
(158.88363 -6.1047984 0)
(159.8614 -6.1734353 0)
(160.86565 -6.1103846 0)
(161.8607 -5.9144282 0)
(162.81941 -5.5962774 0)
(163.72602 -5.1697394 0)
(164.57342 -4.6444614 0)
(165.35857 -4.0230641 0)
(166.07853 -3.3005027 0)
(166.72587 -2.4635008 0)
(167.2824 -1.4918721 0)
(167.71409 -0.36438661 0)
(167.96973 0.93254147 0)
(167.97938 2.3968402 0)
(167.64513 3.9980473 0)
(166.86436 5.6443608 0)
(165.59001 7.1594974 0)
(163.89825 8.3312695 0)
(161.97556 9.025316 0)
(160.02671 9.2397398 0)
(158.20383 9.0546616 0)
(156.59141 8.5829763 0)
(155.21787 7.931151 0)
(154.07664 7.1839288 0)
(153.14343 6.4011993 0)
(152.3879 5.6213875 0)
(151.78024 4.8666461 0)
(151.29428 4.1477824 0)
(150.90846 3.4681499 0)
(150.60575 2.8264355 0)
(150.37278 2.2185619 0)
(150.19953 1.6389423 0)
(150.08104 1.0811686 0)
(150.01764 0.53770943 0)
(152.54232 -2.8689907 0)
(152.78064 -2.9042326 0)
(152.95988 -2.9744241 0)
(153.15676 -3.0834877 0)
(153.36756 -3.2316242 0)
(153.599 -3.4196753 0)
(153.85766 -3.6483174 0)
(154.15156 -3.9177414 0)
(154.49042 -4.2270865 0)
(154.88575 -4.5735913 0)
(155.35076 -4.9513994 0)
(155.89968 -5.35026 0)
(156.54715 -5.7542939 0)
(157.30654 -6.1400806 0)
(158.18487 -6.4739941 0)
(159.17346 -6.7133962 0)
(160.24173 -6.8176 0)
(161.34302 -6.7637488 0)
(162.43034 -6.553738 0)
(163.47068 -6.2069462 0)
(164.44899 -5.7458915 0)
(165.36279 -5.1850408 0)
(166.21488 -4.5278368 0)
(167.00865 -3.7672072 0)
(167.743 -2.8843649 0)
(168.40364 -1.8488076 0)
(168.9549 -0.6255732 0)
(169.33759 0.81283008 0)
(169.46779 2.4775566 0)
(169.21319 4.3520854 0)
(168.41301 6.3402937 0)
(166.96735 8.2078975 0)
(164.96506 9.636935 0)
(162.67862 10.424938 0)
(160.40058 10.592524 0)
(158.3265 10.270603 0)
(156.54829 9.6242351 0)
(155.08094 8.7947673 0)
(153.89871 7.88592 0)
(152.95919 6.9649608 0)
(152.2179 6.0709779 0)
(151.63503 5.223549 0)
(151.17782 4.4297744 0)
(150.82064 3.689258 0)
(150.54404 2.9973612 0)
(150.33335 2.3472403 0)
(150.17789 1.7310847 0)
(150.07213 1.1407092 0)
(150.01568 0.56703298 0)
(152.93704 -3.0196068 0)
(153.13917 -3.0587963 0)
(153.2931 -3.1355569 0)
(153.46327 -3.2543779 0)
(153.64691 -3.4158915 0)
(153.85044 -3.6216526 0)
(154.08057 -3.8732779 0)
(154.34578 -4.1721176 0)
(154.65671 -4.5186608 0)
(155.02656 -4.9115838 0)
(155.47117 -5.3462446 0)
(156.00839 -5.8129106 0)
(156.65763 -6.2952054 0)
(157.43913 -6.7675057 0)
(158.36782 -7.1895877 0)
(159.43855 -7.5049687 0)
(160.61338 -7.6559791 0)
(161.82874 -7.6106421 0)
(163.02084 -7.3753497 0)
(164.14876 -6.982936 0)
(165.19996 -6.4693874 0)
(166.17991 -5.8562968 0)
(167.09985 -5.1487827 0)
(167.9716 -4.3391712 0)
(168.80328 -3.4048438 0)
(169.58746 -2.3043841 0)
(170.28806 -0.9854271 0)
(170.83774 0.59881777 0)
(171.13983 2.479899 0)
(171.02243 4.6699301 0)
(170.23954 7.0870555 0)
(168.59481 9.4274127 0)
(166.18113 11.202516 0)
(163.41093 12.089222 0)
(160.71605 12.162584 0)
(158.34523 11.636737 0)
(156.38965 10.754232 0)
(154.83668 9.700304 0)
(153.63046 8.5984539 0)
(152.70367 7.5204487 0)
(151.99417 6.5024439 0)
(151.45081 5.5583454 0)
(151.03402 4.6892709 0)
(150.7144 3.889551 0)
(150.47053 3.1502682 0)
(150.28692 2.4612494 0)
(150.15261 1.8121496 0)
(150.06176 1.192851 0)
(150.01342 0.59265782 0)
(153.33123 -3.0646244 0)
(153.49899 -3.1039569 0)
(153.62607 -3.1833871 0)
(153.76736 -3.3077669 0)
(153.92117 -3.4780358 0)
(154.09356 -3.6964067 0)
(154.29124 -3.9654355 0)
(154.52303 -4.2877131 0)
(154.8004 -4.665306 0)
(155.13832 -5.0987967 0)
(155.55559 -5.5854977 0)
(156.07428 -6.1170632 0)
(156.71958 -6.6776087 0)
(157.52078 -7.2407605 0)
(158.50544 -7.7604479 0)
(159.67644 -8.1625454 0)
(160.98679 -8.3640746 0)
(162.34708 -8.3195367 0)
(163.66722 -8.0445762 0)
(164.89449 -7.595359 0)
(166.02126 -7.0302547 0)
(167.06557 -6.3809982 0)
(168.04967 -5.6531528 0)
(168.99544 -4.8368785 0)
(169.92424 -3.903895 0)
(170.8416 -2.7952826 0)
(171.71544 -1.4295557 0)
(172.47269 0.27114752 0)
(173.00919 2.3665944 0)
(173.11384 4.9120589 0)
(172.41905 7.8686633 0)
(170.55291 10.860164 0)
(167.58105 13.12192 0)
(164.15026 14.100995 0)
(160.92347 14.00109 0)
(158.20669 13.171911 0)
(156.07163 11.97109 0)
(154.45363 10.635719 0)
(153.25143 9.3063993 0)
(152.36449 8.0531953 0)
(151.70973 6.9035254 0)
(151.2239 5.8613167 0)
(150.8611 4.9188784 0)
(150.58896 4.0635616 0)
(150.38495 3.2812081 0)
(150.23342 2.5578142 0)
(150.12369 1.8802691 0)
(150.04995 1.2364427 0)
(150.01084 0.61403088 0)
(153.75477 -3.1977081 0)
(153.88048 -3.2427168 0)
(153.97849 -3.329786 0)
(154.08885 -3.4643478 0)
(154.21055 -3.6479122 0)
(154.34895 -3.8837428 0)
(154.5105 -4.1758672 0)
(154.70401 -4.5288275 0)
(154.94143 -4.9472006 0)
(155.23914 -5.4347217 0)
(155.61889 -5.9922473 0)
(156.10729 -6.6144308 0)
(156.73577 -7.2872182 0)
(157.54466 -7.9853055 0)
(158.58078 -8.6582701 0)
(159.8636 -9.208206 0)
(161.33613 -9.5095456 0)
(162.86921 -9.4901175 0)
(164.33158 -9.1774938 0)
(165.65392 -8.6617575 0)
(166.83978 -8.0334262 0)
(167.92963 -7.334264 0)
(168.96228 -6.5645415 0)
(169.972 -5.7100823 0)
(170.99953 -4.741675 0)
(172.07282 -3.585949 0)
(173.16837 -2.1318376 0)
(174.20503 -0.27182626 0)
(175.06422 2.0772685 0)
(175.52331 5.0222415 0)
(175.04866 8.6479331 0)
(172.9622 12.552199 0)
(169.21536 15.5359 0)
(164.85463 16.575067 0)
(160.9468 16.170871 0)
(157.83667 14.890702 0)
(155.53883 13.263102 0)
(153.89573 11.579289 0)
(152.7405 9.9872079 0)
(151.93045 8.5437728 0)
(151.35926 7.2589423 0)
(150.9522 6.1210461 0)
(150.65854 5.1103265 0)
(150.44447 4.205419 0)
(150.28762 3.3860833 0)
(150.17315 2.6341342 0)
(150.09132 1.9335988 0)
(150.03678 1.2703643 0)
(150.00798 0.63061794 0)
(154.13458 -3.1812292 0)
(154.21965 -3.2245156 0)
(154.28677 -3.3111509 0)
(154.36348 -3.4474756 0)
(154.4495 -3.6355504 0)
(154.54923 -3.8795822 0)
(154.66852 -4.1848551 0)
(154.8158 -4.5575565 0)
(155.00308 -5.0044051 0)
(155.24778 -5.5320066 0)
(155.57474 -6.1448399 0)
(156.01593 -6.8408907 0)
(156.60981 -7.6081179 0)
(157.4099 -8.4240411 0)
(158.49217 -9.2388528 0)
(159.90952 -9.9277013 0)
(161.59728 -10.298555 0)
(163.36377 -10.235271 0)
(165.01108 -9.7926825 0)
(166.44478 -9.1214114 0)
(167.68946 -8.3700255 0)
(168.8233 -7.5971529 0)
(169.90595 -6.7951122 0)
(170.9791 -5.9484655 0)
(172.10378 -5.0420346 0)
(173.34031 -3.9910149 0)
(174.67975 -2.6376397 0)
(176.03081 -0.81131574 0)
(177.2817 1.6336003 0)
(178.24512 4.9052914 0)
(178.21534 9.3191717 0)
(175.9833 14.528357 0)
(171.15322 18.669239 0)
(165.44382 19.681169 0)
(160.6694 18.749844 0)
(157.13237 16.796807 0)
(154.72281 14.601877 0)
(153.12365 12.495267 0)
(152.07802 10.608838 0)
(151.39331 8.9671179 0)
(150.94042 7.5504052 0)
(150.63602 6.3246872 0)
(150.42757 5.2547826 0)
(150.28226 4.3091271 0)
(150.17964 3.4608639 0)
(150.10686 2.68754 0)
(150.05592 1.9704234 0)
(150.02243 1.2935924 0)
(150.00486 0.64193514 0)
(154.44724 -3.288175 0)
(154.4825 -3.3426985 0)
(154.51481 -3.4406158 0)
(154.5536 -3.5893329 0)
(154.59922 -3.791352 0)
(154.65478 -4.0519565 0)
(154.7253 -4.3779957 0)
(154.81849 -4.7779588 0)
(154.94588 -5.2619175 0)
(155.12511 -5.8414847 0)
(155.38346 -6.5284956 0)
(155.75825 -7.32975 0)
(156.2942 -8.2409834 0)
(157.05648 -9.2495235 0)
(158.16012 -10.319991 0)
(159.71957 -11.305291 0)
(161.67168 -11.903676 0)
(163.72329 -11.905487 0)
(165.56727 -11.405461 0)
(167.07288 -10.637746 0)
(168.30516 -9.8397674 0)
(169.40868 -9.0830259 0)
(170.4719 -8.3292034 0)
(171.53443 -7.5387823 0)
(172.68372 -6.7130619 0)
(174.04338 -5.7434864 0)
(175.64786 -4.3910998 0)
(177.40835 -2.3927985 0)
(179.22752 0.46148123 0)
(181.00278 4.3160245 0)
(181.86946 9.7618655 0)
(179.77077 16.82931 0)
(173.45989 22.953363 0)
(165.7471 23.679558 0)
(159.90458 21.82466 0)
(155.95042 18.866674 0)
(153.54186 15.93066 0)
(152.09831 13.328099 0)
(151.24934 11.127697 0)
(150.75041 9.2923099 0)
(150.45546 7.7570787 0)
(150.27898 6.4585628 0)
(150.17165 5.3433772 0)
(150.10508 4.3689629 0)
(150.06293 3.5018698 0)
(150.03577 2.7156841 0)
(150.01816 1.9892804 0)
(150.00717 1.3052738 0)
(150.00155 0.64758372 0)
(154.38263 -3.2120034 0)
(154.35745 -3.2619215 0)
(154.34779 -3.3511861 0)
(154.34044 -3.4910862 0)
(154.3363 -3.6854143 0)
(154.33659 -3.9410691 0)
(154.34468 -4.2668861 0)
(154.36648 -4.6740622 0)
(154.41143 -5.176337 0)
(154.49523 -5.7904063 0)
(154.64525 -6.5354984 0)
(154.90344 -7.4272762 0)
(155.32032 -8.4666043 0)
(155.96919 -9.644468 0)
(157.01554 -10.945909 0)
(158.69034 -12.21307 0)
(160.96828 -12.96509 0)
(163.39107 -12.803094 0)
(165.46857 -11.932248 0)
(167.01449 -10.737384 0)
(168.16483 -9.6339692 0)
(169.18357 -8.7019233 0)
(170.20553 -7.8359776 0)
(171.2467 -6.9378501 0)
(172.41618 -6.0867438 0)
(173.9369 -5.2217288 0)
(175.90505 -4.0325768 0)
(178.21391 -2.2149053 0)
(180.68614 0.50031967 0)
(183.37809 4.0051012 0)
(185.59913 9.8434595 0)
(184.22071 19.135105 0)
(175.99622 28.857381 0)
(165.3267 28.717051 0)
(158.342 25.415419 0)
(154.09641 21.01544 0)
(151.90647 17.147033 0)
(150.78852 13.995946 0)
(150.25065 11.487427 0)
(150.00822 9.4833504 0)
(149.9131 7.8567821 0)
(149.88894 6.5092122 0)
(149.89686 5.3679723 0)
(149.91724 4.3799987 0)
(149.94035 3.506111 0)
(149.96159 2.716757 0)
(149.97893 1.9890929 0)
(149.99136 1.3048019 0)
(149.99812 0.64728531 0)
(153.47141 -3.2410487 0)
(153.37242 -3.3147724 0)
(153.30471 -3.4236412 0)
(153.2313 -3.5837603 0)
(153.15469 -3.7991994 0)
(153.07375 -4.0777429 0)
(152.98959 -4.4291624 0)
(152.90541 -4.8660581 0)
(152.82754 -5.404331 0)
(152.76812 -6.0642143 0)
(152.7529 -6.871993 0)
(152.82881 -7.8564275 0)
(153.05369 -9.0333728 0)
(153.49938 -10.409729 0)
(154.37825 -12.029379 0)
(156.11769 -13.813033 0)
(158.8115 -15.057536 0)
(161.70305 -14.950271 0)
(163.97873 -13.946331 0)
(165.37923 -12.57538 0)
(166.18266 -11.518153 0)
(166.88554 -10.793209 0)
(167.69687 -10.194514 0)
(168.53298 -9.5157194 0)
(169.46165 -9.0526962 0)
(170.87463 -8.871411 0)
(172.97691 -8.313663 0)
(175.66768 -7.0605861 0)
(178.58212 -4.4894357 0)
(182.43766 -0.73743541 0)
(187.16425 7.2237984 0)
(188.249 20.223151 0)
(177.93033 36.676303 0)
(163.24862 34.965562 0)
(155.59543 29.532875 0)
(151.35164 23.10007 0)
(149.73696 18.090006 0)
(149.18501 14.386375 0)
(149.09739 11.620107 0)
(149.18661 9.5017569 0)
(149.33042 7.8282612 0)
(149.47867 6.4649818 0)
(149.61211 5.3221759 0)
(149.72464 4.3387224 0)
(149.8156 3.4716592 0)
(149.88649 2.6897076 0)
(149.93936 1.9692982 0)
(149.97544 1.2918881 0)
(149.99467 0.64091464 0)
(150.26885 -3.1408659 0)
(150.02247 -3.2066626 0)
(149.8513 -3.2911918 0)
(149.66344 -3.4208283 0)
(149.46364 -3.6007716 0)
(149.24708 -3.8398287 0)
(149.01129 -4.148848 0)
(148.75487 -4.5425846 0)
(148.47817 -5.041047 0)
(148.18493 -5.6717689 0)
(147.89064 -6.4749958 0)
(147.63657 -7.5066948 0)
(147.47739 -8.8197668 0)
(147.45352 -10.444974 0)
(147.77882 -12.477204 0)
(149.1934 -14.996401 0)
(152.15355 -17.005147 0)
(155.37562 -16.553433 0)
(157.51952 -14.746435 0)
(158.28391 -12.222822 0)
(158.19781 -10.390854 0)
(158.14236 -9.2408604 0)
(158.39749 -8.4942167 0)
(158.61693 -7.5792199 0)
(158.74486 -7.0696258 0)
(159.68922 -7.0404246 0)
(161.7972 -6.0207636 0)
(164.96772 -4.8956271 0)
(168.69914 -1.9720871 0)
(175.07383 4.1582403 0)
(184.05571 12.170799 0)
(189.65859 24.092542 0)
(176.92537 49.62672 0)
(157.54765 45.384873 0)
(150.91514 34.314734 0)
(147.40368 24.790489 0)
(146.95762 18.488888 0)
(147.3163 14.348096 0)
(147.83461 11.450671 0)
(148.32323 9.311774 0)
(148.73412 7.6547849 0)
(149.06597 6.3181559 0)
(149.32888 5.2025337 0)
(149.5345 4.2436912 0)
(149.69307 3.3980074 0)
(149.81297 2.6344415 0)
(149.90069 1.9299572 0)
(149.9599 1.2666206 0)
(149.99131 0.62852533 0)
(143.49017 -2.9046035 0)
(143.09231 -2.9967559 0)
(142.78369 -3.0984515 0)
(142.43719 -3.2482072 0)
(142.06441 -3.4509002 0)
(141.65613 -3.7166366 0)
(141.20429 -4.0577144 0)
(140.6995 -4.4912684 0)
(140.13142 -5.0410209 0)
(139.48816 -5.7396142 0)
(138.76318 -6.6346089 0)
(137.97896 -7.7967061 0)
(137.18862 -9.2990416 0)
(136.40261 -11.152791 0)
(135.77615 -13.41484 0)
(136.52195 -16.499608 0)
(140.13627 -19.592821 0)
(144.20773 -18.122879 0)
(146.37091 -15.437916 0)
(146.23319 -12.011697 0)
(144.64051 -10.788018 0)
(143.2631 -10.939688 0)
(142.66935 -11.443448 0)
(142.09784 -10.965768 0)
(141.23945 -10.418714 0)
(142.05242 -10.538231 9.2135198e-18)
(143.32739 -11.95133 -2.0089624e-19)
(145.63024 -13.613804 0)
(146.71053 -7.4822812 1.0018481e-17)
(144.06686 -14.520159 -7.4999337e-18)
(161.55249 -10.140415 4.4274872e-18)
(180.42314 5.4366714 -9.892025e-18)
(167.93143 72.285257 6.342682e-18)
(142.12961 58.026854 0)
(140.66717 37.12385 0)
(141.63462 24.704519 0)
(143.57095 17.828627 0)
(145.29856 13.690834 0)
(146.55487 10.911386 0)
(147.47742 8.8901609 0)
(148.16044 7.3292782 0)
(148.67278 6.0674522 0)
(149.06049 5.0097195 0)
(149.35485 4.0961029 0)
(149.57748 3.2863478 0)
(149.74368 2.5519599 0)
(149.86427 1.8718241 0)
(149.94526 1.2294977 0)
(149.98814 0.61036454 0)
(129.50336 -2.8579046 0)
(128.72526 -2.932914 0)
(128.12668 -2.9967562 0)
(127.45809 -3.0981367 0)
(126.73913 -3.2389725 0)
(125.95076 -3.4264332 0)
(125.07479 -3.6684918 0)
(124.08825 -3.97685 0)