/*--------------------------------*- C++ -*----------------------------------*\
| =========                 |                                                 |
| \\      /  F ield         | foam-extend: Open Source CFD                    |
|  \\    /   O peration     | Version:     4.1                                |
|   \\  /    A nd           | Web:         http://www.foam-extend.org         |
|    \\/     M anipulation  |                                                 |
\*---------------------------------------------------------------------------*/
FoamFile
{
    version     2.0;
    format      ascii;
    class       regIOobject;
    location    "2.55/uniform";
    object      profilingInfo;
}
// * * * * * * * * * * * * * * * * * * * * * * * * * * * * * * * * * * * * * //

profilingInfo
(

    {
        id              14;
        parentId        11;
        description     "Foam::Time::writeObject - outputTime";
        calls           51;
        totalTime       1.244177;
        childTime       0;
        onStack         1;
    }

    {
        id              11;
        parentId        1;
        description     "Foam::Time::writeObject";
        calls           5100;
        totalTime       1.254329;
        childTime       1.244177;
        onStack         1;
    }

    {
        id              1;
        description     "application::main";
        calls           1;
        totalTime       88.973158;
        childTime       70.874008;
        onStack         1;
    }

    {
        id              12;
        parentId        1;
        description     "FO::forces::execute";
        calls           5099;
        totalTime       3.683643;
        childTime       0;
        onStack         0;
    }

    {
        id              13;
        parentId        1;
        description     "FO::probes::execute";
        calls           5099;
        totalTime       0.244024;
        childTime       0;
        onStack         0;
    }

    {
        id              2;
        parentId        1;
        description     "functionObjectList::read";
        calls           1;
        totalTime       0.000416;
        childTime       0;
        onStack         0;
    }

    {
        id              3;
        parentId        1;
        description     "fvMatrix::solve_U";
        calls           5100;
        totalTime       5.927681;
        childTime       5.030188;
        onStack         0;
    }

    {
        id              8;
        parentId        1;
        description     "fvMatrix::solve_p";
        calls           20400;
        totalTime       59.763915;
        childTime       57.68973;
        onStack         0;
    }

    {
        id              5;
        parentId        4;
        description     "lduMatrix::smoother_Ux";
        calls           5100;
        totalTime       1.819191;
        childTime       0;
        onStack         0;
    }

    {
        id              7;
        parentId        6;
        description     "lduMatrix::smoother_Uy";
        calls           5100;
        totalTime       2.155823;
        childTime       0;
        onStack         0;
    }

    {
        id              4;
        parentId        3;
        description     "lduMatrix::solver_Ux";
        calls           5100;
        totalTime       2.419949;
        childTime       1.819191;
        onStack         0;
    }

    {
        id              6;
        parentId        3;
        description     "lduMatrix::solver_Uy";
        calls           5100;
        totalTime       2.610239;
        childTime       2.155823;
        onStack         0;
    }

    {
        id              9;
        parentId        8;
        description     "lduMatrix::solver_p";
        calls           20400;
        totalTime       57.68973;
        childTime       11.082442;
        onStack         0;
    }

    {
        id              10;
        parentId        9;
        description     "lduMatrix::solver_topLevelCorr";
        calls           77405;
        totalTime       11.082442;
        childTime       0;
        onStack         0;
    }
);


// ************************************************************************* //
