/*--------------------------------*- C++ -*----------------------------------*\
| =========                 |                                                 |
| \\      /  F ield         | foam-extend: Open Source CFD                    |
|  \\    /   O peration     | Version:     4.1                                |
|   \\  /    A nd           | Web:         http://www.foam-extend.org         |
|    \\/     M anipulation  |                                                 |
\*---------------------------------------------------------------------------*/
FoamFile
{
    version     2.0;
    format      ascii;
    class       volScalarField;
    location    "2.2";
    object      p;
}
// * * * * * * * * * * * * * * * * * * * * * * * * * * * * * * * * * * * * * //

dimensions      [0 2 -2 0 0 0 0];

internalField   nonuniform List<scalar> 
4393
(
-46.418278
-92.981828
-146.74663
-201.53772
-258.52852
-318.0297
-380.42424
-446.02167
-515.04624
-587.60812
-663.67525
-743.04523
-825.31994
-909.88679
-995.91054
-1082.3386
-1167.9206
-1251.2388
-1330.7466
-1404.8063
-1471.7268
-1529.7976
-1577.3241
-1612.6686
-1634.3036
-1640.8857
-1631.3609
-1605.109
-1562.0234
-1502.6043
-1428.0628
-1340.3044
-1241.8237
-1135.521
-1024.4769
-911.72622
-800.06826
-691.93569
-589.32563
-493.78628
-406.44505
-328.06303
-259.10076
-199.78409
-150.17439
-110.24066
-79.763577
-57.832633
-43.628336
-45.166114
-92.396007
-146.03405
-200.6739
-257.49558
-316.84198
-379.10968
-444.62029
-513.60993
-586.2008
-662.37245
-741.93255
-824.49003
-909.43478
-995.92836
-1082.9092
-1169.1131
-1253.1062
-1333.3247
-1408.1153
-1475.772
-1534.5698
-1582.7976
-1618.7957
-1641.0078
-1648.0571
-1638.8542
-1612.704
-1569.4364
-1509.5444
-1434.2451
-1345.4788
-1245.8058
-1138.212
-1025.8683
-911.8891
-799.13403
-690.07235
-586.71561
-490.60864
-402.86317
-324.21771
-255.11018
-195.75359
-146.20084
-106.36055
-75.961918
-54.862983
-44.264811
-44.361875
-91.499254
-144.77576
-199.05484
-255.5257
-314.56086
-376.57902
-441.92407
-510.85527
-583.5185
-659.91617
-739.87555
-823.01894
-908.74007
-996.19255
-1084.2949
-1171.7534
-1257.0998
-1338.7355
-1414.9753
-1484.0846
-1544.3104
-1593.9094
-1631.1788
-1654.5015
-1662.4211
-1653.7594
-1627.7383
-1584.0959
-1523.2536
-1446.4224
-1355.6122
-1253.5197
-1143.3094
-1028.3384
-911.88417
-796.92658
-686.0053
-581.15595
-483.91083
-395.34404
-316.14248
-246.69022
-187.15662
-137.55109
-97.688263
-67.258155
-46.70323
-37.920701
-43.571156
-90.203509
-142.87205
-196.57261
-252.49944
-311.05368
-372.68284
-437.76281
-506.58761
-579.33965
-656.05716
-736.59883
-820.60907
-907.48912
-996.38145
-1086.1742
-1175.5281
-1262.9215
-1346.7027
-1425.139
-1496.4548
-1558.8586
-1610.5625
-1649.8031
-1674.8752
-1684.1998
-1676.4526
-1650.7045
-1606.5453
-1544.2897
-1465.1358
-1371.1995
-1265.3943
-1151.1698
-1032.1791
-911.95636
-793.66743
-679.95778
-572.89579
-473.98992
-384.25305
-304.29134
-234.40505
-174.68834
-125.07556
-85.291732
-55.022543
-34.934593
-26.790469
-42.746021
-88.586087
-140.40165
-193.29791
-248.47671
-306.37005
-367.46092
-432.1667
-500.82803
-573.67721
-650.80227
-732.10646
-817.26647
-905.69553
-996.52137
-1088.5893
-1180.4949
-1270.6406
-1357.3009
-1438.6793
-1512.9485
-1578.2704
-1632.8047
-1674.7134
-1702.1785
-1713.4592
-1707.0294
-1681.7393
-1636.9533
-1572.818
-1490.498
-1392.254
-1281.312
-1161.5351
-1037.003
-911.61363
-788.78931
-671.31407
-561.29057
-460.18334
-368.91193
-287.96577
-217.52615
-157.57799
-107.954
-68.296938
-38.300085
-18.683726
-10.927316
-41.737444
-86.536899
-137.2531
-189.11404
-243.33045
-300.36952
-360.75698
-424.96202
-493.38489
-566.32301
-643.93081
-726.17242
-812.77034
-903.15697
-996.44236
-1091.4144
-1186.5795
-1280.237
-1370.5627
-1455.68
-1533.7006
-1602.7371
-1660.8938
-1706.2495
-1736.8504
-1750.7509
-1746.1568
-1721.6154
-1676.1693
-1609.7101
-1523.3305
-1419.4776
-1301.8092
-1174.7662
-1043.0182
-910.95498
-782.33352
-660.1058
-546.40039
-442.60553
-349.50342
-267.41996
-196.37259
-136.19542
-86.587052
-47.090777
-17.369028
1.8950227
9.4338452
-40.595514
-84.127183
-133.49121
-184.07012
-237.08798
-293.05309
-352.54171
-416.08559
-484.15872
-557.14085
-635.27228
-718.59825
-806.90515
-899.65544
-995.93966
-1094.4706
-1193.6352
-1291.5942
-1386.3955
-1476.0642
-1558.6465
-1632.2101
-1694.8105
-1744.4438
-1779.0052
-1796.3016
-1794.194
-1770.8253
-1724.7867
-1655.5865
-1564.1766
-1453.2325
-1326.9991
-1190.7122
-1049.8417
-909.42628
-773.64381
-645.63694
-527.53745
-420.60903
-325.43886
-242.1329
-170.4945
-110.16528
-60.68015
-21.46102
7.9037881
26.823354
34.190619
-39.186011
-81.205562
-128.95647
-178.00164
-229.57708
-284.2374
-342.61698
-405.32143
-472.91384
-545.87586
-624.55677
-709.10824
-799.40465
-894.95505
-994.83057
-1097.647
-1201.6308
-1304.7575
-1404.909
-1499.9926
-1587.9892
-1666.9351
-1734.857
-1789.6816
-1829.1471
-1850.7728
-1851.9891
-1830.4107
-1784.0057
-1711.7095
-1614.2145
-1494.4636
-1357.4978
-1209.6434
-1057.4498
-906.79915
-762.38347
-627.54456
-504.37084
-393.92836
-296.53065
-211.99181
-139.84114
-79.481683
-30.253499
8.5653428
37.489844
56.04348
63.248236
-37.653452
-77.930949
-123.79689
-171.03289
-220.89028
-273.97558
-330.98884
-392.6212
-459.54177
-532.35666
-611.5521
-697.4184
-789.95123
-888.73197
-992.81709
-1100.6985
-1210.3876
-1319.6104
-1426.0331
-1527.4232
-1621.7036
-1706.9074
-1781.0689
-1842.0773
-1887.5233
-1914.6053
-1920.2267
-1901.3236
-1855.0124
-1779.3764
-1674.6459
-1544.0583
-1393.7397
-1231.5245
-1065.4183
-902.39156
-747.74737
-605.01114
-476.14684
-361.91692
-262.25689
-176.59973
-104.13075
-43.963524
4.7910319
43.023359
71.374468
89.493794
96.516607
-35.748818
-74.00484
-117.6921
-162.83157
-210.6819
-261.9043
-317.27083
-377.56972
-443.59422
-516.10051
-595.74492
-682.99683
-778.01806
-880.50123
-989.50015
-1103.3491
-1219.7673
-1336.1399
-1449.8473
-1558.4924
-1659.9572
-1752.3188
-1833.6807
-1901.953
-1954.6115
-1988.5132
-1999.9356
-1984.9556
-1939.5406
-1860.5129
-1747.2977
-1603.4222
-1436.5078
-1256.5013
-1073.3832
-895.51915
-728.9139
-577.21816
-442.13823
-323.9813
-222.16761
-135.63984
-63.15987
-3.4983827
44.496232
81.904064
109.50717
127.08858
133.89229
-33.798637
-69.806253
-111.02791
-153.76795
-199.29486
-248.32739
-301.71462
-360.35261
-425.17751
-497.12422
-577.05839
-665.67875
-763.37434
-870.00876
-984.66039
-1105.4664
-1229.7465
-1354.4139
-1476.4676
-1593.3175
-1702.8404
-1803.2315
-1892.7565
-1969.4404
-2030.7079
-2073.0758
-2092.1041
-2082.7932
-2039.586
-1957.4491
-1834.4246
-1674.2477
-1486.6347
-1284.5447
-1080.6579
-885.11643
-704.69101
-543.02782
-401.36541
-279.34257
-175.68622
-88.716907
-16.684172
42.039147
88.898141
125.17846
151.81095
168.71686
175.24963
-31.322732
-64.748366
-103.16399
-143.16714
-186.01798
-232.49052
-283.51354
-340.10055
-403.35038
-474.40924
-554.39876
-644.30984
-744.84115
-856.11872
-977.29933
-1106.2779
-1239.8199
-1374.1697
-1505.8017
-1631.8967
-1750.3828
-1859.6804
-1958.3494
-2044.6716
-2116.136
-2168.9576
-2197.9202
-2196.6911
-2157.733
-2073.3258
-1939.1487
-1758.89
-1545.2554
-1315.6021
-1086.3281
-869.8189
-673.60721
-501.08731
-352.70823
-227.14632
-122.20893
-35.440099
35.517966
92.742631
137.99706
172.7805
198.17271
214.23471
220.43224
-28.935355
-59.575028
-94.898093
-131.84691
-171.67529
-215.21028
-263.45979
-317.56082
-378.79219
-448.54496
-528.24841
-619.25868
-722.68964
-839.06449
-967.71697
-1106.2534
-1250.6598
-1396.2156
-1538.6638
-1674.9222
-1803.0781
-1921.9456
-2030.5697
-2127.7001
-2211.0804
-2276.7108
-2318.5369
-2328.6709
-2297.094
-2212.1926
-2065.6523
-1860.4856
-1613.7497
-1349.4073
-1089.0115
-847.73879
-633.73509
-449.70551
-294.82767
-166.41733
-61.081812
24.585616
93.645442
148.66897
191.7507
224.60026
248.43704
263.45869
269.24588
-25.834187
-53.293428
-85.133348
-118.63361
-155.0089
-195.1277
-240.07122
-291.10202
-349.69479
-417.52255
-496.38364
-588.08857
-694.30548
-816.1609
-953.35364
-1103.1789
-1260.5222
-1419.2474
-1574.0535
-1721.5576
-1860.1748
-1989.3365
-2108.7972
-2218.0402
-2315.3464
-2396.6704
-2455.0973
-2481.0203
-2461.498
-2379.4193
-2219.7585
-1983.4129
-1693.8851
-1385.4104
-1086.7049
-816.33294
-582.6165
-386.83371
-226.184
-96.096191
8.358284
91.722349
157.84435
209.81577
250.05803
280.47272
302.39819
316.15926
321.45205
-22.988275
-47.105624
-75.194269
-104.9311
-137.49263
-173.78008
-214.93919
-262.35462
-317.70645
-382.98388
-460.41873
-552.37023
-661.22103
-788.98813
-936.05555
-1099.4244
-1272.3864
-1446.6591
-1615.3979
-1774.8824
-1924.1584
-2063.6288
-2194.0749
-2316.1136
-2429.0551
-2529.151
-2608.6689
-2656.1736
-2655.5158
-2582.0938
-2409.6779
-2133.8914
-1787.8786
-1422.5332
-1076.4506
-772.13875
-517.10683
-310.0027
-145.03315
-15.064932
86.748577
166.26529
228.17964
276.09966
312.74356
340.16689
359.79249
372.05486
376.7627
-19.234006
-39.566143
-63.484003
-89.028707
-117.28557
-149.16104
-185.8419
-228.81617
-279.96349
-341.61508
-416.50506
-507.64551
-618.31847
-751.84306
-909.87005
-1089.2877
-1281.1054
-1473.7728
-1658.1741
-1830.292
-1990.3742
-2140.3279
-2282.2801
-2418.3715
-2549.5401
-2672.7618
-2779.4826
-2856.4151
-2884.4366
-2829.5606
-2647.2464
-2321.0875
-1898.5229
-1458.8321
-1053.886
-710.45835
-433.22568
-216.29732
-49.467289
77.789306
174.63785
248.3914
304.59705
347.32986
379.53999
403.37478
420.29135
430.80722
434.83628
-15.909562
-32.367259
-51.889472
-72.946189
-96.528147
-123.53005
-155.16122
-192.99631
-239.10691
-296.19297
-367.57411
-457.03023
-568.92192
-708.3961
-879.34039
-1079.01
-1295.0593
-1510.7439
-1713.413
-1898.7628
-2069.1473
-2228.6989
-2381.122
-2530.4777
-2680.3859
-2829.6041
-2969.177
-3084.3383
-3154.0992
-3134.0114
-2949.9604
-2559.1611
-2029.2981
-1490.9058
-1012.5349
-624.92495
-325.99193
-102.36372
62.502238
183.47627
272.40146
338.09569
386.87937
423.18005
450.07105
469.70153
483.49599
492.01845
495.27573
-11.483934
-23.591277
-38.294722
-54.438704
-72.848185
-94.3633
-120.17007
-151.87526
-191.68082
-242.61959
-308.63701
-394.36275
-505.33326
-649.10824
-833.41859
-1057.1183
-1303.0127
-1546.0301
-1768.1211
-1964.9811
-2142.9745
-2309.885
-2471.3083
-2633.612
-2804.7357
-2986.7704
-3170.3483
-3338.4985
-3469.907
-3511.2593
-3344.137
-2870.7987
-2184.1435
-1512.8704
-942.74545
-506.96208
-189.29502
35.498273
192.78319
302.75023
380.12536
435.11262
474.59733
503.15976
523.83605
538.65796
548.93445
555.23057
557.62888
-7.5459553
-15.399279
-25.214394
-36.272676
-49.208363
-64.768182
-84.069068
-108.69902
-140.93308
-184.11099
-242.90347
-322.98264
-431.1493
-577.9658
-777.58743
-1033.29
-1320.8804
-1601.2877
-1847.8981
-2056.684
-2241.3074
-2415.2344
-2585.4244
-2759.5252
-2951.4777
-3168.794
-3401.8417
-3630.6655
-3839.9344
-3979.4509
-3868.0222
-3294.1306
-2367.8701
-1515.4538
-830.29369
-345.16005
-15.872371
201.09478
342.92606
435.89
497.45787
538.82631
567.05955
586.5888
600.19849
609.65698
616.06226
619.92811
621.3917
-2.4940617
-5.6554346
-10.105342
-15.573892
-22.445076
-31.342498
-43.273997
-59.749549
-83.0132
-116.56773
-165.75635
-237.36444
-339.18057
-484.64184
-697.7192
-992.03967
-1333.7675
-1659.6117
-1930.1032
-2142.1468
-2323.1201
-2495.6061
-2666.7932
-2843.1724
-3048.995
-3303.1742
-3599.0879
-3914.1979
-4241.4074
-4553.2178
-4583.0237
-3903.4787
-2589.3116
-1483.2206
-653.43126
-124.34868
202.507
397.8468
513.68313
582.39851
623.43291
648.17699
663.26819
672.57965
678.38203
682.01604
684.26762
685.54446
686.01501
2.9587846
3.9729641
4.5462156
4.3727043
3.387243
1.1545627
-3.1202984
-10.724205
-23.652511
-45.261374
-81.374591
-140.13109
-230.27359
-367.38859
-589.87788
-934.9107
-1357.8539
-1750.6935
-2054.8902
-2266.9253
-2439.8809
-2611.5592
-2788.599
-2969.4141
-3193.9264
-3500.013
-3883.2975
-4313.0925
-4763.9036
-5291.5205
-5573.8106
-4825.358
-2837.3023
-1376.2422
-376.92609
174.90812
474.14879
627.83409
704.33975
740.62097
756.28002
761.57887
761.89088
760.03398
757.47706
754.96699
752.88198
751.47226
750.91474
8.2851109
13.265304
19.323493
25.157922
31.020586
36.67779
41.595018
44.762967
44.510278
37.799674
18.451939
-23.539362
-98.146951
-220.10662
-443.94219
-853.46444
-1397.2823
-1876.4151
-2210.7433
-2392.8797
-2530.4288
-2685.6838
-2862.783
-3027.8154
-3238.6404
-3573.532
-4023.7142
-4561.7464
-5089.7121
-5960.3613
-6823.7184
-6299.5148
-3074.0132
-1170.9518
36.506404
572.65461
805.01174
890.17333
911.79879
907.31692
893.25895
876.87506
861.26347
847.66091
836.46147
827.67518
821.19651
817.07792
815.4856
17.841141
25.859693
36.761722
47.719718
59.416592
71.801319
84.631464
97.258389
108.52219
116.23566
114.96635
93.715207
41.619832
-49.538521
-244.67559
-715.1515
-1441.8803
-2033.6103
-2413.3733
-2545.7126
-2643.0185
-2787.1994
-2982.1464
-3113.6802
-3276.6778
-3677.6992
-4224.3718
-4961.7037
-5679.3059
-7242.8543
-8882.0929
-9068.3531
-3578.1301
-1038.2197
635.19294
1099.0918
1197.3507
1178.9792
1129.5271
1077.2882
1030.5873
991.36633
959.44093
934.0241
914.2383
899.26835
888.48452
881.72
879.11804
22.150584
30.895239
46.136736
62.238215
80.171526
100.10825
122.29208
146.74778
173.26282
201.23836
227.41494
240.71443
225.96306
180.3454
45.408542
-483.28454
-1555.1591
-2311.4996
-2773.6627
-2771.0092
-2749.666
-2813.1454
-3022.6413
-3099.9061
-3207.1641
-3763.2638
-4232.995
-5185.2224
-6470.8436
-7863.448
-9589.1445
-12103.54
-4823.2661
-72.515243
1722.8304
1811.9824
1641.1419
1478.7599
1346.2293
1243.2031
1163.5569
1101.9562
1054.3111
1017.6214
989.69011
968.87416
954.02856
944.77036
941.21707
36.93709
46.53324
66.460101
87.314007
110.74806
137.0774
166.90656
200.7208
238.86204
281.66258
327.57451
365.35485
371.82642
347.26614
293.74153
-191.10969
-1818.0786
-2617.1354
-3115.4966
-2772.7581
-2626.8087
-2732.5433
-3131.7562
-3271.128
-3302.4343
0
0
0
0
0
0
0
0
6202.3749
3402.4559
2582.4951
2068.2382
1755.8592
1545.1249
1396.0881
1287.0011
1205.4547
1143.7775
1096.9948
1061.7466
1035.6638
1017.1502
1005.6366
1001.2222
35.366749
42.182742
64.028412
87.075078
113.2049
142.7397
176.57926
215.67655
261.07473
314.42453
377.59011
445.98923
502.79948
560.8257
710.68075
552.80417
-1996.7857
-2776.963
-3646.9059
-2968.6378
-3044.3365
-3012.3249
0
0
0
0
0
0
0
0
0
0
10129.574
6286.2534
4123.9545
3000.324
2361.3126
1969.1778
1709.0489
1527.5629
1396.2856
1299.0424
1225.9921
1170.8551
1129.4567
1098.8964
1077.2394
1063.7837
1058.6262
44.263792
54.950247
80.950034
106.97758
136.15438
169.036
206.87569
251.10416
303.50612
367.08038
447.11656
546.08847
653.28871
754.39118
842.19578
568.47297
-3108.2262
-3581.5993
-3205.2813
0
0
0
0
0
0
0
0
0
0
0
1780.6714
3364.594
5756.1161
5236.0893
3961.382
3100.1681
2507.1427
2107.7398
1830.654
1632.9917
1488.4295
1380.7306
1299.5694
1238.1933
1192.0511
1157.9573
1133.7804
1118.7533
1112.9922
22.191595
42.166316
66.370983
91.284882
118.75235
149.54722
184.7432
225.50529
273.13241
329.82978
399.49989
478.02725
537.5302
536.24768
558.10708
702.38655
0
0
0
0
0
0
-1132.0679
-1103.5236
-1011.3058
-917.55648
-790.08534
-495.29919
-94.947624
697.08351
2026.4394
3361.9103
4750.987
4489.8573
3714.8018
3058.6863
2552.6652
2182.22
1911.4453
1711.6612
1562.3544
1449.5317
1363.6921
1298.3447
1248.9831
1212.3851
1186.3701
1170.1776
1163.9659
19.95396
50.022139
74.970435
100.54376
127.96153
158.05671
191.47961
228.66488
269.57196
313.41797
357.89973
396.56227
406.14906
338.09186
142.01784
-338.13554
-1284.4177
-1227.475
-1147.1018
-1100.4785
-1051.0814
-1021.613
-1010.3643
-803.28944
-838.6824
-583.18197
-362.34532
-204.61763
259.0825
904.85426
1960.2923
3049.323
3956.5651
3851.8964
3404.2978
2933.5968
2528.4614
2206.0153
1956.7037
1765.4221
1618.5285
1505.3805
1418.1051
1351.001
1299.942
1261.883
1234.7281
1217.7882
1211.2836
20.663309
46.485391
72.120231
97.971741
125.28634
154.8151
187.13909
222.62492
261.25907
302.1341
342.03499
373.73558
384.81868
353.15828
205.21554
-227.92253
-792.30557
-920.9594
-962.54834
-966.15099
-887.80303
-842.32046
-818.54966
-691.8003
-620.94391
-417.54059
-179.14359
77.742627
510.88664
1096.4659
1896.1865
2721.5879
3334.8852
3356.8264
3105.6565
2777.1428
2463.3571
2193.8098
1973.5971
1797.6783
1658.5135
1548.9428
1463.0385
1396.1801
1344.8432
1306.3174
1278.6976
1261.4182
1254.7754
14.996575
36.230572
58.796956
81.290981
104.29079
128.03544
152.53043
177.4159
201.78993
223.6891
238.89682
240.18105
218.24885
159.21432
15.074911
-283.91232
-606.90356
-732.46497
-784.51875
-794.28663
-753.12541
-703.47433
-642.23515
-537.76233
-423.8866
-238.24339
-11.498846
269.88354
668.60815
1187.7219
1823.242
2450.8961
2889.5202
2967.0583
2834.9718
2613.0008
2376.1812
2157.6759
1969.1881
1812.3853
1684.4719
1581.3759
1499.0907
1434.1694
1383.7997
1345.7036
1318.2391
1300.9992
1294.3624
23.838354
46.444865
70.189839
93.656114
117.54419
141.96095
166.72592
191.21042
214.0957
232.81509
242.68429
236.66989
205.98865
135.39747
-7.2595155
-236.55124
-460.15502
-579.80609
-635.38346
-644.54111
-615.83481
-568.2929
-497.28124
-394.46019
-264.34932
-82.933132
139.16076
416.11319
777.02632
1223.7718
1735.5099
2221.7451
2557.2297
2658.5599
2599.6224
2454.846
2280.1776
2107.1225
1949.7494
1813.4687
1698.7939
1604.1106
1527.1059
1465.4573
1417.0848
1380.1843
1353.4176
1336.5531
1330.0509
12.024197
29.927683
50.032163
70.035717
90.040994
109.92722
129.38614
147.74689
163.76074
175.1827
178.31565
168.06151
137.63846
74.654212
-40.055291
-203.50788
-358.80746
-456.7478
-506.0793
-514.23384
-488.93029
-440.0058
-365.68945
-262.60108
-128.53876
46.963943
261.85423
525.19069
849.67403
1232.3371
1648.636
2032.8055
2301.9486
2411.5829
2398.1274
2308.5352
2183.1592
2048.9507
1920.3865
1804.4651
1703.8308
1618.6748
1548.0638
1490.6659
1445.0901
1410.0048
1384.3866
1368.1812
1361.923
21.407251
40.6324
60.854061
80.367692
99.453558
117.84343
135.02362
150.1017
161.62895
167.32363
163.94538
147.54848
113.08098
52.273506
-43.557106
-165.61553
-279.00363
-356.12505
-395.69029
-400.45696
-375.18767
-324.72582
-248.67429
-145.28293
-11.774444
156.79218
361.05886
606.02169
895.95149
1224.4157
1567.8661
1878.5073
2101.9968
2212.1873
2227.1463
2176.7604
2089.8434
1988.0674
1885.0996
1788.3895
1701.7409
1626.5694
1562.9906
1510.4907
1468.2864
1435.4856
1411.3697
1396.0506
1390.1246
11.864132
27.968629
45.95972
63.61159
80.82049
97.231907
112.31664
125.22203
134.61711
138.50962
134.2248
118.559
87.502182
35.679528
-40.002438
-130.43197
-213.52505
-271.83099
-300.84931
-300.62676
-273.46228
-221.63412
-145.03217
-42.511373
87.993954
248.90834
441.01345
666.30017
924.57387
1207.7341
1495.1766
1752.162
1942.6279
2049.7636
2082.475
2059.9379
2002.6779
1927.6333
1846.8491
1767.6913
1694.409
1629.188
1572.8936
1525.6522
1487.1882
1456.9985
1434.6428
1420.3803
1414.8535
17.140346
33.237291
50.219968
66.364736
81.714287
95.886694
108.32923
118.22211
124.38323
125.18557
118.61219
102.36235
73.690927
29.625284
-29.989059
-97.382381
-158.13674
-200.4624
-219.38518
-213.53468
-183.558
-130.34344
-53.764561
46.960065
173.10527
325.77634
505.17468
711.24608
941.41802
1187.1579
1431.231
1648.3111
1813.9319
1916.4936
1960.2184
1957.4976
1922.9608
1869.6949
1807.8364
1744.3102
1683.4263
1627.7748
1578.7188
1536.859
1502.3255
1474.9436
1454.5172
1441.4275
1436.3461
11.965865
26.365689
42.104158
57.216564
71.535718
84.633711
95.95546
104.72776
109.89839
110.11342
103.80193
89.276555
64.758155
28.907168
-17.019839
-66.703893
-110.25032
-139.22912
-148.99479
-137.55158
-104.54808
-50.079853
26.067686
124.39856
245.54561
389.78519
556.64703
744.78736
950.46841
1165.4731
1375.7032
1562.5373
1708.927
1806.4496
1856.8888
1868.2988
1851.1308
1815.4432
1769.5683
1719.7246
1670.0957
1623.4066
1581.3247
1544.7828
1514.2207
1489.7312
1471.3236
1459.4739
1454.8656
13.672509
27.359553
41.871631
55.550719
68.315685
79.771142
89.415396
96.581086
100.40711
99.848884
93.763487
81.007067
60.559412
32.098287
-2.5895936
-38.476819
-68.501948
-86.407933
-88.110292
-71.431508
-35.489849
20.053798
95.479113
191.07352
307.00101
442.97325
597.96272
769.86544
954.48545
1144.3016
1327.8967
1491.4043
1622.6059
1715.1564
1769.5575
1791.0634
1787.1662
1765.5769
1733.073
1695.0577
1655.4632
1616.9942
1581.4707
1550.0419
1523.3731
1501.7671
1485.3998
1474.8149
1470.691
11.353737
24.027811
37.645087
50.500526
62.432333
73.04674
81.87999
88.35196
91.76062
91.312559
86.205983
75.73261
59.445872
37.650883
12.275827
-12.652626
-31.897129
-40.645398
-35.405334
-14.038107
24.575192
80.988096
155.49821
248.21829
358.97821
487.09992
631.1623
788.66175
955.3487
1124.5371
1286.9996
1432.2479
1551.2801
1639.1807
1695.7794
1724.505
1730.7498
1720.424
1699.0131
1671.1266
1640.3512
1609.2934
1579.8154
1553.193
1530.2476
1511.4411
1497.0796
1487.749
1484.1074
11.407404
23.295974
35.923439
47.754304
58.666144
68.304975
76.268402
82.076654
85.182482
85.010277
81.03314
72.876209
60.488941
44.52188
26.84704
10.720904
0.16220343
-1.0285677
10.105126
35.553656
76.498503
133.57323
207.05478
296.91456
402.74644
523.60885
657.83511
802.7588
954.29686
1106.6003
1252.1841
1382.9752
1492.1642
1575.8544
1633.5312
1667.4211
1681.4221
1680.0718
1667.8
1648.5061
1625.3919
1600.9182
1576.9175
1554.7268
1535.2676
1519.1184
1506.6843
1498.5701
1495.3983
10.343689
21.51519
33.418442
44.560495
54.805616
63.82937
71.285666
76.786942
79.922756
80.301535
77.620495
71.762546
62.950919
52.01933
40.711524
31.704583
28.181811
33.206171
49.281013
78.204124
121.12187
178.66764
251.07233
338.19299
439.45872
553.75787
679.29288
813.38224
952.21512
1090.7111
1222.7511
1342.0029
1443.1848
1523.1432
1581.1969
1618.7736
1638.7035
1644.4826
1639.6901
1627.6164
1611.0826
1592.371
1573.2512
1555.0719
1538.8127
1525.1347
1514.5162
1507.5608
1504.8391
9.9405982
20.476338
31.67027
42.129967
51.74001
60.213239
67.259637
72.575085
75.865159
76.886604
75.510275
71.807328
66.178132
59.538028
53.481298
50.249786
52.431565
62.543786
82.71497
114.54271
159.08928
216.94372
288.27785
372.85657
469.9958
578.48192
696.46745
821.34149
949.60185
1076.8383
1197.9924
1307.998
1402.6582
1479.3697
1537.3812
1577.5849
1602.0456
1613.4714
1614.7639
1608.7014
1597.7594
1584.0281
1569.194
1554.5863
1541.2121
1529.7894
1520.8524
1514.987
1512.6932
9.3564804
19.364663
30.008282
39.956283
49.101813
57.191789
63.988197
69.261407
72.815848
74.529163
74.407852
72.661032
69.801514
66.769543
65.017847
66.459378
73.249293
87.495315
111.02094
145.23552
191.09809
249.13261
319.44825
401.73633
495.23682
598.68183
710.2262
827.37283
946.92349
1065.0317
1177.4569
1280.0601
1369.425
1443.3598
1501.0939
1543.158
1571.0664
1586.9343
1593.1291
1592.0067
1585.7415
1576.2381
1565.0917
1553.5957
1542.7633
1533.3521
1525.9433
1521.0957
1519.2102
8.934918
18.485916
28.650042
38.160421
46.922776
54.715606
61.346468
66.64845
70.506208
72.892142
73.915042
73.881592
73.372751
73.323488
75.061913
80.251851
90.729709
108.29426
134.52444
170.66317
217.56496
275.68297
345.06643
425.3488
515.72066
614.89147
721.0484
831.82304
944.2935
1055.0743
1160.5503
1257.2638
1342.3648
1413.9704
1471.3162
1514.6882
1545.2055
1564.5394
1574.6424
1577.5288
1575.1198
1569.1524
1561.1295
1552.3023
1543.6749
1536.0294
1529.9953
1526.1072
1524.6259
8.5490828
17.743416
27.539641
36.720562
45.201081
52.788044
59.328697
64.708596
68.876987
71.879828
73.902075
75.318167
76.748566
79.109478
83.625401
91.772756
105.15302
125.33288
153.69903
191.35443
239.05831
297.19673
365.76587
444.35471
532.12299
627.77687
729.54944
835.19722
942.03499
1047.0432
1147.0789
1239.1824
1320.9145
1390.6222
1447.558
1491.8423
1524.3116
1546.3083
1559.4678
1565.5342
1566.2219
1563.1242
1557.6589
1551.035
1544.2386
1538.0662
1533.2127
1530.2277
1529.1729
8.1797896
17.102058
26.616341
35.549331
43.82163
51.264799
57.758859
63.231045
67.680272
71.207451
74.052487
76.635669
79.599271
83.837235
90.492175
100.90213
116.49769
138.67426
168.67188
207.48161
255.7825
313.90276
381.79457
459.01375
544.70156
637.57082
735.90232
837.56197
940.05573
1040.6443
1136.5323
1225.1186
1304.2581
1372.4657
1429.0136
1473.9118
1507.798
1531.777
1547.2488
1555.7517
1558.8384
1557.9872
1554.5455
1549.6886
1544.3858
1539.4365
1535.6166
1533.568
1533.0774
7.8074605
16.603237
25.940241
34.712427
42.846927
50.19927
56.676493
62.237901
66.919147
70.86065
74.340392
77.808476
81.918099
87.542169
95.761454
107.8158
125.01715
148.64047
179.81993
219.46317
268.18738
326.27554
393.64628
469.83203
553.96382
644.76468
740.55717
839.29413
938.62538
1036.0145
1128.9107
1214.961
1292.2227
1359.3284
1415.5681
1460.8798
1495.7666
1521.1687
1538.319
1548.6075
1553.4678
1554.2916
1552.3719
1548.8586
1544.7051
1540.6819
1537.6137
1536.3934
1536.6785
7.3041556
16.16767
25.424139
34.111348
42.165142
49.465506
55.94026
61.570882
66.417126
70.644454
74.554181
78.613484
83.479796
90.010289
99.245828
112.36629
130.61005
155.17344
187.12035
227.30296
276.29667
334.3536
401.36987
476.86303
559.95876
649.38902
743.50651
840.32361
937.58562
1032.8875
1123.8343
1208.2289
1284.256
1350.6231
1406.6332
1452.1811
1487.6867
1513.9858
1532.2045
1543.6364
1549.6368
1551.5379
1550.5924
1547.9357
1544.5153
1541.0468
1538.3503
1537.9197
1540.1128
6.0814556
15.835453
25.143139
33.822761
41.845868
49.124477
55.600628
61.267996
66.198642
70.570556
74.696799
79.0533
84.300361
91.289986
101.04782
114.71759
133.49
158.52451
190.8551
231.30705
280.43487
338.47503
405.31216
480.45624
563.03042
651.77149
745.04789
840.90251
937.12904
1031.3882
1121.3622
1204.931
1280.3421
1346.3403
1402.2361
1447.9041
1483.7235
1510.4795
1529.2462
1541.27
1547.8631
1550.3268
1549.9018
1547.7272
1544.7601
1541.6758
1539.26
1539.783
1545.6252
-2227.7589
-2483.6255
-2699.5396
-2881.4844
-3023.9682
-3106.2154
-3108.2262
-3029.222
-2857.2793
-2664.004
-3205.3894
-3205.2813
-3198.4359
-3187.449
-3173.3347
-3160.5819
-3148.7461
-3158.2128
-3158.815
-3131.4106
-3183.0317
-3181.9072
-3167.1528
-3150.1896
-3133.2745
-3124.2837
-3105.9911
-3113.2082
-3100.0765
-3046.5504
-3137.8423
-3135.1802
-3126.577
-3117.8813
-3109.0877
-3112.0999
-3101.0043
-3098.9717
-3085.5705
-3048.7086
-3078.1502
-3076.7156
-3072.1701
-3066.2527
-3057.7472
-3058.1472
-3057.8129
-3057.1427
-3055.6642
-3059.4011
-3030.1695
-3029.3771
-3023.6163
-3013.4551
-2998.2002
-2968.6378
-2990.8019
-3003.1027
-3009.7484
-3023.0972
-3013.4132
-3015.1073
-3018.359
-3021.7462
-3032.6629
-3008.537
-3008.215
-3004.5877
-2989.6696
-2966.6815
-3027.9235
-3029.5543
-3035.6402
-3044.3365
-3068.3865
-3076.103
-3056.7219
-3030.7044
-3000.8675
-2965.4636
-3848.4531
-3860.7655
-3831.7267
-3787.3171
-3749.7572
-3717.6921
-3696.1888
-3682.4626
-3673.5227
-3675.2648
-2986.9818
-2985.7897
-2977.9088
-2960.9537
-2921.5855
-2946.9464
-2958.9512
-2961.1439
-2950.6581
-2923.5511
-3009.2485
-3012.3249
-3018.6882
-3037.9316
-3013.9715
-3005.251
-3001.2994
-2993.8838
-2979.8937
-2964.752
-3048.507
-3050.9596
-3056.1375
-3080.7267
-3093.4964
-3069.4242
-3042.6922
-3022.4077
-3003.5388
-2987.0531
-2999.6599
-2995.8312
-2976.9423
-2951.6614
-2974.5983
-2992.0793
-3003.3184
-3010.7383
-3013.0014
-3020.0189
-3033.2655
-3035.726
-3034.8624
-2997.9712
-3007.1046
-3020.7173
-3031.5175
-3038.7506
-3041.8
-3051.3647
-3156.8906
-3164.6846
-3188.9179
-3187.4471
-3159.5473
-3131.7562
-3111.0628
-3095.6699
-3080.2525
-3063.0196
-3141.9784
-3137.1437
-3129.6601
-3149.8312
-3150.425
-3144.6323
-3138.4098
-3132.9747
-3126.9767
-3128.879
-3162.756
-3162.0353
-3137.7509
-3147.905
-3159.3507
-3167.4867
-3171.9068
-3173.7106
-3173.0011
-3177.7025
-3277.1167
-3289.5199
-3285.4692
-3271.128
-3255.8062
-3243.7654
-3235.0338
-3229.2402
-3222.4248
-3213.8644
-3282.4892
-3286.5607
-3294.0153
-3285.9375
-3276.2944
-3270.7943
-3270.5592
-3275.0004
-3280.041
-3292.3435
-3186.3252
-3172.2152
-3189.5517
-3215.4285
-3244.9019
-3273.5989
-3300.5728
-3325.1456
-3345.2984
-3370.2636
-3326.0535
-3302.4343
-3312.0418
-3332.3494
-3359.1128
-3384.3607
-3406.8262
-3425.2575
-3437.7759
-3453.4908
-3701.6752
-3692.6559
-3661.9571
-3627.886
-3602.8072
-3583.3219
-3571.2318
-3564.0739
-3557.9589
-3555.0929
-3016.679
-3015.1534
-3009.7383
-2998.12
-2992.634
-2999.8929
-2999.53
-2994.1795
-2984.9472
-2983.9236
-3540.5388
-3549.1356
-3563.5698
-3610.8536
-3667.0292
-3718.8608
-3739.943
-3721.804
-3638.1033
-3466.2537
-3268.759
-3268.9938
-3271.9433
-3276.8114
-3277.9222
-3277.0261
-3275.0648
-3269.9201
-3265.7624
-3219.2853
-3179.5266
-3227.5527
-3289.6672
-3394.3703
-3505.6956
-3592.5213
-3635.077
-3595.2077
-3447.0644
-3214.6355
-3480.2774
-3490.321
-3511.2517
-3547.9509
-3581.5993
-3610.2588
-3618.8299
-3618.3251
-3582.5471
-3470.1579
-3367.3457
-3371.7357
-3385.9153
-3409.8735
-3430.8344
-3448.4904
-3456.6159
-3446.197
-3433.5793
-3381.8278
11318.721
10715.546
10129.574
9489.9388
8832.8457
8179.5387
7545.18
6936.7834
6347.3437
5770.3038
8301.848
8224.5311
8101.2592
7839.6071
7501.7188
7111.2845
6689.6062
6254.5658
5816.3986
5360.0007
-3709.5011
-3727.9367
-3745.3444
-3751.3108
-3759.9995
-3763.2638
-3768.0593
-3771.4951
-3772.8203
-3776.3119
-3705.8523
-3709.7035
-3745.0498
-3776.2805
-3815.3395
-3842.5112
-3866.4375
-3882.4676
-3891.115
-3895.3029
-3946.5158
-3939.2804
-3955.5093
-3963.0863
-3991.4662
-4009.846
-4029.6729
-4042.6491
-4048.0685
-4043.6186
-4222.4236
-4212.0686
-4226.3375
-4216.9239
-4232.995
-4234.8769
-4241.3996
-4242.4482
-4238.8761
-4234.5151
-4544.8771
-4526.7374
-4538.4825
-4511.4474
-4515.2332
-4497.3863
-4484.9282
-4464.9011
-4437.2336
-4404.873
-4901.1059
-4873.8837
-4883.4907
-4837.0695
-4828.6375
-4790.1485
-4757.3177
-4713.8956
-4659.226
-4599.015
-5281.8499
-5243.3996
-5252.0397
-5185.2224
-5165.6722
-5107.5835
-5056.1881
-4992.7191
-4916.4638
-4831.1518
-5682.8605
-5630.7854
-5639.6102
-5550.589
-5519.7722
-5441.5442
-5370.8779
-5288.443
-5198.469
-5115.9186
-6105.0444
-6035.9219
-6045.7709
-5931.7766
-5888.306
-5787.8972
-5693.5297
-5583.5012
-5458.188
-5322.5875
-6548.5007
-6458.4129
-6470.8436
-6329.1987
-6271.9445
-6149.0597
-6030.8967
-5896.7846
-5747.1785
-5585.4192
-7019.3417
-6902.2107
-6917.9748
-6744.492
-6670.3458
-6522.7549
-6376.8535
-6214.6286
-6036.1372
-5850.2666
-7516.4406
-7366.2092
-7388.3266
-7179.8873
-7085.7242
-6911.6638
-6733.8688
-6537.7864
-6319.1652
-6081.8851
-8058.115
-7863.448