/*--------------------------------*- C++ -*----------------------------------*\
| =========                 |                                                 |
| \\      /  F ield         | foam-extend: Open Source CFD                    |
|  \\    /   O peration     | Version:     4.1                                |
|   \\  /    A nd           | Web:         http://www.foam-extend.org         |
|    \\/     M anipulation  |                                                 |
\*---------------------------------------------------------------------------*/
FoamFile
{
    version     2.0;
    format      ascii;
    class       volVectorField;
    location    "2.2";
    object      U;
}
// * * * * * * * * * * * * * * * * * * * * * * * * * * * * * * * * * * * * * //

dimensions      [0 1 -1 0 0 0 0];

internalField   nonuniform List<vector> 
4393
(
(146.0489 -0.15650301 0)
(146.5975 -0.16293698 0)
(147.0118 -0.1659511 0)
(147.45302 -0.16960183 0)
(147.90407 -0.17400969 0)
(148.36986 -0.17926015 0)
(148.8526 -0.18527504 0)
(149.35444 -0.19190811 0)
(149.87699 -0.19895368 0)
(150.42114 -0.20614875 0)
(150.98694 -0.2131731 0)
(151.57338 -0.21965256 0)
(152.17825 -0.22516775 0)
(152.79805 -0.22927001 0)
(153.42788 -0.2315044 0)
(154.06149 -0.23143762 0)
(154.69139 -0.22868564 0)
(155.30905 -0.22293508 0)
(155.90508 -0.21395434 0)
(156.46956 -0.2015937 0)
(156.99221 -0.18577845 0)
(157.46262 -0.16650103 0)
(157.87046 -0.14381872 0)
(158.20564 -0.117862 0)
(158.4586 -0.088857106 0)
(158.62065 -0.057159576 0)
(158.68448 -0.023276073 0)
(158.64488 0.012126568 0)
(158.49853 0.047973239 0)
(158.24628 0.082848774 0)
(157.89311 0.11530703 0)
(157.44834 0.14393708 0)
(156.92537 0.16751054 0)
(156.3408 0.18513467 0)
(155.71333 0.19635097 0)
(155.0623 0.20115492 0)
(154.40646 0.19994209 0)
(153.76286 0.19340542 0)
(153.14622 0.1824142 0)
(152.56855 0.16790047 0)
(152.03911 0.15076882 0)
(151.56467 0.13183513 0)
(151.14978 0.11179339 0)
(150.79719 0.091217225 0)
(150.50827 0.070610786 0)
(150.28348 0.050432471 0)
(150.12222 0.030837468 0)
(150.02092 0.011723074 0)
(149.97389 -0.0031700228 0)
(149.47194 -0.39491478 0)
(149.94134 -0.40586637 0)
(150.28758 -0.41396609 0)
(150.65757 -0.42450817 0)
(151.03721 -0.4376079 0)
(151.43148 -0.45330112 0)
(151.84274 -0.47131765 0)
(152.27326 -0.49121207 0)
(152.72471 -0.51237198 0)
(153.19807 -0.53401639 0)
(153.69348 -0.55519353 0)
(154.20999 -0.57478882 0)
(154.74548 -0.59154962 0)
(155.29645 -0.60413163 0)
(155.85801 -0.61116763 0)
(156.42389 -0.61135161 0)
(156.98653 -0.60352309 0)
(157.53727 -0.58673319 0)
(158.06665 -0.56027895 0)
(158.56461 -0.52370445 0)
(159.02077 -0.47678027 0)
(159.42465 -0.41948052 0)
(159.76578 -0.35197789 0)
(160.03397 -0.2746725 0)
(160.2195 -0.18826596 0)
(160.31345 -0.093877187 0)
(160.3083 0.0068450195 0)
(160.19843 0.11165835 0)
(159.98172 0.21748519 0)
(159.65888 0.32051336 0)
(159.23466 0.41654777 0)
(158.71823 0.50139295 0)
(158.12299 0.57135836 0)
(157.46573 0.62373676 0)
(156.76535 0.65710933 0)
(156.04147 0.67140889 0)
(155.31302 0.66776014 0)
(154.59716 0.64817293 0)
(153.90862 0.61518105 0)
(153.25934 0.57150305 0)
(152.6585 0.5197721 0)
(152.11272 0.46235044 0)
(151.62645 0.40122599 0)
(151.20242 0.33800173 0)
(150.84201 0.27399615 0)
(150.54554 0.21026766 0)
(150.31218 0.14710529 0)
(150.14086 0.084344861 0)
(150.03531 0.028580558 0)
(149.73739 -0.62939371 0)
(150.19159 -0.63857063 0)
(150.52687 -0.65072034 0)
(150.88501 -0.66771114 0)
(151.25284 -0.68939177 0)
(151.63542 -0.71554003 0)
(152.03526 -0.74564634 0)
(152.45473 -0.77895192 0)
(152.89563 -0.81443465 0)
(153.35911 -0.85079301 0)
(153.84544 -0.88643718 0)
(154.35385 -0.91949889 0)
(154.88235 -0.94787077 0)
(155.42757 -0.96928369 0)
(155.98467 -0.98142418 0)
(156.54738 -0.98208085 0)
(157.10806 -0.96929254 0)
(157.65797 -0.94146405 0)
(158.18754 -0.89742409 0)
(158.68661 -0.83642211 0)
(159.14472 -0.75808529 0)
(159.55126 -0.66237106 0)
(159.89571 -0.54955186 0)
(160.16766 -0.42026153 0)
(160.35713 -0.27562241 0)
(160.45481 -0.11745663 0)
(160.45263 0.051463214 0)
(160.34438 0.22725296 0)
(160.1264 0.40485497 0)
(159.79877 0.57802908 0)
(159.36598 0.739676 0)
(158.83741 0.88259885 0)
(158.22711 1.0004399 0)
(157.55291 1.088546 0)
(156.83491 1.1445114 0)
(156.09388 1.1682799 0)
(155.34967 1.1618476 0)
(154.6201 1.1287114 0)
(153.9202 1.073232 0)
(153.26196 1.0000463 0)
(152.6544 0.91360625 0)
(152.10385 0.8178697 0)
(151.61442 0.7161337 0)
(151.18849 0.61100872 0)
(150.82718 0.50451244 0)
(150.53034 0.39807287 0)
(150.29671 0.29220454 0)
(150.12702 0.1872053 0)
(150.02928 0.087413776 0)
(149.82993 -0.85840971 0)
(150.2762 -0.86818683 0)
(150.60689 -0.88443537 0)
(150.96021 -0.90797675 0)
(151.32346 -0.93842258 0)
(151.70181 -0.97532224 0)
(152.09796 -1.0179329 0)
(152.51447 -1.0651978 0)
(152.95336 -1.1157037 0)
(153.41601 -1.1676449 0)
(153.90293 -1.2188014 0)
(154.41357 -1.2665464 0)
(154.94611 -1.3078958 0)
(155.49728 -1.3396154 0)
(156.06222 -1.3583908 0)
(156.63452 -1.3610453 0)
(157.20631 -1.344765 0)
(157.76854 -1.3072739 0)
(158.31127 -1.2469183 0)
(158.82403 -1.162652 0)
(159.29606 -1.053958 0)
(159.71652 -0.9207606 0)
(160.07456 -0.76338794 0)
(160.35947 -0.58262771 0)
(160.56077 -0.37990575 0)
(160.66846 -0.15759504 0)
(160.67364 0.080594096 0)
(160.56908 0.32929727 0)
(160.35013 0.5812983 0)
(160.01601 0.8275787 0)
(159.57083 1.0577952 0)
(159.02428 1.2613673 0)
(158.39144 1.4289111 0)
(157.69177 1.5535891 0)
(156.94728 1.6319471 0)
(156.18053 1.6640467 0)
(155.41286 1.6529779 0)
(154.66304 1.603996 0)
(153.94658 1.5235519 0)
(153.2755 1.4184203 0)
(152.65854 1.2950353 0)
(152.10159 1.1590617 0)
(151.60818 1.0151826 0)
(151.1802 0.86707314 0)
(150.81825 0.71749257 0)
(150.52164 0.56832287 0)
(150.28881 0.42059242 0)
(150.12121 0.2753475 0)
(150.02715 0.13502558 0)
(149.93892 -1.0819503 0)
(150.37711 -1.0932724 0)
(150.70246 -1.1137397 0)
(151.05041 -1.1439484 0)
(151.40865 -1.1833391 0)
(151.78247 -1.231272 0)
(152.17479 -1.2867841 0)
(152.58842 -1.348531 0)
(153.02568 -1.4147157 0)
(153.48825 -1.4830292 0)
(153.97695 -1.5506107 0)
(154.49154 -1.6140467 0)
(155.03044 -1.6694264 0)
(155.59049 -1.7124783 0)
(156.16684 -1.7387978 0)
(156.75286 -1.7441533 0)
(157.34035 -1.7248088 0)
(157.91977 -1.6777757 0)
(158.48071 -1.6009273 0)
(159.01225 -1.4929607 0)
(159.50327 -1.3532604 0)
(159.94259 -1.1817475 0)
(160.31906 -0.97880073 0)
(160.62154 -0.7453133 0)
(160.83897 -0.4829264 0)
(160.96048 -0.19445191 0)
(160.97602 0.11557319 0)
(160.877 0.44040864 0)
(160.65725 0.77075455 0)
(160.31472 1.0946355 0)
(159.85287 1.3980362 0)
(159.28173 1.6664148 0)
(158.61786 1.8868023 0)
(157.88307 2.0498081 0)
(157.10209 2.1508396 0)
(156.3001 2.1902455 0)
(155.50046 2.1725458 0)
(154.72327 2.1051453 0)
(153.98459 1.9969415 0)
(153.29645 1.8571162 0)
(152.66714 1.6942487 0)
(152.10183 1.5157729 0)
(151.60332 1.3277343 0)
(151.17272 1.1347784 0)
(150.80995 0.94026453 0)
(150.51371 0.7463868 0)
(150.28219 0.55444175 0)
(150.11706 0.36561715 0)
(150.02586 0.18119233 0)
(150.07649 -1.3029511 0)
(150.50472 -1.31631 0)
(150.82324 -1.341183 0)
(151.16438 -1.3782815 0)
(151.51625 -1.4269412 0)
(151.88433 -1.4863907 0)
(152.27176 -1.5554854 0)
(152.68167 -1.6326269 0)
(153.11673 -1.715663 0)
(153.57904 -1.8017985 0)
(154.06983 -1.8875313 0)
(154.58926 -1.9686339 0)
(155.13607 -2.0402085 0)
(155.70733 -2.0968474 0)
(156.29815 -2.1329272 0)
(156.90166 -2.1430234 0)
(157.50916 -2.1223632 0)
(158.1105 -2.0671831 0)
(158.69463 -1.9748782 0)
(159.25004 -1.8439242 0)
(159.76515 -1.6736482 0)
(160.22843 -1.4639797 0)
(160.62838 -1.2153026 0)
(160.95342 -0.92849887 0)
(161.19179 -0.60523992 0)
(161.33155 -0.24854902 0)
(161.36114 0.13642456 0)
(161.27019 0.54165208 0)
(161.05039 0.95566176 0)
(160.69784 1.3632365 0)
(160.21494 1.7460856 0)
(159.61207 2.084871 0)
(158.90778 2.3622193 0)
(158.12713 2.5656596 0)
(157.29869 2.6893647 0)
(156.45114 2.7342645 0)
(155.61059 2.7068429 0)
(154.79877 2.6172584 0)
(154.0324 2.4774017 0)
(153.32335 2.2992819 0)
(152.67921 2.0939003 0)
(152.10416 1.8706088 0)
(151.59994 1.636863 0)
(151.16662 1.3982521 0)
(150.80317 1.1586723 0)
(150.50754 0.92055151 0)
(150.27748 0.6852307 0)
(150.11443 0.45353921 0)
(150.02513 0.22567276 0)
(150.24333 -1.5149129 0)
(150.66 -1.5306041 0)
(150.9702 -1.5601507 0)
(151.30294 -1.6044734 0)
(151.64694 -1.662834 0)
(152.00783 -1.7343726 0)
(152.38907 -1.8178031 0)
(152.79415 -1.9113112 0)
(153.22619 -2.0124228 0)
(153.68776 -2.1178792 0)
(154.18067 -2.2235384 0)
(154.70559 -2.3243301 0)
(155.26171 -2.4142974 0)
(155.84638 -2.4867749 0)
(156.45474 -2.5347542 0)
(157.07958 -2.5514386 0)
(157.71159 -2.5308753 0)
(158.33976 -2.4684616 0)
(158.9522 -2.3611429 0)
(159.53666 -2.2072659 0)
(160.08103 -2.0062062 0)
(160.57343 -1.757968 0)
(161.00204 -1.4629274 0)
(161.35486 -1.1218402 0)
(161.61936 -0.73618843 0)
(161.78236 -0.30890671 0)
(161.83045 0.15456201 0)
(161.7509 0.64516086 0)
(161.53252 1.149354 0)
(161.16872 1.6483679 0)
(160.66021 2.1188352 0)
(160.01761 2.535431 0)
(159.26211 2.8751739 0)
(158.42322 3.1217393 0)
(157.5347 3.267934 0)
(156.62999 3.3156979 0)
(155.73869 3.2742241 0)
(154.88454 3.1572319 0)
(154.08491 2.9802984 0)
(153.35126 2.7587567 0)
(152.69013 2.5063246 0)
(152.10436 2.234398 0)
(151.59425 1.9518489 0)
(151.15854 1.6651487 0)
(150.79505 1.3786522 0)
(150.50078 1.094956 0)
(150.27284 0.81535754 0)
(150.11214 0.54028883 0)
(150.02456 0.26916631 0)
(150.43875 -1.7254233 0)
(150.84135 -1.7434639 0)
(151.14158 -1.7777056 0)
(151.46428 -1.8293601 0)
(151.79881 -1.8976653 0)
(152.15099 -1.9817283 0)
(152.52461 -2.0801783 0)
(152.92361 -2.1910438 0)
(153.35163 -2.3115833 0)
(153.81186 -2.4381158 0)
(154.30676 -2.565876 0)
(154.8377 -2.6889262 0)
(155.40448 -2.8001693 0)
(156.00486 -2.8915281 0)
(156.63403 -2.9543848 0)
(157.28442 -2.9803144 0)
(157.94584 -2.9619705 0)
(158.60621 -2.8938101 0)
(159.25248 -2.7723626 0)
(159.87151 -2.5959731 0)
(160.45059 -2.3642111 0)
(160.9775 -2.0772437 0)
(161.44023 -1.7354192 0)
(161.82644 -1.3392085 0)
(162.12287 -0.88960209 0)
(162.31495 -0.38902788 0)
(162.38701 0.15723893 0)
(162.32337 0.73946628 0)
(162.10896 1.3421775 0)
(161.73338 1.94273 0)
(161.19461 2.5116547 0)
(160.50329 3.0159744 0)
(159.68399 3.4253635 0)
(158.77235 3.7185539 0)
(157.80919 3.886876 0)
(156.83422 3.9339774 0)
(155.88146 3.8728718 0)
(154.977 3.7219814 0)
(154.1387 3.501502 0)
(153.3772 3.2307236 0)
(152.6975 2.9264238 0)
(152.10061 2.6021562 0)
(151.58495 2.2681655 0)
(151.14761 1.9316697 0)
(150.78497 1.5973063 0)
(150.49295 1.2676449 0)
(150.26784 0.94373492 0)
(150.10983 0.62551188 0)
(150.02402 0.31173437 0)
(150.66219 -1.9210451 0)
(151.0492 -1.9416729 0)
(151.33789 -1.981015 0)
(151.64881 -2.0405627 0)
(151.97212 -2.1195446 0)
(152.31385 -2.2170818 0)
(152.67819 -2.3317781 0)
(153.06956 -2.4615709 0)
(153.49222 -2.6035169 0)
(153.95009 -2.7535664 0)
(154.44648 -2.9063554 0)
(154.98362 -3.0550569 0)
(155.56213 -3.1913399 0)
(156.18036 -3.305524 0)
(156.83368 -3.3870848 0)
(157.51403 -3.4256155 0)
(158.21014 -3.4120776 0)
(158.90842 -3.3398598 0)
(159.59436 -3.2051558 0)
(160.25367 -3.0065365 0)
(160.87299 -2.7440211 0)
(161.43989 -2.4181162 0)
(161.94234 -2.0291681 0)
(162.36787 -1.5771965 0)
(162.70264 -1.0623266 0)
(162.93057 -0.48592823 0)
(163.03337 0.14753813 0)
(162.99172 0.82826987 0)
(162.78538 1.5392589 0)
(162.3985 2.2537517 0)
(161.82486 2.9348978 0)
(161.07447 3.5397205 0)
(160.17633 4.0279843 0)
(159.17447 4.3718913 0)
(158.11936 4.5612108 0)
(157.05902 4.6023797 0)
(156.03299 4.5138332 0)
(155.06991 4.3202484 0)
(154.18778 4.0476349 0)
(153.39582 3.7199938 0)
(152.69681 3.357529 0)
(152.08924 2.9760377 0)
(151.56919 2.5870516 0)
(151.13168 2.1983642 0)
(150.77141 1.8146979 0)
(150.483 1.4383937 0)
(150.2618 1.0700617 0)
(150.10717 0.70902264 0)
(150.02341 0.35333294 0)
(150.91341 -2.1185672 0)
(151.2815 -2.1416593 0)
(151.5568 -2.1859506 0)
(151.85405 -2.2533015 0)
(152.16426 -2.3429942 0)
(152.49367 -2.4542315 0)
(152.84687 -2.5856732 0)
(153.22882 -2.7352589 0)
(153.6445 -2.8999419 0)
(154.09873 -3.0753931 0)
(154.59582 -3.2557109 0)
(155.1391 -3.4331867 0)
(155.7303 -3.5981773 0)
(156.36861 -3.7391899 0)
(157.04972 -3.8434233 0)
(157.76503 -3.8980124 0)
(158.50183 -3.8918097 0)
(159.24453 -3.8169625 0)
(159.97659 -3.6694665 0)
(160.6823 -3.4484697 0)
(161.34765 -3.154822 0)
(161.96015 -2.7896234 0)
(162.50808 -2.3532611 0)
(162.97923 -1.8450904 0)
(163.35941 -1.2638764 0)
(163.63114 -0.60918497 0)
(163.77308 0.11624383 0)
(163.76152 0.90344736 0)
(163.56949 1.7345451 0)
(163.17346 2.5786429 0)
(162.56057 3.3900016 0)
(161.7391 4.1123542 0)
(160.74374 4.6917325 0)
(159.63022 5.0914931 0)
(158.46231 5.2998943 0)
(157.29902 5.3278899 0)
(156.18666 5.2016864 0)
(155.15645 4.9543374 0)
(154.22587 4.61918 0)
(153.40177 4.2257859 0)
(152.6837 3.7981195 0)
(152.0669 3.3542078 0)
(151.54448 2.906663 0)
(151.10898 2.4635702 0)
(150.75314 2.0294457 0)
(150.47013 1.606136 0)
(150.25423 1.1935961 0)
(150.1039 0.79039411 0)
(150.02268 0.39378358 0)
(151.19051 -2.2909257 0)
(151.53868 -2.3166125 0)
(151.79896 -2.36624 0)
(152.08069 -2.4419998 0)
(152.37584 -2.5432439 0)
(152.69088 -2.6693222 0)
(153.03085 -2.819042 0)
(153.40129 -2.9904562 0)
(153.80799 -3.1805371 0)
(154.25679 -3.3847939 0)
(154.75325 -3.5968734 0)
(155.30209 -3.80821 0)
(155.90646 -4.0077693 0)
(156.56681 -4.1819903 0)
(157.27939 -4.3152926 0)
(158.03505 -4.3916521 0)
(158.81916 -4.3971615 0)
(159.61335 -4.3224341 0)
(160.3984 -4.1634585 0)
(161.15678 -3.9204874 0)
(161.87379 -3.5957798 0)
(162.53728 -3.191432 0)
(163.13633 -2.708005 0)
(163.65952 -2.1440059 0)
(164.09284 -1.4962808 0)
(164.41756 -0.76166022 0)
(164.60906 0.060038091 0)
(164.63843 0.96206365 0)
(164.46999 1.9268337 0)
(164.06949 2.9196715 0)
(163.4137 3.8843447 0)
(162.50705 4.7466738 0)
(161.39152 5.4331241 0)
(160.13942 5.8947229 0)
(158.83316 6.1185693 0)
(157.54627 6.1228988 0)
(156.33318 5.9451393 0)
(155.22741 5.6295978 0)
(154.2447 5.2188175 0)
(153.3881 4.7488733 0)
(152.6527 4.2477387 0)
(152.02945 3.7355106 0)
(151.50782 3.2255294 0)
(151.07742 2.7257667 0)
(150.72878 2.2401493 0)
(150.45347 1.7697004 0)
(150.24464 1.3134614 0)
(150.09983 0.86906757 0)
(150.02177 0.43282095 0)
(151.49499 -2.4738445 0)
(151.8188 -2.5022055 0)
(152.06188 -2.5571297 0)
(152.32587 -2.6412523 0)
(152.60371 -2.7540726 0)
(152.902 -2.8951692 0)
(153.22623 -3.0636017 0)
(153.58258 -3.2576681 0)
(153.97773 -3.4745133 0)
(154.41872 -3.7096441 0)
(154.91259 -3.9563917 0)
(155.46579 -4.2054082 0)
(156.08337 -4.4442338 0)
(156.76757 -4.6569942 0)
(157.51568 -4.8247289 0)
(158.31801 -4.927318 0)
(159.15738 -4.9471869 0)
(160.01158 -4.8730537 0)
(160.85764 -4.7013043 0)
(161.67564 -4.4342181 0)
(162.45029 -4.0764231 0)
(163.1702 -3.631652 0)
(163.826 -3.1008593 0)
(164.4079 -2.4814859 0)
(164.90281 -1.7677141 0)
(165.29123 -0.95232349 0)
(165.54522 -0.030499946 0)
(165.62896 0.99512964 0)
(165.49755 2.1090121 0)
(165.10114 3.2741386 0)
(164.40039 4.4222931 0)
(163.39186 5.4549442 0)
(162.12684 6.2698965 0)
(160.70163 6.8004567 0)
(159.22515 7.0336192 0)
(157.79023 6.999378 0)
(156.46075 6.7514855 0)
(155.27147 6.3493655 0)
(154.23446 5.8470193 0)
(153.3469 5.2879314 0)
(152.59774 4.7041218 0)
(151.97246 4.1173448 0)
(151.4561 3.5410952 0)
(151.0349 2.9826596 0)
(150.69697 2.4448817 0)
(150.4322 1.9275671 0)
(150.23259 1.4285521 0)
(150.09477 0.94433468 0)
(150.02066 0.47010134 0)
(151.82145 -2.6141363 0)
(152.12076 -2.6447316 0)
(152.34508 -2.7047733 0)
(152.58941 -2.7972803 0)
(152.84782 -2.9219228 0)
(153.12706 -3.078602 0)
(153.43304 -3.2667714 0)
(153.77259 -3.4851594 0)
(154.15337 -3.7313101 0)
(154.58378 -4.0009789 0)
(155.07259 -4.2874184 0)
(155.6284 -4.5806745 0)
(156.2587 -4.866924 0)
(156.96827 -5.1277841 0)
(157.75619 -5.3401895 0)
(158.61235 -5.4785753 0)
(159.51622 -5.5202415 0)
(160.44011 -5.4513098 0)
(161.35574 -5.2690145 0)
(162.24005 -4.9788739 0)
(163.07734 -4.589095 0)
(163.85785 -4.1057427 0)
(164.57482 -3.5303346 0)
(165.22129 -2.859004 0)
(165.78633 -2.0824849 0)
(166.25048 -1.1879845 0)
(166.5826 -0.16396697 0)
(166.73938 0.99331272 0)
(166.66426 2.2730459 0)
(166.28652 3.6388196 0)
(165.54188 5.0097653 0)
(164.4117 6.2542105 0)
(162.95882 7.2267845 0)
(161.31518 7.8343644 0)
(159.62819 8.0664524 0)
(158.01629 7.9721061 0)
(156.55374 7.628986 0)
(155.27431 7.1167437 0)
(154.18321 6.5034094 0)
(153.26889 5.8405799 0)
(152.51197 5.1639751 0)
(151.89108 4.4962165 0)
(151.38601 3.8500819 0)
(150.97926 3.2313972 0)
(150.65637 2.6413017 0)
(150.40553 2.0779204 0)
(150.21767 1.5375577 0)
(150.08855 1.0153536 0)
(150.01929 0.50521342 0)
(152.17466 -2.7815893 0)
(152.44372 -2.8153282 0)
(152.64675 -2.8812266 0)
(152.86888 -2.9828163 0)
(153.10516 -3.120035 0)
(153.36236 -3.2932092 0)
(153.64674 -3.5023208 0)
(153.96578 -3.7467033 0)
(154.32815 -4.0245184 0)
(154.74375 -4.3320252 0)
(155.22343 -4.6626452 0)
(155.77837 -5.0059993 0)
(156.41922 -5.3469718 0)
(157.15439 -5.6644738 0)
(157.98596 -5.9304062 0)
(158.90397 -6.1117721 0)
(159.88345 -6.1784384 0)
(160.88888 -6.1128377 0)
(161.88436 -5.9139514 0)
(162.84261 -5.5927965 0)
(163.74793 -5.163486 0)
(164.59333 -4.6359246 0)
(165.37601 -4.0129137 0)
(166.09332 -3.2894688 0)
(166.73807 -2.4522419 0)
(167.29224 -1.4808994 0)
(167.72185 -0.35406252 0)
(167.97575 0.94198181 0)
(167.98399 2.4052833 0)
(167.64862 4.0054588 0)
(166.867 5.6507765 0)
(165.592 7.1649923 0)
(163.89973 8.3359313 0)
(161.97666 9.0292348 0)
(160.02752 9.2430068 0)
(158.20443 9.0573622 0)
(156.59184 8.5851875 0)
(155.21816 7.9329405 0)
(154.07683 7.1853557 0)
(153.14355 6.4023152 0)
(152.38796 5.6222381 0)
(151.78027 4.8672722 0)
(151.29428 4.1482213 0)
(150.90845 3.4684357 0)
(150.60573 2.8266003 0)
(150.37276 2.218636 0)
(150.19952 1.6389693 0)
(150.08103 1.0811617 0)
(150.01763 0.53768749 0)
(152.54178 -2.8798041 0)
(152.7815 -2.914941 0)
(152.96176 -2.9850742 0)
(153.15971 -3.0941248 0)
(153.3716 -3.2422884 0)
(153.60416 -3.4304017 0)
(153.86398 -3.6591344 0)
(154.15911 -3.9286685 0)
(154.49926 -4.2381297 0)
(154.896 -4.5847366 0)
(155.36254 -4.9626011 0)
(155.91316 -5.3614237 0)
(156.56248 -5.7652586 0)
(157.32392 -6.1505966 0)
(158.2045 -6.4836755 0)
(159.19542 -6.7216539 0)
(160.26586 -6.8236475 0)
(161.3687 -6.7667872 0)
(162.45662 -6.553237 0)
(163.49646 -6.2028059 0)
(164.47319 -5.7384163 0)
(165.38455 -5.1748587 0)
(166.23364 -4.5158101 0)
(167.02423 -3.7542714 0)
(167.75556 -2.8713355 0)
(168.4135 -1.8362746 0)
(168.96247 -0.61392275 0)
(169.34329 0.82335786 0)
(169.472 2.4868586 0)
(169.21629 4.3601537 0)
(168.41528 6.3472032 0)
(166.96902 8.2137635 0)
(164.96627 9.6418759 0)
(162.6795 10.429065 0)
(160.40122 10.595946 0)
(158.32696 10.273422 0)
(156.54861 9.6265364 0)
(155.08116 8.7966259 0)
(153.89884 7.8873994 0)
(152.95927 6.9661159 0)
(152.21794 6.0718565 0)
(151.63504 5.2241939 0)
(151.17781 4.4302244 0)
(150.82062 3.6895488 0)
(150.54402 2.9975263 0)
(150.33333 2.3473114 0)
(150.17788 1.7311079 0)
(150.07212 1.1406983 0)
(150.01568 0.56700788 0)
(152.93699 -3.0310645 0)
(153.14049 -3.0701505 0)
(153.29541 -3.1468613 0)
(153.46664 -3.2656856 0)
(153.65135 -3.4272509 0)
(153.85598 -3.6331079 0)
(154.08727 -3.884869 0)
(154.3537 -4.1838774 0)
(154.66593 -4.5306119 0)
(155.03721 -4.9237322 0)
(155.4834 -5.3585669 0)
(156.02239 -5.8253332 0)
(156.67363 -6.307582 0)
(157.4574 -6.7795934 0)
(158.38868 -7.2009821 0)
(159.46226 -7.5149755 0)
(160.63985 -7.6635595 0)
(161.85728 -7.6146631 0)
(163.05022 -7.3750424 0)
(164.17755 -6.97816 0)
(165.22682 -6.4605431 0)
(166.20376 -5.8441835 0)
(167.12002 -5.1345158 0)
(167.98793 -4.3239733 0)
(168.81607 -3.3897499 0)
(169.59719 -2.2900785 0)
(170.29528 -0.9723099 0)
(170.84295 0.61051043 0)
(171.14351 2.4900812 0)
(171.02501 4.6786392 0)
(170.24136 7.0944232 0)
(168.5961 9.4336091 0)
(166.18203 11.207698 0)
(163.41157 12.09352 0)
(160.7165 12.166131 0)
(158.34554 11.639646 0)
(156.38986 10.756603 0)
(154.83682 9.7022157 0)
(153.63054 8.5999737 0)
(152.7037 7.5216337 0)
(151.99418 6.5033436 0)
(151.4508 5.5590039 0)
(151.034 4.6897282 0)
(150.71437 3.8898441 0)
(150.4705 3.1504318 0)
(150.2869 2.4613164 0)
(150.1526 1.8121683 0)
(150.06175 1.1928356 0)
(150.01342 0.59262947 0)
(153.33169 -3.076818 0)
(153.50078 -3.116043 0)
(153.62882 -3.1954249 0)
(153.77115 -3.3198147 0)
(153.926 -3.4901472 0)
(154.09947 -3.7086331 0)
(154.29829 -3.9778257 0)
(154.53128 -4.3003126 0)
(154.80995 -4.6781535 0)
(155.1493 -5.1119195 0)
(155.56818 -5.5988999 0)
(156.0887 -6.1307002 0)
(156.73613 -6.6913589 0)
(157.53982 -7.2544052 0)
(158.52746 -7.7735955 0)
(159.70195 -8.1744118 0)
(161.0159 -8.3732963 0)
(162.37902 -8.3244923 0)
(163.70036 -8.0441554 0)
(164.92693 -7.5894204 0)
(166.05132 -7.0193917 0)
(167.09189 -6.3662509 0)
(168.07141 -5.6359783 0)
(169.01247 -4.8188927 0)
(169.93708 -3.8864122 0)
(170.85099 -2.7790472 0)
(171.72207 -1.4149046 0)
(172.4772 0.28402314 0)
(173.01214 2.3776537 0)
(173.11575 4.9213708 0)
(172.42031 7.8764323 0)
(170.55375 10.866632 0)
(167.58159 13.127292 0)
(164.15062 14.105418 0)
(160.92371 14.004723 0)
(158.20685 13.174882 0)
(156.07174 11.973507 0)
(154.4537 10.637666 0)
(153.25146 9.3079469 0)
(152.36449 8.054401 0)
(151.70971 6.9044394 0)
(151.22387 5.8619839 0)
(150.86106 4.9193396 0)
(150.58892 4.0638545 0)
(150.38491 3.2813685 0)
(150.23339 2.5578761 0)
(150.12367 1.8802828 0)
(150.04994 1.2364227 0)
(150.01084 0.6139992 0)
(153.75569 -3.2105228 0)
(153.88268 -3.255426 0)
(153.98163 -3.3424553 0)
(154.09299 -3.4770441 0)
(154.2157 -3.6606989 0)
(154.35516 -3.8966839 0)
(154.51781 -4.1890279 0)
(154.71249 -4.5422736 0)
(154.95118 -4.9609971 0)
(155.2503 -5.4489303 0)
(155.63165 -6.0069178 0)
(156.12193 -6.6295719 0)
(156.75262 -7.3027592 0)
(157.56418 -8.001086 0)
(158.60366 -8.6739733 0)
(159.89074 -9.2230166 0)
(161.368 -9.5216872 0)
(162.90495 -9.4972042 0)
(164.36898 -9.1778298 0)
(165.69041 -8.6551971 0)
(166.87323 -8.0208343 0)
(167.9584 -7.3169 0)
(168.98529 -6.5442435 0)
(169.9892 -5.6889995 0)
(171.01177 -4.7215347 0)
(172.08125 -3.5675695 0)
(173.17389 -2.1154439 0)
(174.20834 -0.25761717 0)
(175.06621 2.0891931 0)
(175.52436 5.0320932 0)
(175.04923 8.656012 0)
(172.96252 12.558855 0)
(169.21551 15.5414 0)
(164.85468 16.579558 0)
(160.94683 16.174545 0)
(157.83669 14.893699 0)
(155.53883 13.26554 0)
(153.89572 11.581254 0)
(152.74048 9.9887705 0)
(151.93042 8.5449899 0)
(151.35922 7.259864 0)
(150.95215 6.1217171 0)
(150.65849 5.110788 0)
(150.44443 4.2057095 0)
(150.28758 3.3862391 0)
(150.17313 2.6341903 0)
(150.0913 1.9336069 0)
(150.03677 1.2703394 0)
(150.00798 0.63058293 0)
(154.13603 -3.1946802 0)
(154.22231 -3.2378809 0)
(154.29033 -3.3244945 0)
(154.36798 -3.460864 0)
(154.45497 -3.6490464 0)
(154.55571 -3.8932514 0)
(154.67605 -4.1987673 0)
(154.82445 -4.5717863 0)
(155.01294 -5.0190318 0)
(155.25899 -5.5471153 0)
(155.58751 -6.1605194 0)
(156.03057 -6.8572038 0)
(156.62673 -7.625048 0)
(157.4296 -8.4414963 0)
(158.5156 -9.2566596 0)
(159.93815 -9.9451354 0)
(161.63227 -10.313356 0)
(163.40427 -10.243879 0)
(165.05397 -9.7924565 0)
(166.48647 -9.1123515 0)
(167.72732 -8.3536484 0)
(168.85533 -7.5750372 0)
(169.93072 -6.7696701 0)
(170.99656 -5.9227068 0)
(172.11532 -5.0183379 0)
(173.3477 -3.9702192 0)
(174.68409 -2.6195438 0)
(176.03287 -0.79605059 0)
(177.28228 1.6461373 0)
(178.24498 4.9155034 0)
(178.21501 9.3274166 0)
(175.983 14.535079 0)
(171.15292 18.674787 0)
(165.44356 19.685658 0)
(160.66921 18.753507 0)
(157.13224 16.799793 0)
(154.72272 14.604311 0)
(153.12358 12.497234 0)
(152.07795 10.610404 0)
(151.39325 8.9683379 0)
(150.94036 7.5513283 0)
(150.63596 6.3253576 0)
(150.42752 5.2552415 0)
(150.28222 4.3094131 0)
(150.1796 3.4610138 0)
(150.10684 2.6875895 0)
(150.05591 1.9704256 0)
(150.02242 1.2935625 0)
(150.00486 0.64189688 0)
(154.44917 -3.3022394 0)
(154.48551 -3.3566729 0)
(154.51866 -3.4545547 0)
(154.55834 -3.6033087 0)
(154.60487 -3.805439 0)
(154.66136 -4.066238 0)
(154.73285 -4.3925659 0)
(154.82708 -4.7929242 0)
(154.95558 -5.2773984 0)
(155.13606 -5.8576208 0)
(155.39586 -6.5454562 0)
(155.77243 -7.3477131 0)
(156.3106 -8.260061 0)
(157.07565 -9.2697689 0)
(158.18316 -10.34153 0)
(159.74876 -11.327796 0)
(161.7094 -11.924423 0)
(163.76891 -11.919021 0)
(165.61625 -11.407362 0)
(167.11991 -10.628216 0)
(168.3471 -9.8215923 0)
(169.4433 -9.0578402 0)
(170.49719 -8.2998288 0)
(171.55037 -7.5092772 0)
(172.69262 -6.6866673 0)
(174.0481 -5.7210599 0)
(175.64976 -4.3714346 0)
(177.40807 -2.3761616 0)
(179.22605 0.47500104 0)
(181.00097 4.3266751 0)
(181.86788 9.7701146 0)
(179.76964 16.835904 0)
(173.45905 22.958852 0)
(165.74647 23.683951 0)
(159.90419 21.828253 0)
(155.95016 18.869609 0)
(153.54168 15.933064 0)
(152.09817 13.33005 0)
(151.24923 11.129255 0)
(150.75032 9.2935249 0)
(150.45538 7.7579976 0)
(150.27891 6.4592287 0)
(150.17159 5.3438307 0)
(150.10503 4.3692425 0)
(150.06289 3.5020128 0)
(150.03575 2.7157267 0)
(150.01815 1.9892766 0)
(150.00716 1.305239 0)
(150.00155 0.64754233 0)
(154.38531 -3.2264132 0)
(154.36104 -3.2763485 0)
(154.35209 -3.3656573 0)
(154.34548 -3.5056649 0)
(154.34209 -3.7001654 0)
(154.34314 -3.9560685 0)
(154.35202 -4.2822212 0)
(154.37465 -4.689835 0)
(154.4205 -5.1926669 0)
(154.50529 -5.8074397 0)
(154.65648 -6.5534341 0)
(154.91618 -7.4463657 0)
(155.33501 -8.487049 0)
(155.98634 -9.6663839 0)
(157.0363 -10.969698 0)
(158.7181 -12.239148 0)
(161.00761 -12.990445 0)
(163.44219 -12.819352 0)
(165.52458 -11.932102 0)
(167.06703 -10.721725 0)
(168.2104 -9.6087531 0)
(169.22024 -8.6682229 0)
(170.23033 -7.7968917 0)
(171.25942 -6.8995242 0)
(172.42045 -6.0540438 0)
(173.93751 -5.1960512 0)
(175.90351 -4.0102295 0)
(178.21013 -2.196733 0)
(180.68137 0.5138926 0)
(183.37351 4.0150882 0)
(185.59558 9.851045 0)
(184.21843 19.141193 0)
(175.9947 28.862683 0)
(165.32564 28.721179 0)
(158.34142 25.418852 0)
(154.09604 21.018279 0)
(151.90623 17.149383 0)
(150.78834 13.997867 0)
(150.25051 11.488967 0)
(150.00811 9.484554 0)
(149.913 7.857692 0)
(149.88886 6.50987 0)
(149.8968 5.3684179 0)
(149.91719 4.3802705 0)
(149.94031 3.5062463 0)
(149.96157 2.7167922 0)
(149.97892 1.9890829 0)
(149.99135 1.3047622 0)
(149.99812 0.64724097 0)
(153.47561 -3.2561422 0)
(153.37705 -3.3298647 0)
(153.30978 -3.4386782 0)
(153.23682 -3.5987935 0)
(153.16066 -3.8142985 0)
(153.08018 -4.0930023 0)
(152.99649 -4.4446987 0)
(152.91279 -4.8820143 0)
(152.83543 -5.4208813 0)
(152.77658 -6.0815749 0)
(152.76201 -6.8904635 0)
(152.83887 -7.876437 0)
(153.06516 -9.0553833 0)
(153.51259 -10.434101 0)
(154.39402 -12.057065 0)
(156.14055 -13.846327 0)
(158.8497 -15.094565 0)
(161.75874 -14.97829 0)
(164.04124 -13.952289 0)
(165.43468 -12.558992 0)
(166.22819 -11.491841 0)
(166.92114 -10.755765 0)
(167.71744 -10.14932 0)
(168.53755 -9.4729424 0)
(169.45584 -9.0181395 0)
(170.86712 -8.8483547 0)
(172.96928 -8.2920827 0)
(175.65779 -7.0428942 0)
(178.57216 -4.476543 0)
(182.42926 -0.72728563 0)
(187.15839 7.2307659 0)
(188.24556 20.228467 0)
(177.92812 36.681029 0)
(163.24699 34.969196 0)
(155.5947 29.536038 0)
(151.35119 23.102782 0)
(149.73668 18.092288 0)
(149.1848 14.388259 0)
(149.09723 11.621624 0)
(149.18648 9.5029441 0)
(149.33031 7.8291582 0)
(149.47858 6.4656285 0)
(149.61204 5.3226115 0)
(149.72459 4.3389851 0)
(149.81557 3.4717862 0)
(149.88647 2.6897353 0)
(149.93934 1.9692822 0)
(149.97543 1.2918439 0)
(149.99467 0.64086759 0)
(150.27861 -3.1552683 0)
(150.03198 -3.2213443 0)
(149.86063 -3.3060065 0)
(149.67254 -3.4358299 0)
(149.47246 -3.6160312 0)
(149.25557 -3.8554384 0)
(149.01942 -4.1649126 0)
(148.76261 -4.559225 0)
(148.48548 -5.0584065 0)
(148.19176 -5.6900259 0)
(147.89692 -6.4944194 0)
(147.64242 -7.5277663 0)
(147.48317 -8.8431698 0)
(147.45914 -10.471257 0)
(147.78384 -12.507505 0)
(149.20302 -15.035363 0)
(152.18258 -17.053633 0)
(155.43125 -16.589299 0)
(157.5861 -14.746134 0)
(158.33639 -12.183461 0)
(158.23481 -10.348645 0)
(158.16906 -9.1901396 0)
(158.40396 -8.4350455 0)
(158.60251 -7.5247569 0)
(158.71873 -7.0237647 0)
(159.66765 -7.0176178 0)
(161.78113 -5.9947865 0)
(164.94962 -4.8735822 0)
(168.68335 -1.9567619 0)
(175.06207 4.1667692 0)
(184.04686 12.175431 0)
(189.65396 24.095431 0)
(176.92314 49.629303 0)
(157.54553 45.387774 0)
(150.91436 34.317507 0)
(147.40324 24.793055 0)
(146.95732 18.491098 0)
(147.31608 14.34994 0)
(147.83444 11.452162 0)
(148.32309 9.3129413 0)
(148.73401 7.6556658 0)
(149.06588 6.318789 0)
(149.32881 5.2029575 0)
(149.53445 4.2439436 0)
(149.69303 3.3981255 0)
(149.81295 2.6344619 0)
(149.90068 1.9299354 0)
(149.95989 1.266572 0)
(149.99131 0.62847587 0)
(143.5099 -2.9198274 0)
(143.10987 -3.0121926 0)
(142.7997 -3.1137186 0)
(142.45147 -3.263317 0)
(142.07689 -3.4659034 0)
(141.66672 -3.731616 0)
(141.21292 -4.0727751 0)
(140.70609 -4.5065459 0)
(140.13586 -5.056696 0)
(139.49026 -5.7559301 0)
(138.76264 -6.6519249 0)
(137.97551 -7.8156714 0)
(137.18231 -9.3207438 0)
(136.39285 -11.178066 0)
(135.76004 -13.444299 0)
(136.50386 -16.540641 0)
(140.14376 -19.656621 0)
(144.25781 -18.174225 0)
(146.43866 -15.446629 0)
(146.26447 -11.967184 0)
(144.63857 -10.768965 0)
(143.25526 -10.900758 0)
(142.63852 -11.370379 0)
(142.04304 -10.884921 0)
(141.16563 -10.369116 0)
(141.99173 -10.532128 9.2157699e-18)
(143.27224 -11.921801 -2.0396632e-19)
(145.57726 -13.589594 0)
(146.66477 -7.4755453 1.0016066e-17)
(144.0282 -14.51005 -7.4990618e-18)
(161.53017 -10.135072 4.4273291e-18)
(180.41243 5.4383807 -9.8916344e-18)
(167.93166 72.289495 6.3471816e-18)
(142.12824 58.029221 0)
(140.66652 37.126152 0)
(141.63428 24.706923 0)
(143.57067 17.830773 0)
(145.29833 13.69264 0)
(146.55469 10.912849 0)
(147.47727 8.891306 0)
(148.16032 7.3301404 0)
(148.67269 6.0680695 0)
(149.06042 5.01013 0)
(149.35481 4.0963442 0)
(149.57745 3.2864568 0)
(149.74366 2.5519729 0)
(149.86425 1.8717968 0)
(149.94526 1.2294452 0)
(149.98814 0.61031299 0)
(129.54799 -2.8693148 0)
(128.76409 -2.9446579 0)
(128.16038 -3.0084931 0)
(127.4861 -3.1100026 0)
(126.76119 -3.2511099 0)
(125.96659 -3.4389886 0)
(125.08413 -3.6816047 0)