/*--------------------------------*- C++ -*----------------------------------*\
| =========                 |                                                 |
| \\      /  F ield         | foam-extend: Open Source CFD                    |
|  \\    /   O peration     | Version:     4.1                                |
|   \\  /    A nd           | Web:         http://www.foam-extend.org         |
|    \\/     M anipulation  |                                                 |
\*---------------------------------------------------------------------------*/
FoamFile
{
    version     2.0;
    format      ascii;
    class       volScalarField;
    location    "2.55";
    object      p;
}
// * * * * * * * * * * * * * * * * * * * * * * * * * * * * * * * * * * * * * //

dimensions      [0 2 -2 0 0 0 0];

internalField   nonuniform List<scalar> 
4393
(
-46.41827
-92.981801
-146.74658
-201.53765
-258.52841
-318.02957
-380.42407
-446.02147
-515.04602
-587.60787
-663.67499
-743.04496
-825.31965
-909.88649
-995.91024
-1082.3383
-1167.9202
-1251.2385
-1330.7462
-1404.8059
-1471.7264
-1529.7972
-1577.3237
-1612.6682
-1634.3031
-1640.8853
-1631.3604
-1605.1086
-1562.023
-1502.6038
-1428.0623
-1340.304
-1241.8232
-1135.5205
-1024.4765
-911.72579
-800.06782
-691.93525
-589.3252
-493.78585
-406.44462
-328.0626
-259.10033
-199.78366
-150.17396
-110.24023
-79.763151
-57.832208
-43.627912
-45.166106
-92.395981
-146.034
-200.67383
-257.49548
-316.84185
-379.10951
-444.6201
-513.60971
-586.20055
-662.37219
-741.93227
-824.48974
-909.43449
-995.92806
-1082.9089
-1169.1128
-1253.1059
-1333.3244
-1408.1149
-1475.7716
-1534.5694
-1582.7972
-1618.7953
-1641.0074
-1648.0567
-1638.8537
-1612.7036
-1569.4359
-1509.544
-1434.2446
-1345.4784
-1245.8053
-1138.2116
-1025.8679
-911.88867
-799.13359
-690.07191
-586.71518
-490.60821
-402.86274
-324.21728
-255.10975
-195.75317
-146.20041
-106.36013
-75.961492
-54.862557
-44.264386
-44.361867
-91.499228
-144.77572
-199.05477
-255.52559
-314.56072
-376.57885
-441.92388
-510.85505
-583.51825
-659.9159
-739.87528
-823.01865
-908.73977
-996.19225
-1084.2946
-1171.7531
-1257.0995
-1338.7352
-1414.9749
-1484.0842
-1544.31
-1593.909
-1631.1783
-1654.5011
-1662.4207
-1653.7589
-1627.7379
-1584.0955
-1523.2531
-1446.422
-1355.6118
-1253.5192
-1143.309
-1028.3379
-911.88373
-796.92615
-686.00486
-581.15552
-483.91039
-395.34361
-316.14205
-246.68979
-187.1562
-137.55067
-97.687836
-67.257729
-46.702805
-37.920276
-43.571148
-90.203483
-142.872
-196.57254
-252.49933
-311.05354
-372.68268
-437.76261
-506.58739
-579.3394
-656.05689
-736.59855
-820.60878
-907.48883
-996.38115
-1086.1739
-1175.5278
-1262.9212
-1346.7024
-1425.1386
-1496.4544
-1558.8582
-1610.5621
-1649.8027
-1674.8748
-1684.1994
-1676.4521
-1650.704
-1606.5448
-1544.2892
-1465.1353
-1371.199
-1265.3938
-1151.1694
-1032.1786
-911.95593
-793.667
-679.95735
-572.89536
-473.98949
-384.25262
-304.29091
-234.40462
-174.68791
-125.07513
-85.291305
-55.022118
-34.934168
-26.790044
-42.746013
-88.586061
-140.40161
-193.29783
-248.4766
-306.36991
-367.46075
-432.1665
-500.82781
-573.67696
-650.80201
-732.10619
-817.26619
-905.69524
-996.52106
-1088.589
-1180.4946
-1270.6403
-1357.3005
-1438.679
-1512.9481
-1578.27
-1632.8042
-1674.713
-1702.1781
-1713.4587
-1707.029
-1681.7389
-1636.9528
-1572.8176
-1490.4975
-1392.2536
-1281.3115
-1161.5347
-1037.0026
-911.6132
-788.78887
-671.31364
-561.29014
-460.18291
-368.9115
-287.96534
-217.52572
-157.57756
-107.95357
-68.296511
-38.29966
-18.683301
-10.926892
-41.737436
-86.536873
-137.25305
-189.11397
-243.33035
-300.36938
-360.75681
-424.96183
-493.38467
-566.32277
-643.93054
-726.17214
-812.77005
-903.15668
-996.44206
-1091.414
-1186.5792
-1280.2367
-1370.5624
-1455.6796
-1533.7002
-1602.7367
-1660.8934
-1706.249
-1736.85
-1750.7504
-1746.1563
-1721.615
-1676.1689
-1609.7097
-1523.33
-1419.4772
-1301.8087
-1174.7658
-1043.0177
-910.95455
-782.33309
-660.10537
-546.39996
-442.6051
-349.50299
-267.41953
-196.37216
-136.19499
-86.586625
-47.090351
-17.368603
1.895447
9.434269
-40.595506
-84.127157
-133.49116
-184.07004
-237.08788
-293.05295
-352.54154
-416.08539
-484.15849
-557.14061
-635.27201
-718.59798
-806.90486
-899.65514
-995.93936
-1094.4703
-1193.6349
-1291.5939
-1386.3952
-1476.0638
-1558.6462
-1632.2097
-1694.8101
-1744.4433
-1779.0048
-1796.3011
-1794.1935
-1770.8248
-1724.7863
-1655.586
-1564.1761
-1453.232
-1326.9987
-1190.7118
-1049.8412
-909.42584
-773.64338
-645.63651
-527.53702
-420.6086
-325.43843
-242.13247
-170.49407
-110.16486
-60.679724
-21.460594
7.9042129
26.823778
34.191042
-39.186004
-81.205537
-128.95642
-178.00156
-229.57698
-284.23726
-342.61681
-405.32123
-472.91361
-545.87561
-624.5565
-709.10796
-799.40436
-894.95475
-994.83027
-1097.6466
-1201.6305
-1304.7571
-1404.9087
-1499.9922
-1587.9888
-1666.9347
-1734.8566
-1789.6811
-1829.1466
-1850.7724
-1851.9886
-1830.4102
-1784.0052
-1711.709
-1614.2141
-1494.4631
-1357.4973
-1209.643
-1057.4493
-906.79872
-762.38304
-627.54413
-504.37041
-393.92793
-296.53022
-211.99138
-139.84071
-79.481255
-30.253072
8.5657681
37.490268
56.043903
63.248659
-37.653444
-77.930923
-123.79685
-171.03281
-220.89018
-273.97544
-330.98867
-392.62099
-459.54154
-532.35641
-611.55183
-697.41812
-789.95094
-888.73167
-992.81678
-1100.6982
-1210.3872
-1319.6101
-1426.0327
-1527.4228
-1621.7032
-1706.907
-1781.0685
-1842.0769
-1887.5229
-1914.6048
-1920.2262
-1901.3232
-1855.0119
-1779.376
-1674.6454
-1544.0579
-1393.7393
-1231.5241
-1065.4179
-902.39113
-747.74694
-605.0107
-476.14641
-361.91649
-262.25646
-176.5993
-104.13032
-43.963097
4.7914577
43.023783
71.374892
89.494217
96.517029
-35.74881
-74.004814
-117.69205
-162.83149
-210.68179
-261.90416
-317.27066
-377.56952
-443.59399
-516.10025
-595.74465
-682.99655
-778.01777
-880.50093
-989.49985
-1103.3488
-1219.767
-1336.1396
-1449.847
-1558.492
-1659.9568
-1752.3184
-1833.6802
-1901.9526
-1954.611
-1988.5128
-1999.9352
-1984.9551
-1939.5402
-1860.5125
-1747.2972
-1603.4218
-1436.5074
-1256.5008
-1073.3828
-895.51872
-728.91346
-577.21772
-442.1378
-323.98087
-222.16718
-135.63942
-63.159442
-3.4979561
44.496657
81.904488
109.50759
127.089
133.89271
-33.79863
-69.806228
-111.02786
-153.76788
-199.29475
-248.32724
-301.71445
-360.3524
-425.17727
-497.12396
-577.05812
-665.67847
-763.37404
-870.00846
-984.66008
-1105.4661
-1229.7461
-1354.4136
-1476.4672
-1593.3171
-1702.84
-1803.2311
-1892.7561
-1969.4399
-2030.7075
-2073.0753
-2092.1036
-2082.7927
-2039.5856
-1957.4486
-1834.4241
-1674.2473
-1486.6342
-1284.5443
-1080.6574
-885.116
-704.69057
-543.02738
-401.36498
-279.34214
-175.68579
-88.716478
-16.683745
42.039573
88.898565
125.17888
151.81137
168.71729
175.25005
-31.322725
-64.748341
-103.16395
-143.16706
-186.01787
-232.49037
-283.51336
-340.10034
-403.35014
-474.40898
-554.39848
-644.30955
-744.84085
-856.11842
-977.29902
-1106.2776
-1239.8196
-1374.1693
-1505.8013
-1631.8964
-1750.3825
-1859.68
-1958.3489
-2044.6711
-2116.1355
-2168.9571
-2197.9197
-2196.6907
-2157.7325
-2073.3253
-1939.1482
-1758.8895
-1545.255
-1315.6016
-1086.3276
-869.81847
-673.60677
-501.08687
-352.7078
-227.14589
-122.2085
-35.439671
35.518393
92.743057
137.99748
172.78092
198.17313
214.23513
220.43266
-28.935348
-59.575003
-94.898044
-131.84683
-171.67518
-215.21013
-263.45961
-317.5606
-378.79194
-448.54469
-528.24812
-619.25838
-722.68934
-839.06419
-967.71667
-1106.2531
-1250.6594
-1396.2153
-1538.6634
-1674.9218
-1803.0777
-1921.9451
-2030.5692
-2127.6997
-2211.0799
-2276.7104
-2318.5364
-2328.6704
-2297.0936
-2212.1921
-2065.6519
-1860.4852
-1613.7493
-1349.4069
-1089.0111
-847.73835
-633.73465
-449.70508
-294.82724
-166.4169
-61.081384
24.586043
93.645868
148.6694
191.75113
224.60068
248.43746
263.45911
269.2463
-25.83418
-53.293403
-85.1333
-118.63353
-155.00878
-195.12755
-240.07103
-291.1018
-349.69454
-417.52227
-496.38335
-588.08827
-694.30518
-816.1606
-953.35334
-1103.1786
-1260.5219
-1419.2471
-1574.0532
-1721.5573
-1860.1744
-1989.3361
-2108.7968
-2218.0397
-2315.3459
-2396.6699
-2455.0968
-2481.0198
-2461.4975
-2379.4189
-2219.7581
-1983.4124
-1693.8847
-1385.4099
-1086.7045
-816.33251
-582.61607
-386.83328
-226.18357
-96.095762
8.3587117
91.722775
157.84478
209.8162
250.05845
280.47314
302.39861
316.15968
321.45247
-22.988269
-47.105599
-75.19422
-104.93102
-137.49252
-173.77993
-214.939
-262.3544
-317.70619
-382.9836
-460.41843
-552.36993
-661.22072
-788.98782
-936.05525
-1099.4241
-1272.3861
-1446.6588
-1615.3976
-1774.882
-1924.158
-2063.6284
-2194.0745
-2316.1132
-2429.0546
-2529.1506
-2608.6684
-2656.1731
-2655.5153
-2582.0933
-2409.6774
-2133.891
-1787.8782
-1422.5328
-1076.4502
-772.13832
-517.1064
-310.00227
-145.03272
-15.064504
86.749003
166.26571
228.18006
276.10008
312.74398
340.16731
359.7929
372.05528
376.76312
-19.233999
-39.566118
-63.483955
-89.028629
-117.28546
-149.16089
-185.8417
-228.81594
-279.96323
-341.61479
-416.50476
-507.6452
-618.31816
-751.84275
-909.86974
-1089.2874
-1281.1051
-1473.7725
-1658.1738
-1830.2916
-1990.3738
-2140.3274
-2282.2796
-2418.371
-2549.5396
-2672.7613
-2779.4821
-2856.4146
-2884.4361
-2829.5602
-2647.246
-2321.087
-1898.5225
-1458.8317
-1053.8856
-710.45792
-433.22525
-216.29689
-49.466861
77.789733
174.63827
248.39183
304.59748
347.33028
379.54041
403.3752
420.29177
430.80764
434.83669
-15.909556
-32.367234
-51.889423
-72.94611
-96.528031
-123.52989
-155.16102
-192.99607
-239.10664
-296.19268
-367.57379
-457.02991
-568.9216
-708.39578
-879.34008
-1079.0096
-1295.0589
-1510.7435
-1713.4126
-1898.7624
-2069.1469
-2228.6984
-2381.1215
-2530.4772
-2680.3854
-2829.6036
-2969.1765
-3084.3378
-3154.0987
-3134.0109
-2949.9599
-2559.1606
-2029.2976
-1490.9054
-1012.5344
-624.92451
-325.9915
-102.36329
62.502665
183.47669
272.40189
338.09611
386.87979
423.18047
450.07147
469.70195
483.4964
492.01886
495.27614
-11.483929
-23.591252
-38.294673
-54.438624
-72.848067
-94.363141
-120.16986
-151.87501
-191.68054
-242.61929
-308.63669
-394.36242
-505.33294
-649.10792
-833.41828
-1057.118
-1303.0124
-1546.0298
-1768.1207
-1964.9807
-2142.9741
-2309.8845
-2471.3078
-2633.6115
-2804.7352
-2986.7699
-3170.3478
-3338.4981
-3469.9065
-3511.2589
-3344.1366
-2870.7982
-2184.1431
-1512.87
-942.74501
-506.96165
-189.29459
35.498699
192.78362
302.75066
380.12578
435.11304
474.59774
503.16018
523.83646
538.65837
548.93486
555.23098
557.62929
-7.5459502
-15.399254
-25.214344
-36.272594
-49.208244
-64.76802
-84.068861
-108.69877
-140.93279
-184.11067
-242.90314
-322.9823
-431.14896
-577.96548
-777.58711
-1033.2897
-1320.8801
-1601.2873
-1847.8977
-2056.6836
-2241.3069
-2415.234
-2585.4239
-2759.5247
-2951.4772
-3168.7935
-3401.8412
-3630.665
-3839.9339
-3979.4504
-3868.0218
-3294.1301
-2367.8697
-1515.4534
-830.29326
-345.15963
-15.871947
201.0952
342.92649
435.89042
497.45829
538.82673
567.05996
586.58922
600.1989
609.65739
616.06267
619.92851
621.39211
-2.4940575
-5.6554105
-10.105293
-15.57381
-22.444955
-31.342332
-43.273784
-59.749292
-83.012903
-116.56741
-165.75601
-237.36408
-339.18022
-484.64151
-697.71888
-992.03935
-1333.7672
-1659.6113
-1930.1028
-2142.1464
-2323.1197
-2495.6056
-2666.7927
-2843.1719
-3048.9945
-3303.1737
-3599.0874
-3914.1974
-4241.4069
-4553.2174
-4583.0233
-3903.4783
-2589.3111
-1483.2202
-653.43084
-124.34826
202.50742
397.84722
513.68355
582.39893
623.43332
648.17741
663.2686
672.58006
678.38244
682.01644
684.26803
685.54486
686.01542
2.9587878
3.9729871
4.5462641
4.3727863
3.3873657
1.1547315
-3.1200809
-10.72394
-23.652204
-45.261035
-81.37423
-140.13072
-230.27323
-367.38826
-589.87756
-934.91037
-1357.8536
-1750.6932
-2054.8899
-2266.9249
-2439.8805
-2611.5587
-2788.5985
-2969.4135
-3193.9259
-3500.0124
-3883.297
-4313.092
-4763.9031
-5291.52
-5573.8101
-4825.3576
-2837.3018
-1376.2418
-376.92567
174.90854
474.14921
627.83451
704.34017
740.62138
756.28043
761.57929
761.89129
760.03438
757.47747
754.96739
752.88238
751.47266
750.91514
8.2851128
13.265326
19.323541
25.158004
31.02071
36.677962
41.595241
44.763242
44.510599
37.800031
18.452319
-23.538977
-98.146584
-220.10629
-443.94187
-853.46411
-1397.2819
-1876.4147
-2210.7429
-2392.8793
-2530.4283
-2685.6833
-2862.7825
-3027.8148
-3238.6399
-3573.5314
-4023.7137
-4561.7459
-5089.7116
-5960.3608
-6823.718
-6299.5144
-3074.0128
-1170.9514
36.506816
572.65502
805.01215
890.17374
911.7992
907.31733
893.25935
876.87546
861.26388
847.66131
836.46187
827.67558
821.1969
817.07832
815.486
17.841142
25.859713
36.761767
47.719799
59.416716
71.801493
84.631691
97.25867
108.52252
116.23603
114.96675
93.715605
41.620204
-49.538197
-244.67529
-715.15117
-1441.8799
-2033.6099
-2413.3729
-2545.7121
-2643.0181
-2787.1989
-2982.1458
-3113.6796
-3276.6772
-3677.6986
-4224.3712
-4961.7031
-5679.3054
-7242.8538
-8882.0925
-9068.3526
-3578.1296
-1038.2193
635.19333
1099.0922
1197.3511
1178.9796
1129.5275
1077.2886
1030.5877
991.36674
959.44133
934.0245
914.2387
899.26874
888.48492
881.7204
879.11843
22.150584
30.895258
46.13678
62.238293
80.171648
100.10842
122.29231
146.74806
173.26316
201.23875
227.41535
240.71485
225.96344
180.3457
45.408798
-483.28423
-1555.1587
-2311.4992
-2773.6623
-2771.0087
-2749.6655
-2813.1449
-3022.6407
-3099.9055
-3207.1635
-3763.2633
-4232.9945
-5185.2219
-6470.843
-7863.4475
-9589.1441
-12103.54
-4823.2656
-72.51485
1722.8308
1811.9828
1641.1423
1478.7602
1346.2297
1243.2035
1163.5573
1101.9566
1054.3115
1017.6218
989.69051
968.87455
954.02895
944.77075
941.21746
36.937092
46.533261
66.460148
87.314088
110.74818
137.07758
166.9068
200.72109
238.86239
281.66298
327.57493
365.35527
371.82678
347.26639
293.74168
-191.10946
-1818.0782
-2617.135
-3115.4962
-2772.7575
-2626.8082
-2732.5428
-3131.7556
-3271.1273
-3302.4337
0
0
0
0
0
0
0
0
6202.3752
3402.4563
2582.4955
2068.2386
1755.8595
1545.1253
1396.0885
1287.0015
1205.4551
1143.7779
1096.9952
1061.747
1035.6642
1017.1505
1005.6369
1001.2225
35.366751
42.182765
64.028462
87.075164
113.20503
142.73989
176.5795
215.67685
261.07508
314.42491
377.59051
445.98964
502.79983
560.82588
710.68076
552.80434
-1996.7852
-2776.9624
-3646.9056
-2968.6373
-3044.336
-3012.3244
0
0
0
0
0
0
0
0
0
0
10129.574
6286.2537
4123.9548
3000.3244
2361.313
1969.1781
1709.0493
1527.5633
1396.286
1299.0428
1225.9925
1170.8555
1129.4571
1098.8968
1077.2398
1063.7841
1058.6266
44.263801
54.950286
80.950107
106.97769
136.15454
169.03621
206.87595
251.10447
303.50647
367.08076
447.11696
546.08885
653.28895
754.39114
842.19551
568.4731
-3108.2258
-3581.5987
-3205.2808
0
0
0
0
0
0
0
0
0
0
0
1780.6717
3364.5943
5756.1165
5236.0897
3961.3824
3100.1685
2507.1431
2107.7402
1830.6544
1632.9921
1488.4298
1380.7309
1299.5698
1238.1936
1192.0515
1157.9577
1133.7808
1118.7536
1112.9926
22.191618
42.166366
66.371078
91.285026
118.75254
149.54747
184.7435
225.50562
273.13276
329.83015
399.50028
478.02755
537.53029
536.24746
558.10661
702.38698
0
0
0
0
0
0
-1132.0671
-1103.5227
-1011.3052
-917.55595
-790.08495
-495.29891
-94.947372
697.08379
2026.4398
3361.9106
4750.9873
4489.8576
3714.8021
3058.6866
2552.6655
2182.2204
1911.4457
1711.6615
1562.3547
1449.5321
1363.6925
1298.345
1248.9835
1212.3854
1186.3705
1170.178
1163.9662
19.954002
50.022215
74.970565
100.54394
127.96177
158.05699
191.47993
228.66522
269.5723
313.41831
357.90009
396.56259
406.1493
338.092
142.01795
-338.13506
-1284.4171
-1227.4746
-1147.1012
-1100.4779
-1051.081
-1021.6124
-1010.3636
-803.28868
-838.68173
-583.18141
-362.34487
-204.61729
259.08282
904.85459
1960.2926
3049.3233
3956.5654
3851.8967
3404.2981
2933.5972
2528.4617
2206.0156
1956.7041
1765.4225
1618.5289
1505.3809
1418.1055
1351.0013
1299.9424
1261.8834
1234.7285
1217.7885
1211.284
20.663329
46.48544
72.120327
97.97189
125.28654
154.81533
187.13934
222.62518
261.25934
302.1344
342.03532
373.73587
384.81891
353.15848
205.21582
-227.92201
-792.3049
-920.95872
-962.54766
-966.15038
-887.80247
-842.31988
-818.54901
-691.79964
-620.9433
-417.54005
-179.14314
77.742996
510.88697
1096.4663
1896.1868
2721.5882
3334.8855
3356.8268
3105.6568
2777.1432
2463.3575
2193.8101
1973.5975
1797.6786
1658.5138
1548.9432
1463.0389
1396.1805
1344.8436
1306.3178
1278.698
1261.4186
1254.7758
14.99659
36.230621
58.797053
81.291131
104.29098
128.03568
152.53069
177.41617
201.79022
223.68943
238.89717
240.18139
218.24917
159.2146
15.075211
-283.9119
-606.903
-732.46436
-784.51814
-794.28607
-753.12488
-703.4738
-642.23458
-537.76173
-423.88602
-238.24287
-11.498389
269.88393
668.6085
1187.7222
1823.2423
2450.8964
2889.5205
2967.0587
2834.9721
2613.0012
2376.1815
2157.6762
1969.1885
1812.3856
1684.4723
1581.3763
1499.091
1434.1697
1383.8001
1345.7039
1318.2395
1300.9995
1294.3627
23.838364
46.444905
70.189921
93.656246
117.54436
141.96116
166.72615
191.21066
214.09596
232.81536
242.68456
236.67017
205.98893
135.39773
-7.2592378
-236.55087
-460.15453
-579.80554
-635.3829
-644.54058
-615.83431
-568.2924
-497.28071
-394.45963
-264.34877
-82.93262
139.16122
416.1136
777.02669
1223.7721
1735.5102
2221.7455
2557.2301
2658.5602
2599.6227
2454.8463
2280.1779
2107.1228
1949.7497
1813.469
1698.7943
1604.1109
1527.1063
1465.4577
1417.0851
1380.1847
1353.418
1336.5534
1330.0513
12.024203
29.927715
50.032234
70.035834
90.041159
109.92742
129.38637
147.74715
163.761
175.18295
178.3159
168.06176
137.63872
74.654467
-40.055018
-203.50754
-358.80703
-456.74731
-506.0788
-514.23336
-488.92982
-440.00533
-365.68895
-262.60055
-128.53824
46.964441
261.85468
525.19111
849.67441
1232.3375
1648.6363
2032.8058
2301.9489
2411.5832
2398.1277
2308.5355
2183.1596
2048.9511
1920.3869
1804.4655
1703.8311
1618.6751
1548.0642
1490.6662
1445.0904
1410.0051
1384.3869
1368.1815
1361.9233
21.407259
40.63243
60.854125
80.3678
99.453712
117.84362
135.02385
150.10194
161.62919
167.32386
163.94561
147.54872
113.08123
52.273762
-43.556822
-165.61519
-279.00323
-356.12462
-395.68984
-400.45652
-375.18723
-324.72537
-248.67381
-145.28243
-11.773942
156.79267
361.05931
606.02211
895.95188
1224.416
1567.8664
1878.5076
2101.9971
2212.1876
2227.1467
2176.7607
2089.8437
1988.0678
1885.0999
1788.3899
1701.7413
1626.5697
1562.9909
1510.491
1468.2867
1435.486
1411.37
1396.0509
1390.125
11.864137
27.968653
45.959775
63.611688
80.820635
97.232096
112.31687
125.22227
134.61735
138.50986
134.22503
118.55923
87.502424
35.67979
-40.002143
-130.43163
-213.52468
-271.8306
-300.84891
-300.62635
-273.46187
-221.63369
-145.03172
-42.510893
87.994441
248.90882
441.01391
666.30059
924.57426
1207.7344
1495.177
1752.1624
1942.6282
2049.7639
2082.4753
2059.9382
2002.6782
1927.6336
1846.8494
1767.6916
1694.4093
1629.1884
1572.8939
1525.6525
1487.1886
1456.9988
1434.6432
1420.3807
1414.8539
17.140353
33.237316
50.220023
66.364831
81.714428
95.886878
108.32944
118.22235
124.38347
125.18581
118.61243
102.36258
73.691172
29.625552
-29.988758
-97.382046
-158.13638
-200.46202
-219.38481
-213.5343
-183.55761
-130.34303
-53.764121
46.960528
173.10574
325.77681
505.17512
711.2465
941.41841
1187.1582
1431.2314
1648.3114
1813.9322
1916.4939
1960.2187
1957.498
1922.9611
1869.6952
1807.8367
1744.3105
1683.4266
1627.7752
1578.7191
1536.8593
1502.3258
1474.9439
1454.5175
1441.4278
1436.3464
11.96587
26.365711
42.104208
57.216654
71.535852
84.633888
95.955671
104.72799
109.89863
110.11366
103.80217
89.276794
64.758402
28.907438
-17.019539
-66.703564
-110.24997
-139.22877
-148.99443
-137.55122
-104.54771
-50.079455
26.068111
124.39901
245.54607
389.78565
556.64748
744.78778
950.4688
1165.4735
1375.7035
1562.5376
1708.9273
1806.4499
1856.8891
1868.2991
1851.1311
1815.4435
1769.5686
1719.7249
1670.096
1623.4069
1581.325
1544.7831
1514.221
1489.7315
1471.3239
1459.4742
1454.8659
13.672514
27.359574
41.871679
55.550806
68.315815
79.771314
89.415603
96.581317
100.40735
99.84913
93.763731
81.007309
60.559661
32.098556
-2.5892979
-38.476497
-68.50161
-86.407589
-88.109946
-71.431159
-35.489487
20.054183
95.479525
191.07396
307.00146
442.9737
597.96315
769.86586
954.48585
1144.302
1327.897
1491.4046
1622.6062
1715.1567
1769.5578
1791.0638
1787.1665
1765.5772
1733.0733
1695.058
1655.4635
1616.9945
1581.471
1550.0422
1523.3734
1501.7675
1485.4001
1474.8152
1470.6913
11.353741
24.027829
37.645132
50.500608
62.432458
73.046907
81.880192
88.352187
91.760861
91.312805
86.206226
75.732853
59.446119
37.651147
12.276116
-12.652314
-31.896803
-40.645064
-35.404999
-14.037766
24.575545
80.988471
155.49861
248.21871
358.97865
487.10036
631.16273
788.66217
955.3491
1124.5375
1286.9999
1432.2482
1551.2804
1639.181
1695.7797
1724.5054
1730.7501
1720.4243
1699.0134
1671.1269
1640.3516
1609.2937
1579.8157
1553.1933
1530.2479
1511.4414
1497.0799
1487.7493
1484.1078
11.407408
23.29599
35.923481
47.754383
58.666265
68.305137
76.268599
82.076878
85.182721
85.010521
81.033382
72.87645
60.489185
44.522138
26.84732
10.721205
0.16252018
-1.0282433
10.105455
35.55399
76.49885
133.5736
207.05517
296.91497
402.74687
523.60928
657.83554
802.75922
954.29726
1106.6007
1252.1845
1382.9755
1492.1646
1575.8548
1633.5315
1667.4214
1681.4224
1680.0721
1667.8003
1648.5064
1625.3922
1600.9185
1576.9178
1554.7271
1535.2679
1519.1187
1506.6846
1498.5704
1495.3986
10.343692
21.515204
33.41848
44.560569
54.805732
63.829528
71.28586
76.787162
79.922993
80.301777
77.620735
71.762783
62.951159
52.019581
40.711794
31.704873
28.182117
33.206487
49.281336
78.204454
121.12222
178.668
251.07271
338.19339
439.45914
553.75829
679.2933
813.38265
952.21552
1090.7115
1222.7515
1342.0032
1443.1851
1523.1435
1581.1972
1618.7739
1638.7038
1644.4829
1639.6904
1627.6167
1611.0829
1592.3713
1573.2515
1555.0722
1538.8131
1525.135
1514.5165
1507.5611
1504.8394
9.9406003
20.47635
31.670305
42.130037
51.740122
60.213393
67.259828
72.575303
75.865393
76.886843
75.510512
71.807562
66.178367
59.538272
53.481559
50.250066
52.431863
62.544096
82.715288
114.54303
159.08962
216.94408
288.27823
372.85697
469.99621
578.48233
696.46786
821.34189
949.60225
1076.8387
1197.9927
1307.9984
1402.6585
1479.37
1537.3816
1577.5853
1602.0459
1613.4717
1614.7642
1608.7017
1597.7597
1584.0284
1569.1943
1554.5866
1541.2124
1529.7897
1520.8527
1514.9873
1512.6935
9.3564818
19.364672
30.008314
39.95635
49.101921
57.19194
63.988386
69.261623
72.816081
74.529401
74.408087
72.661263
69.801744
66.769781
65.0181
66.45965
73.249582
87.495619
111.02126
145.23584
191.09843
249.13297
319.44862
401.73672
495.23721
598.68223
710.2266
827.37323
946.92388
1065.0321
1177.4573
1280.0605
1369.4253
1443.3601
1501.0942
1543.1583
1571.0667
1586.9346
1593.1294
1592.007
1585.7418
1576.2384
1565.092
1553.596
1542.7636
1533.3524
1525.9436
1521.096
1519.2105
8.9349189
18.485924
28.650071
38.160485
46.922882
54.715755
61.346656
66.648666
70.50644
72.892379
73.915276
73.881821
73.372978
73.32372
75.062159
80.252116
90.729992
108.29456
134.52475
170.66349
217.56529
275.68332
345.06679
425.34918
515.72105
614.89187
721.04881
831.82344
944.29389
1055.0746
1160.5507
1257.2641
1342.3651
1413.9708
1471.3165
1514.6885
1545.2058
1564.5397
1574.6427
1577.5291
1575.1201
1569.1527
1561.1298
1552.3026
1543.6752
1536.0297
1529.9956
1526.1075
1524.6262
8.5490834
17.743423
27.539668
36.720623
45.201184
52.788191
59.328882
64.708811
68.877219
71.880065
73.902308
75.318394
76.74879
79.109706
83.625642
91.773014
105.1533
125.33318
153.69934
191.35475
239.05864
297.19708
365.76623
444.35509
532.12338
627.77726
729.54984
835.19762
942.03538
1047.0436
1147.0793
1239.1827
1320.9148
1390.6226
1447.5583
1491.8427
1524.3119
1546.3086
1559.4681
1565.5345
1566.2222
1563.1245
1557.6592
1551.0353
1544.2389
1538.0665
1533.213
1530.228
1529.1732
8.1797898
17.102065
26.616367
35.54939
43.821731
51.264944
57.759043
63.231259
67.680503
71.207687
74.052719
76.635895
79.599493
83.83746
90.492412
100.90238
116.49796
138.67455
168.67219
207.48193
255.78283
313.9031
381.79493
459.01412
544.70195
637.57121
735.90271
837.56236
940.05612
1040.6447
1136.5327
1225.119
1304.2584
1372.466
1429.014
1473.9122
1507.7983
1531.7774
1547.2491
1555.752
1558.8387
1557.9875
1554.5458
1549.6889
1544.3861
1539.4368
1535.6169
1533.5683
1533.0777
7.8074605
16.603243
25.940266
34.712486
42.847027
50.199414
56.676676
62.238114
66.919377
70.860885
74.340624
77.808701
81.918319
87.542393
95.761689
107.81606
125.01742
148.64076
179.82024
219.46349
268.18771
326.27589
393.64663
469.8324
553.9642
644.76507
740.55757
839.29452
938.62577
1036.0149
1128.9111
1214.9614
1292.223
1359.3288
1415.5684
1460.8801
1495.7669
1521.169
1538.3193
1548.6078
1553.4681
1554.2919
1552.3722
1548.8589
1544.7054
1540.6822
1537.614
1536.3936
1536.6788
7.3041557
16.167676
25.424165
34.111406
42.165242
49.465649
55.940443
61.571094
66.417355
70.644689
74.554412
78.613709
83.480016
90.010513
99.246062
112.36654
130.61032
155.17372
187.12065
227.30328
276.297
334.35394
401.37023
476.86339
559.95914
649.3894
743.5069
840.324
937.58601
1032.8879
1123.8347
1208.2293
1284.2564
1350.6234
1406.6335
1452.1815
1487.687
1513.9861
1532.2048
1543.6367
1549.6371
1551.5382
1550.5926
1547.936
1544.5156
1541.0471
1538.3506
1537.92
1540.1131
6.0814556
15.835459
25.143165
33.82282
41.845968
49.12462
55.60081
61.268207
66.198871
70.57079
74.69703
79.053525
84.300582
91.290209
101.04805
114.71784
133.49027
158.5248
190.8554
231.30737
280.4352
338.47538
405.31251
480.45661
563.0308
651.77188
745.04828
840.9029
937.12943
1031.3886
1121.3626
1204.9314
1280.3424
1346.3407
1402.2365
1447.9044
1483.7239
1510.4798
1529.2465
1541.2703
1547.8634
1550.3271
1549.9021
1547.7275
1544.7604
1541.6761
1539.2603
1539.7833
1545.6255
-2227.7581
-2483.625
-2699.5392
-2881.484
-3023.9678
-3106.2149
-3108.2258
-3029.2216
-2857.2789
-2664.0036
-3205.3888
-3205.2808
-3198.4353
-3187.4484
-3173.3342
-3160.5814
-3148.7456
-3158.2123
-3158.8144
-3131.4101
-3183.0311
-3181.9067
-3167.1523
-3150.1891
-3133.2739
-3124.2831
-3105.9905
-3113.2076
-3100.076
-3046.5499
-3137.8417
-3135.1797
-3126.5765
-3117.8807
-3109.0872
-3112.0994
-3101.0038
-3098.9712
-3085.57
-3048.7081
-3078.1496
-3076.715
-3072.1695
-3066.2522
-3057.7466
-3058.1467
-3057.8124
-3057.1422
-3055.6637
-3059.4005
-3030.1689
-3029.3766
-3023.6157
-3013.4545
-2998.1996
-2968.6373
-2990.8013
-3003.1021
-3009.7478
-3023.0966
-3013.4126
-3015.1067
-3018.3584
-3021.7456
-3032.6623
-3008.5363
-3008.2144
-3004.5871
-2989.669
-2966.681
-3027.9229
-3029.5537
-3035.6396
-3044.336
-3068.386
-3076.1025
-3056.7213
-3030.7038
-3000.867
-2965.4631
-3848.4526
-3860.7649
-3831.7261
-3787.3165
-3749.7567
-3717.6916
-3696.1883
-3682.4621
-3673.5222
-3675.2643
-2986.9813
-2985.7892
-2977.9082
-2960.9531
-2921.5849
-2946.9459
-2958.9507
-2961.1434
-2950.6575
-2923.5506
-3009.2479
-3012.3244
-3018.6877
-3037.931
-3013.9709
-3005.2504
-3001.2988
-2993.8832
-2979.8931
-2964.7514
-3048.5065
-3050.9591
-3056.137
-3080.7262
-3093.4959
-3069.4237
-3042.6917
-3022.4072
-3003.5383
-2987.0526
-2999.6594
-2995.8307
-2976.9418
-2951.6609
-2974.5979
-2992.0789
-3003.3179
-3010.7378
-3013.0009
-3020.0183
-3033.265
-3035.7254
-3034.8619
-2997.9707
-3007.104
-3020.7168
-3031.517
-3038.7501
-3041.7995
-3051.3642
-3156.8899
-3164.6839
-3188.9172
-3187.4464
-3159.5467
-3131.7556
-3111.0622
-3095.6693
-3080.2519
-3063.019
-3141.9777
-3137.143
-3129.6594
-3149.8305
-3150.4243
-3144.6316
-3138.4091
-3132.9741
-3126.976
-3128.8784
-3162.7552
-3162.0346
-3137.7502
-3147.9043
-3159.3499
-3167.486
-3171.9061
-3173.7099
-3173.0004
-3177.7018
-3277.116
-3289.5192
-3285.4685
-3271.1273
-3255.8055
-3243.7647
-3235.0331
-3229.2395
-3222.4241
-3213.8638
-3282.4886
-3286.5601
-3294.0147
-3285.9368
-3276.2937
-3270.7937
-3270.5585
-3274.9997
-3280.0404
-3292.3428
-3186.3246
-3172.2146
-3189.551
-3215.4279
-3244.9013
-3273.5982
-3300.5721
-3325.145
-3345.2978
-3370.263
-3326.0528
-3302.4337
-3312.0411
-3332.3488
-3359.1122
-3384.3601
-3406.8256
-3425.2569
-3437.7753
-3453.4902
-3701.6746
-3692.6552
-3661.9565
-3627.8854
-3602.8066
-3583.3213
-3571.2312
-3564.0733
-3557.9583
-3555.0923
-3016.6785
-3015.1529
-3009.7378
-2998.1195
-2992.6336
-2999.8924
-2999.5295
-2994.179
-2984.9467
-2983.923
-3540.5383
-3549.1351
-3563.5693
-3610.8531
-3667.0287
-3718.8602
-3739.9425
-3721.8035
-3638.1028
-3466.2533
-3268.7585
-3268.9933
-3271.9428
-3276.8108
-3277.9216
-3277.0255
-3275.0642
-3269.9196
-3265.7619
-3219.2848
-3179.5261
-3227.5523
-3289.6667
-3394.3698
-3505.6952
-3592.5208
-3635.0765
-3595.2072
-3447.064
-3214.6352
-3480.277
-3490.3205
-3511.2512
-3547.9504
-3581.5987
-3610.2583
-3618.8294
-3618.3246
-3582.5466
-3470.1575
-3367.3453
-3371.7353
-3385.9148
-3409.873
-3430.8339
-3448.4898
-3456.6154
-3446.1965
-3433.5788
-3381.8273
11318.722
10715.547
10129.574
9489.9392
8832.846
8179.5391
7545.1803
6936.7837
6347.344
5770.3041
8301.8483
8224.5314
8101.2595
7839.6075
7501.7191
7111.2849
6689.6065
6254.5662
5816.399
5360.001
-3709.5006
-3727.9362
-3745.344
-3751.3103
-3759.999
-3763.2633
-3768.0588
-3771.4946
-3772.8198
-3776.3114
-3705.8518
-3709.7031
-3745.0493
-3776.2801
-3815.339
-3842.5107
-3866.437
-3882.4671
-3891.1145
-3895.3024
-3946.5153
-3939.2799
-3955.5087
-3963.0858
-3991.4657
-4009.8455
-4029.6724
-4042.6486
-4048.068
-4043.6181
-4222.423
-4212.0681
-4226.3369
-4216.9234
-4232.9945
-4234.8764
-4241.3991
-4242.4477
-4238.8756
-4234.5145
-4544.8766
-4526.7369
-4538.482
-4511.4469
-4515.2327
-4497.3858
-4484.9276
-4464.9006
-4437.2331
-4404.8725
-4901.1053
-4873.8832
-4883.4902
-4837.069
-4828.637
-4790.148
-4757.3171
-4713.8951
-4659.2255
-4599.0145
-5281.8494
-5243.3991
-5252.0392
-5185.2219
-5165.6717
-5107.583
-5056.1876
-4992.7186
-4916.4633
-4831.1513
-5682.86
-5630.7849
-5639.6097
-5550.5885
-5519.7717
-5441.5436
-5370.8773
-5288.4424
-5198.4685
-5115.9181
-6105.0439
-6035.9213
-6045.7704
-5931.7761
-5888.3055
-5787.8966
-5693.5291
-5583.5007
-5458.1875
-5322.587
-6548.5001
-6458.4123
-6470.843
-6329.1981
-6271.9439
-6149.0592
-6030.8962
-5896.7841
-5747.178
-5585.4187
-7019.3412
-6902.2101
-6917.9742
-6744.4914
-6670.3452
-6522.7543
-6376.853
-6214.6281
-6036.1367
-5850.2661
-7516.44
-7366.2086
-7388.3261
-7179.8867
-7085.7236
-6911.6632
-6733.8683
-6537.7859
-6319.1647
-6081.8846
-8058.1145
-7863.4475
-7892.3974