/*--------------------------------*- C++ -*----------------------------------*\
| =========                 |                                                 |
| \\      /  F ield         | foam-extend: Open Source CFD                    |
|  \\    /   O peration     | Version:     4.1                                |
|   \\  /    A nd           | Web:         http://www.foam-extend.org         |
|    \\/     M anipulation  |                                                 |
\*---------------------------------------------------------------------------*/
FoamFile
{
    version     2.0;
    format      ascii;
    class       volScalarField;
    location    "0.6";
    object      p;
}
// * * * * * * * * * * * * * * * * * * * * * * * * * * * * * * * * * * * * * //

dimensions      [0 2 -2 0 0 0 0];

internalField   nonuniform List<scalar> 
16126
(
-5.7685715
-6.298726
-8.3016923
-10.576637
-13.047382
-15.665335
-18.415275
-21.294908
-24.308218
-27.462403
-30.766375
-34.229957
-37.863427
-41.677236
-45.68183
-49.88752
-54.304401
-58.942272
-63.810591
-68.918426
-74.274429
-79.886794
-85.763247
-91.911015
-98.336827
-105.04689
-112.04689
-119.342
-126.93684
-134.83552
-143.0416
-151.55815
-160.38762
-169.53195
-178.99245
-188.76981
-198.86403
-209.27432
-219.99903
-231.03549
-242.37986
-254.02695
-265.96997
-278.20026
-290.70699
-303.47677
-316.49333
-329.73703
-343.18441
-356.80775
-370.5745
-384.44683
-398.38112
-412.32744
-426.22913
-440.02243
-453.63616
-466.99147
-480.0018
-492.57289
-504.60303
-515.9834
-526.59872
-536.32803
-545.04575
-552.62293
-558.92877
-563.83232
-567.2044
-568.91971
-568.85904
-566.91161
-562.97747
-556.96972
-548.81681
-538.46449
-525.87761
-511.04175
-493.9645
-474.67618
-453.22969
-429.7004
-404.18468
-376.7983
-347.67871
-316.98891
-284.89949
-251.58398
-217.22884
-182.02712
-146.17485
-109.86795
-73.299492
-36.657116
-0.12087159
36.138673
71.961957
107.20162
141.7233
175.40617
208.14308
239.84056
270.4186
299.81064
327.96207
354.82559
380.36568
404.56057
427.39614
448.86569
468.9696
487.71487
505.1149
521.18892
535.96109
549.46265
561.74303
572.88588
582.9746
591.95263
599.66919
607.07552
618.12939
635.02856
-4.0465708
-5.9069343
-8.1196608
-10.471399
-12.968418
-15.595502
-18.347487
-21.225915
-24.236409
-27.38695
-30.686855
-34.146172
-37.775315
-41.584819
-45.585185
-49.786763
-54.199674
-58.833738
-63.698427
-68.80282
-74.155575
-79.764892
-85.638497
-91.783619
-98.206984
-104.91479
-111.91274
-119.20597
-126.79911
-134.69626
-142.90099
-151.41635
-160.24482
-169.38832
-178.8482
-188.62517
-198.71926
-209.12973
-219.85499
-230.89245
-242.23837
-253.88767
-265.83368
-278.0679
-290.57966
-303.35577
-316.38015
-329.63338
-343.09224
-356.72923
-370.51204
-384.40309
-398.35895
-412.32992
-426.25951
-440.08412
-453.73264
-467.12629
-480.17847
-492.79484
-504.87349
-516.30536
-526.97479
-536.76036
-545.53593
-553.17188
-559.53665
-564.49845
-567.92717
-569.69654
-569.68632
-567.7847
-563.89071
-557.91646
-549.78948
-539.45473
-526.87658
-512.04044
-494.95408
-475.64758
-454.17391
-430.60895
-405.05075
-377.61841
-348.44929
-317.6939
-285.52146
-252.11671
-217.66936
-182.3743
-146.42906
-110.03088
-73.374006
-36.647148
-0.031259355
36.30234
72.193497
107.4944
142.07039
175.80044
208.57731
240.30748
270.9108
300.31991
328.47959
355.34803
380.89283
405.08893
427.92117
449.38257
469.47331
488.2
505.57523
521.61683
536.34691
549.79402
562.0024
573.03906
582.95415
591.68882
599.20694
606.33803
615.08217
624.1849
-2.9467497
-5.4294218
-7.8777292
-10.334548
-12.873357
-15.513544
-18.264894
-21.135693
-24.134804
-27.271889
-30.557216
-34.001421
-37.615315
-41.409727
-45.395386
-49.582836
-53.982358
-58.603915
-63.457103
-68.551106
-73.89467
-79.496064
-85.363066
-91.502938
-97.922416
-104.6277
-111.62445
-118.91778
-126.51227
-134.41193
-142.62027
-151.14023
-159.97423
-169.12411
-178.59113
-188.37596
-198.47857
-208.89823
-219.63337
-230.68144
-242.03881
-253.70056
-265.6602
-277.90948
-290.43803
-303.23303
-316.27878
-329.55631
-343.04287
-356.71146
-370.53031
-384.46234
-398.46462
-412.48791
-426.47615
-440.36604
-454.08673
-467.55954
-480.69786
-493.40714
-505.58511
-517.12212
-527.90173
-537.80154
-546.69417
-554.44858
-560.93158
-566.00956
-569.55046
-571.4259
-571.51351
-569.6993
-565.88017
-559.96621
-551.88315
-541.57459
-529.00381
-514.15511
-497.0351
-477.67342
-456.12362
-432.46235
-406.78906
-379.22508
-349.9109
-319.00138
-286.66676
-253.09127
-218.4672
-182.99221
-146.86647
-110.28968
-73.458341
-36.563143
0.2132541
36.698135
72.730269
108.16108
142.85545
176.69218
209.56412
241.37809
272.05441
301.52612
329.73838
356.64905
382.22662
406.44836
429.30034
450.77661
470.87831
489.61303
506.99413
523.04002
537.77343
551.22398
563.43454
574.45843
584.32105
592.99241
600.57601
607.69388
614.71652
619.37122
-2.42723
-5.0557482
-7.611963
-10.135279
-12.705498
-15.355918
-18.105421
-20.967524
-23.954015
-27.076219
-30.345391
-33.772785
-37.369618
-41.147009
-45.115906
-49.287024
-53.670789
-58.277283
-63.116207
-68.196835
-73.527986
-79.117994
-84.974683
-91.10535
-97.516754
-104.2151
-111.20604
-118.49468
-126.08556
-133.98268
-142.18949
-150.7089
-159.54331
-168.69452
-178.1638
-187.95183
-198.05863
-208.48355
-219.22513
-230.28102
-241.6478
-253.32082
-265.29395
-277.55936
-290.10714
-302.92501
-315.99787
-329.3074
-342.83153
-356.544
-370.41376
-384.40445
-398.47386
-412.5734
-426.64759
-440.6336
-454.4609
-468.05099
-481.31721
-494.16477
-506.49087
-518.18507
-529.12984
-539.20137
-548.27057
-556.20438
-562.86727
-568.12305
-571.83684
-573.87727
-574.11882
-572.44434
-568.74759
-562.93578
-554.93223
-544.67817
-532.13456
-517.2839
-500.13167
-480.70731
-459.06445
-435.28055
-409.45631
-381.71459
-352.19808
-321.06635
-288.49426
-254.66927
-219.78756
-184.05081
-147.66307
-110.82777
-73.744777
-36.6078
0.39789812
37.097451
73.327936
108.93954
143.79635
177.77678
210.77367
242.69418
273.45927
303.00299
331.27183
358.22419
383.82904
408.06478
430.91847
452.38498
472.46612
491.16983
508.50948
524.50298
539.17248
552.54683
564.66447
575.5643
585.25753
593.7475
601.19943
608.00402
613.85186
616.90287
-2.1771025
-4.7994504
-7.3883202
-9.9401951
-12.522999
-15.172478
-17.911724
-20.757603
-23.724176
-26.824258
-30.070084
-33.473577
-37.046437
-40.80014
-44.745924
-48.894738
-53.257205
-57.84358
-62.663711
-67.726995
-73.042353
-78.618199
-84.462416
-90.582337
-96.984734
-103.6758
-110.66118
-117.9459
-125.53447
-133.4308
-141.63827
-150.15971
-158.99743
-168.1532
-177.62823
-187.42319
-197.53815
-207.97253
-218.725
-229.79342
-241.17465
-252.8644
-264.85699
-277.14511
-289.71948
-302.56851
-315.67791
-329.0302
-342.60425
-356.37475
-370.31162
-384.37949
-398.53709
-412.7367
-426.92361
-441.03562
-455.00267
-468.74646
-482.1803
-495.20904
-507.72921
-519.62929
-530.79031
-541.08656
-550.38666
-558.55484
-565.45246
-570.93987
-574.87839
-577.13263
-577.5729
-576.07773
-572.53673
-566.85344
-558.94779
-548.75743
-536.24044
-521.37743
-504.17268
-484.65518
-462.87896
-438.92281
-412.88959
-384.90481
-355.11446
-323.68256
-290.78885
-256.6257
-221.39449
-185.30223
-148.55815
-111.37059
-73.943902
-36.475822
0.84495557
37.84073
74.346365
110.21045
145.29606
179.48113
212.65851
244.73579
275.63468
305.29044
333.65104
360.67631
386.33674
410.61232
433.49165
454.97092
475.05298
493.74645
511.06476
527.02523
541.64872
554.9614
566.99419
577.77131
587.29453
595.58144
602.77007
609.02722
613.8653
616.10728
-2.0220597
-4.5894843
-7.1681587
-9.7206176
-12.2999
-14.938887
-17.661538
-20.486339
-23.428802
-26.502853
-29.721537
-33.09737
-36.642493
-40.368731
-44.287598
-48.410276
-52.747588
-57.30996
-62.107389
-67.149404
-72.445035
-78.002784
-83.830605
-89.935878
-96.325402
-103.00538
-109.98144
-117.25859
-124.84129
-132.7334
-140.93824
-149.45859
-158.29673
-167.45438
-176.93276
-186.73258
-196.85399
-207.29655
-218.05916
-229.13996
-240.53619
-252.24403
-264.25839
-276.57264
-289.1783
-302.06467
-315.21845
-328.62325
-342.25908
-356.10184
-370.12269
-384.28748
-398.55612
-412.88201
-427.2114
-441.48292
-455.62707
-469.56586
-483.21259
-496.47169
-509.23886
-521.4013
-532.83822
-543.42159
-553.01718
-561.48583
-568.68502
-574.47074
-578.69954
-581.231
-581.93004
-580.66978
-577.33468
-571.82361
-564.05137
-553.95114
-541.47765
-526.60879
-509.34713
-489.72094
-467.78468
-443.61871
-417.3286
-389.04354
-358.91423
-327.11029
-293.81762
-259.23498
-223.57044
-187.03772
-149.85265
-112.22972
-74.379022
-36.503314
1.2043724
38.562783
75.404026
111.57472
146.93672
181.36743
214.75982
247.02207
278.077
307.86131
336.32468
363.42879
389.14612
413.45875
436.35736
457.84009
477.91157
496.58188
513.86559
529.78069
544.34832
557.59348
569.54222
580.21124
589.60265
597.74103
604.715
610.5405
614.73071
616.5541
-1.9226916
-4.4239034
-6.9680076
-9.4990789
-12.058454
-14.674798
-17.371279
-20.166868
-23.077886
-26.119035
-29.304019
-32.645887
-36.157214
-39.850183
-43.73661
-47.827936
-52.135211
-56.669061
-61.439654
-66.456666
-71.729251
-77.266008
-83.074963
-89.163539
-95.538554
-102.20621
-109.17209
-116.44116
-124.0178
-131.90579
-140.10838
-148.62825
-157.4676
-166.6281
-176.11095
-185.91689
-196.04615
-206.49843
-217.27289
-228.36798
-239.7814
-251.50989
-263.54903
-275.89302
-288.53432
-301.46331
-314.66788
-328.13294
-341.83993
-355.76617
-369.88435
-384.1618
-398.5599
-413.0334
-427.52977
-441.98866
-456.34131
-470.51014
-484.40848
-497.94032
-511.00042
-523.47444
-535.23949
-546.16477
-556.11265
-564.9399
-572.49933
-578.64168
-583.21778
-586.08103
-587.08986
-586.11084
-583.02226
-577.71698
-570.10372
-560.11052
-547.68774
-532.8099
-515.4774
-495.7176
-473.58536
-449.16289
-422.55889
-393.90703
-363.36367
-331.10522
-297.32501
-262.22976
-226.03573
-188.96489
-151.24109
-113.0864
-74.717843
-36.34433
1.8358518
39.637144
76.888323
113.43364
149.13349
183.86466
217.52026
250.00926
281.25581
311.19837
339.7887
366.99068
392.77911
417.13843
440.06158
461.54879
481.60648
500.24615
517.48329
533.33639
547.82644
560.97679
572.80931
583.33662
592.56352
600.51553
607.24196
612.69085
616.4423
618.0234
-1.8399142
-4.2716567
-6.76758
-9.2625449
-11.789658
-14.373592
-17.036065
-19.795853
-22.669595
-25.672465
-28.818645
-32.121622
-35.594352
-39.249351
-43.098732
-47.154198
-51.427035
-55.928078
-60.667681
-65.655685
-70.901382
-76.413482
-82.200097
-88.26871
-94.626169
-101.27867
-108.23179
-115.49044
-123.05893
-130.94098
-139.13973
-147.65779
-156.49728
-165.65984
-175.14666
-184.95852
-195.09574
-205.55824
-216.34545
-227.45622
-238.88878
-250.64052
-262.70784
-275.08588
-287.76822
-300.74652
-314.01007
-327.54532
-341.33534
-355.35922
-369.59138
-384.00097
-398.55109
-413.19812
-427.89102
-442.57064
-457.16915
-471.60954
-485.80518
-499.65963
-513.06656
-525.90992
-538.06435
-549.39585
-559.76278
-569.01717
-577.00631
-583.57472
-588.56644
-591.82754
-593.20869
-592.56869
-589.77845
-584.72322
-577.30453
-567.4444
-555.08789
-540.20546
-522.79484
-502.88224
-480.52303
-455.80159
-428.83045
-399.74862
-368.7193
-335.9269
-301.57368
-265.87587
-229.05958
-191.35664
-153.00044
-114.22207
-75.246772
-36.290712
2.4416443
40.75972
78.488451
115.4694
151.56138
186.64058
220.60044
253.35099
284.81813
314.94256
343.67863
370.99309
396.86371
421.27797
444.23174
465.72801
485.77567
504.38832
521.58302
537.37929
551.79838
564.86234
576.58999
586.99154
596.07261
603.85347
610.3551
615.50396
618.95459
620.3844
-1.767625
-4.1281214
-6.5660344
-9.0126471
-11.49579
-14.036955
-16.656346
-19.372241
-22.201311
-25.158997
-28.259829
-31.517658
-34.945788
-38.557062
-42.363888
-46.378245
-50.61167
-55.075223
-59.779462
-64.734402
-69.949485
-75.433541
-81.194769
-87.240708
-93.578229
-100.21352
-107.15212
-114.39887
-121.95799
-129.83309
-138.02721
-146.54284
-155.38201
-164.54627
-174.03679
-183.85438
-193.99948
-204.47219
-215.27225
-226.39897
-237.85115
-249.62694
-261.72363
-274.13749
-286.86336
-299.89435
-313.22138
-326.8327
-340.7133
-354.84428
-369.20216
-383.75817
-398.47747
-413.31841
-428.23169
-443.15967
-458.03568
-472.78342
-487.31643
-501.53787
-515.34026
-528.60566
-541.20594
-553.0035
-563.85214
-573.59842
-582.0833
-589.14413
-594.61707
-598.33965
-600.15349
-599.90834
-597.46623
-592.70355
-585.51348
-575.81064
-563.5338
-548.64853
-531.14927
-511.0608
-488.43899
-463.3707
-435.97291
-406.39096
-374.79607
-341.38209
-306.36181
-269.96272
-232.42255
-193.98474
-154.89394
-115.39181
-75.713221
-36.082816
3.2877601
42.202125
80.480806
117.96232
154.5037
189.98057
224.28679
257.33374
289.0494
319.37708
348.27422
375.71086
401.66826
426.13741
449.11759
470.61506
490.64168
509.21366
526.35025
542.07273
556.40339
569.36421
580.97308
591.24021
600.17224
607.78431
614.08132
618.99017
622.22605
623.55441
-1.6993032
-3.9870785
-6.3602351
-8.7495206
-11.179518
-13.66938
-16.237965
-18.902963
-21.680912
-24.587373
-27.637122
-30.8443
-34.222525
-37.784942
-41.544258
-45.512733
-49.702164
-54.123855
-58.788586
-63.706565
-68.887401
-74.340059
-80.072842
-86.093354
-92.408499
-99.024462
-105.94673
-113.18008
-120.72865
-128.59591
-136.78478
-145.29762
-154.13634
-163.30243
-172.797
-182.62087
-192.77461
-203.25853
-214.0727
-225.21692
-236.69063
-248.49282
-260.62181
-273.07509
-285.84895
-298.93814
-312.33545
-326.03115
-340.01243
-354.26271
-368.76093
-383.48073
-398.38968
-413.44838
-428.60964
-443.8176
-459.007
-474.10243
-489.01779
-503.65581
-517.90786
-531.6539
-544.76279
-557.09285
-568.49276
-578.8029
-587.857
-595.4842
-601.51162
-605.76696
-608.08144
-608.29421
-606.25693
-601.83565
-594.91397
-585.3978
-573.21849
-558.33582
-540.7403
-520.45494
-497.53608
-472.0734
-444.18902
-414.03564
-381.79378
-347.66829
-311.88424
-274.68223
-236.31355
-197.03513
-157.10467
-116.77608
-76.295298
-35.896693
4.1999195
43.791604
82.693971
120.74222
157.79154
193.71711
228.41348
261.79379
293.78854
324.34429
353.4221
380.99597
407.05125
431.58302
454.59458
476.09593
496.1024
514.63321
531.71023
547.35682
561.59665
574.45226
585.94172
596.0762
604.86336
612.31521
618.43023
623.14535
626.22146
627.47741
-1.6277717
-3.8389703
-6.1406042
-8.464059
-10.831915
-13.261677
-15.771133
-18.377412
-21.096862
-23.945091
-26.937053
-30.08714
-33.409255
-36.916843
-40.622905
-44.539993
-48.680181
-53.055033
-57.675564
-62.552192
-67.694706
-73.112217
-78.813134
-84.805132
-91.09514
-97.68933
-104.59313
-111.81124
-119.34766
-127.20572
-135.38818
-143.89724
-152.73466
-161.9018
-171.39971
-181.22922
-191.39098
-201.88552
-212.71325
-223.87449
-235.3694
-247.19785
-259.35931
-271.85263
-284.67572
-297.82519
-311.2959
-325.08045
-339.16851
-353.54616
-368.19509
-383.09176
-398.2065
-413.50259
-428.93527
-444.45084
-459.98574
-475.46576
-490.80527
-505.90675
-520.66039
-534.94395
-548.623
-561.5514
-573.57216
-584.51873
-594.21675
-602.48604
-609.14349
-614.00562
-616.89174
-617.62882
-616.05645
-612.02877
-605.41822
-596.12054
-584.05839
-569.1847
-551.48532
-530.98104
-507.72864
-481.82097
-453.38605
-422.58502
-389.60918
-354.67611
-318.0251
-279.91197
-240.60368
-200.37276
-159.49197
-118.22927
-76.843281
-35.579444
5.333176
45.684293
85.284078
123.96412
161.57776
197.99981
233.12588
266.87126
299.16958
329.97118
359.24146
386.95905
413.11409
437.70649
460.7442
482.2417
502.21842
520.69733
537.70355
553.2632
567.40204
580.14409
591.50868
601.50863
610.15287
617.45236
623.4049
627.96002
630.91188
632.11315
-1.5581784
-3.690033
-5.9146419
-8.1652806
-10.463448
-12.825552
-15.268568
-17.809152
-20.463459
-23.247104
-26.175182
-29.262308
-32.52265
-35.969949
-39.617508
-43.478181
-47.564337
-51.887818
-56.459897
-61.291224
-66.391788
-71.770863
-77.436978
-83.397886
-89.660548
-96.23112
-103.11497
-110.31669
-117.84013
-125.68847
-133.86426
-142.36952
-151.20582
-160.37436
-169.87609
-179.71181
-189.88223
-200.38809
-211.23017
-222.40931
-233.92641
-245.78234
-257.97779
-270.51311
-283.38797
-296.60105
-310.14955
-324.02862
-338.23076
-352.74505
-367.5563
-382.64417
-397.98218
-413.53667
-429.26575
-445.11826
-461.0327
-476.93632
-492.74426
-508.35885
-523.66912
-538.55059
-552.8653
-566.46223
-579.17817
-590.83891
-601.26101
-610.25391
-617.62295
-623.17198
-626.70684
-628.04055
-626.99878
-623.42209
-617.17009
-608.12673
-596.20456
-581.34845
-563.53871
-542.79342
-519.16969
-492.7639
-463.71075
-432.18104
-398.37845
-362.53522
-324.90698
-285.76708
-245.40049
-204.09767
-162.14858
-119.83719
-77.436541
-35.204538
6.6194017
47.816855
88.192066
127.57282
165.8106
202.78014
238.3785
272.52366
305.15299
336.22132
365.69906
393.57024
419.83047
444.48515
467.54758
489.03727
508.97838
527.39816
544.32556
559.78999
573.81999
586.44182
597.67698
607.54061
616.04357
623.19771
629.00342
633.42246
636.27334
637.43109
-1.4800395
-3.5268526
-5.6680493
-7.8386205
-10.05936
-12.345944
-14.714761
-17.182099
-19.763952
-22.475942
-25.33329
-28.350822
-31.542972
-34.923773
-38.506845
-42.305358
-46.331996
-50.5989
-55.117622
-59.899067
-64.953437
-70.290186
-75.917976
-81.84464
-88.07717
-94.621698
-101.48352
-108.66709
-116.1761
-124.01352
-132.18167
-140.68232
-149.51682
-158.68615
-168.19112
-178.03245
-188.21091
-198.72739
-209.58303
-220.77922
-232.31763
-244.20018
-256.4289
-269.00574
-281.93235
-295.20966
-308.83743
-322.81372
-337.13417
-351.79122
-366.77323
-382.06351
-397.63919
-413.47019
-429.51795
-445.73427
-462.06016
-478.42472
-494.74412
-510.92078
-526.84269
-542.38304
-557.40017
-571.73787
-585.22611
-597.68228
-608.91292
-618.7159
-626.88361
-633.20571
-637.47285
-639.48213
-639.04328
-635.98134
-630.14118
-621.39315
-609.63801
-594.81123
-576.88656
-555.87875
-531.84511
-504.8859
-475.14335
-442.79932
-408.07163
-371.20929
-332.48676
-292.19748
-250.64706
-208.14644
-165.00522
-121.52554
-77.996708
-34.690618
8.1417999
50.27319
91.501407
131.65028
170.56957
208.13427
244.2434
278.81833
311.80089
343.15124
372.84568
400.87442
427.23944
451.9524
475.03271
496.50567
516.40081
534.7503
551.58753
566.9458
580.85701
593.35037
604.45017
614.17439
622.53642
629.5504
635.22082
639.52032
642.28546
643.40682
-1.40328
-3.361254
-5.4135001
-7.4975667
-9.6339856
-11.837987
-14.125561
-16.512726
-19.015363
-21.649114
-24.42933
-27.371049
-30.488972
-33.797442
-37.310406
-41.041375
-45.003368
-49.208854
-53.669693
-58.397065
-63.401416
-68.692396
-74.278815
-80.168599
-86.368772
-92.885439
-99.723803
-106.88818
-114.38206
-122.20816
-130.36853
-138.86465
-147.69756
-156.86801
-166.37659
-176.22388
-186.41064
-196.93791
-207.80713
-219.02027
-230.57978
-242.48868
-254.75039
-267.36865
-280.34719
-293.68941
-307.39792
-321.47397
-335.91667
-350.72225
-365.88304
-381.38646
-397.2138
-413.33903
-429.72745
-446.33436
-463.10375
-479.96698
-496.84166
-513.63055
-530.22075
-546.48318
-562.27232
-577.42642
-591.7681
-605.10559
-617.23443
-627.93968
-636.99929
-644.1871
-649.27664
-652.04703
-652.28977
-649.81232
-644.44268
-636.03554
-624.47801
-609.69458
-591.65123
-570.35863
-545.8741
-518.30212
-487.79339
-454.5423
-418.78282
-380.78318
-340.83933
-299.26773
-256.39757
-212.56314
-168.09633
-123.31985
-78.541263
-34.048098
9.8960082
53.053965
95.216825
136.20438
175.86488
214.07403
250.73345
285.76866
319.12683
350.77434
380.69429
408.88401
435.35269
460.11913
483.20961
504.65596
524.49379
542.76083
559.49553
574.73567
588.51714
600.87272
611.83007
621.41048
629.63046
636.50734
642.05022
646.24114
648.93037
650.01988
-1.3160799
-3.1785473
-5.1353373
-7.1260262
-9.1709196
-11.284961
-13.483877
-15.783511
-18.199679
-20.748074
-23.444193
-26.303297
-29.340372
-32.570084
-36.006733
-39.664193
-43.55585
-47.694529
-52.092425
-56.761024
-61.711039
-66.952337
-72.493893
-78.343731
-84.508912
-90.995506
-97.808609
-104.95237
-112.43003
-120.24402
-128.39607
-136.88729
-145.71839
-154.88976
-164.4017
-174.25462
-184.44918
-194.98652
-205.86838
-217.09721
-228.67633
-240.60985
-252.9027
-265.56047
-278.58917
-291.99491
-305.78339
-319.95935
-334.5258
-349.48316
-364.82821
-380.55302
-396.64357
-413.07848
-429.82751
-446.85003
-464.09358
-481.49234
-498.96575
-516.4173
-533.73346
-550.78294
-567.41627
-583.46588
-598.74656
-613.05658
-626.17945
-637.88615
-647.93863
-656.0931
-662.10397
-665.73004
-666.74203
-664.92745
-660.09507
-652.08152
-640.75814
-626.03661
-607.87373
-586.27521
-561.29804
-533.0513
-501.69518
-467.43826
-430.53292
-391.26931
-349.96802
-306.97174
-262.63662
-217.32349
-171.38951
-125.18057
-79.024735
-33.226852
11.93547
56.214623
99.394504
141.2909
181.7509
220.65153
257.8978
293.42032
327.17262
359.12835
389.27847
417.62845
444.19568
469.00701
492.09644
513.5031
533.2694
551.43931
568.0569
583.16504
596.80413
609.01106
619.81737
629.24803
637.32311
644.06365
649.48343
653.57248
656.19187
657.25235
-1.229404
-2.9917844
-4.847281
-6.7381888
-8.6848332
-10.702011
-12.805291
-15.010417
-17.333194
-19.789394
-22.394686
-25.164577
-28.114355
-31.259039
-34.613306
-38.191428
-42.007192
-46.073813
-50.403858
-55.009152
-59.900705
-65.088629
-70.58208
-76.389198
-82.517083
-88.971764
-95.758215
-102.88038
-110.34124
-118.14288
-126.28663
-134.77319
-143.60281
-152.77548
-162.29112
-172.14986
-182.35221
-192.89931
-203.79311
-215.03659
-226.63384
-238.59015
-250.91197
-263.60689
-276.68335
-290.15035
-304.01697
-318.29179
-332.98208
-348.09292
-363.62608
-379.57881
-395.94241
-412.70081
-429.82886
-447.2907
-465.03806
-483.00851
-501.12394
-519.28896
-537.38975
-555.29297
-572.84522
-589.87284
-606.1823
-621.56118
-635.77989
-648.59399
-659.74774
-668.97782
-676.01732
-680.60214
-682.47945
-681.41418
-677.19313
-669.63225
-658.58466
-643.94706
-625.66542
-603.7394
-578.22525
-549.23698
-516.9454
-481.57509
-443.39943
-402.73359
-359.92626
-315.35015
-269.39211
-222.44315
-174.88901
-127.10169
-79.432122
-32.204363
14.288721
59.788245
104.07067
146.94792
188.26643
227.9053
265.77393
301.80908
335.97181
368.24425
398.62638
427.13296
453.79066
478.63532
501.70962
523.06081
542.73883
560.79454
577.27829
592.23857
605.72083
617.76655
628.41154
637.68481
645.61032
652.21306
657.5113
661.50194
664.05482
665.08782
-1.1321816
-2.7874139
-4.5349771
-6.3193225
-8.1607206
-10.073875
-12.074273
-14.177616
-16.399744
-18.756549
-21.263899
-23.937573
-26.793196
-29.846165
-33.111576
-36.604132
-40.33806
-44.327007
-48.58395
-53.12109
-57.949769
-63.08037
-68.522256
-74.283696
-80.371831
-86.792642
-93.550968
-100.65052
-108.09396
-115.88297
-124.01842
-132.50051
-141.32896
-150.50323
-160.02278
-169.88734
-180.09715
-190.65328
-201.55784
-212.81423
-224.42732
-236.40355
-248.75099
-261.47929
-274.59947
-288.12366
-302.06459
-316.43503
-331.24695
-346.51057
-362.23318
-378.41786
-395.06193
-412.15529
-429.67867
-447.60174
-465.88113
-484.45859
-503.25901
-522.18876
-541.13411
-559.95996
-578.50901
-596.60137
-614.03474
-630.58525
-646.00917
-660.0452
-672.41816
-682.84309
-691.02939
-696.68733
-699.53731
-699.31866
-695.79319
-688.75313
-678.03053
-663.50467
-645.10869
-622.83485
-596.73816
-566.93782
-533.61645
-497.01681
-457.43608
-415.21804
-370.74347
-324.41938
-276.66759
-227.91339
-178.57489
-129.05337
-79.725286
-30.935875
17.005414
63.827697
109.29984
153.23022
195.46527
235.88718
274.41085
310.98056
345.56623
378.15981
408.77166
437.42705
464.16308
489.02571
512.06719
533.34376
552.91367
570.83537
587.16604
601.96035
615.26928
627.13933
637.61091
646.71734
654.48671
660.94805
666.12382
670.01691
672.5046
673.51079
-1.0342201
-2.5770788
-4.2105639
-5.8818202
-7.6112127
-9.4134151
-11.303883
-13.298328
-15.412666
-17.662943
-20.06526
-22.635703
-25.390267
-28.34477
-31.514762
-34.915427
-38.561477
-42.467037
-46.645542
-51.109614
-55.870964
-60.940284
-66.327171
-72.040039
-78.086081
-84.471228
-91.200161
-98.276329
-105.70202
-113.47847
-121.606
-130.08421
-138.91218
-148.08874
-157.61274
-167.48341
-177.70059
-188.26515
-199.17926
-210.44667
-222.07296
-234.06573
-246.43467
-259.19159
-272.35025
-285.92608
-299.93577
-314.39663
-329.32576
-344.73906
-360.64995
-377.06801
-393.99729
-411.4345
-429.36708
-447.77105
-466.60886
-485.8272
-505.35479
-525.10039
-544.95093
-564.76991
-584.39631
-603.64391
-622.30123
-640.13227
-656.87804
-672.25897
-685.97847
-697.72775
-707.18993
-714.0467
-717.98807
-718.72435
-715.98896
-709.54695
-699.20603
-684.82518
-666.32235
-643.68079
-616.95348
-586.26513
-551.81149
-513.85579
-472.72234
-428.78758
-382.46902
-334.21283
-284.4807
-233.73692
-182.43609
-131.01245
-79.870824
-29.37973
20.133435
68.385148
115.13665
160.19326
203.40233
244.65032
283.8591
320.98193
355.99919
388.91422
419.74916
448.54125
475.33926
500.20039
523.18751
544.36677
563.80546
581.57032
597.72597
612.33374
625.45063
637.12848
647.41261
656.34089
663.94566
670.25999
675.31021
679.10453
681.52673
682.50609
-0.9264808
-2.3498218
-3.8625159
-5.4139048
-7.0243534
-8.70851
-10.481831
-12.360074
-14.359267
-16.495646
-18.785581
-21.245506
-23.891825
-26.740821
-29.80855
-33.110724
-36.662593
-40.478816
-44.573335
-48.959242
-53.648665
-58.652644
-63.981038
-69.64243
-75.644074
-81.991847
-88.690254
-95.742444
-103.15029
-110.91449
-119.03474
-127.50992
-136.33838
-145.51815
-155.04736
-164.92455
-175.14904
-185.72137
-196.6436
-207.91975
-219.55603
-231.56114
-243.94643
-256.72592
-269.91623
-283.53633
-297.60714
-312.15088
-327.19027
-342.74742
-358.84256
-375.49247
-392.70877
-410.49586
-428.84883
-447.75101
-467.17166
-487.06334
-507.35954
-527.97221
-548.78961
-569.67436
-590.46198
-610.95991
-630.94723
-650.17508
-668.36816
-685.22705
-700.43182
-713.6474
-724.52778
-732.72288
-737.88852
-739.70176
-737.86376
-732.10858
-722.21582
-708.02073
-689.42326
-666.39568
-638.98799
-607.33057
-571.63372
-532.18383
-489.3361
-443.5043
-395.14796
-344.75808
-292.84187
-239.90788
-186.45204
-132.9455
-79.824615
-27.48343
23.731361
73.523044
121.6454
167.90141
212.14056
254.25504
294.17538
331.86562
367.31841
400.55017
431.59656
460.50824
487.34704
512.18264
535.0896
556.14487
575.42563
593.00755
608.96329
623.36134
636.26505
647.732
657.81263
666.54952
673.97934
680.13915
685.05884
688.75142
691.10658
692.05855
-0.81664564
-2.1147254
-3.500247
-4.9251048
-6.4097524
-7.9688311
-9.6178191
-11.372547
-13.249186
-15.264197
-17.434259
-19.776194
-22.306864
-25.043069
-28.001426
-31.198235
-34.649346
-38.37001
-42.374739
-46.677153
-51.289849
-56.224262
-61.490552
-67.097498
-73.052431
-79.361171
-86.028031
-93.055824
-100.44595
-108.19849
-116.31243
-124.78581
-133.61607
-142.80035
-152.33584
-162.22025
-172.45219
-183.03167
-193.96053
-205.24287
-216.88545
-228.89802
-241.29352
-254.08825
-267.30182
-280.95692
-295.07899
-309.69557
-324.83545
-340.52756
-356.79961
-373.67644
-391.17808
-409.31763
-428.09884
-447.51348
-467.53869
-488.13405
-509.23884
-530.76918
-552.61549
-574.64017
-596.67571
-618.52334
-639.95243
-660.70068
-680.47537
-698.9557
-715.79631
-730.63313
-743.08798
-752.77554
-759.31367
-762.3407
-761.52123
-756.55426
-747.18681
-733.22635
-714.5515
-691.12113
-662.98097
-630.26717
-593.20613
-552.11039
-507.37037
-459.44256
-408.83472
-356.08916
-301.76511
-246.42151
-190.60098
-134.81606
-79.538097
-25.189013
27.863864
79.310233
128.8968
176.42527
221.74871
264.76692
305.42109
343.68814
379.575
413.11322
444.35375
473.36236
500.21545
524.99646
547.79277
568.6931
587.78532
605.1547
620.88248
635.04476
647.71165
658.9467
668.80568
677.33599
684.57868
690.57468
695.35717
698.94356
701.22908
702.15266
-0.69806937
-1.8638028
-3.1154283
-4.4069661
-5.7588713
-7.1857574
-8.7031305
-10.326913
-12.073444
-13.959446
-16.001947
-18.218203
-20.625589
-23.241479
-26.083114
-29.167448
-32.510999
-36.12968
-40.038639
-44.252091
-48.783162
-53.643732
-58.84431
-64.3939
-70.299928
-76.568162
-83.202703
-90.205994
-97.578892
-105.3208
-113.42984
-121.90311
-130.73701
-139.92756
-149.47085
-159.36355
-169.60334
-180.18952
-191.12348
-202.40926
-214.05401
-226.06841
-238.46698
-251.26831
-264.49508
-278.17391
-292.33503
-307.01169
-322.23927
-338.05416
-354.49229
-371.58741
-389.36896
-407.85981
-427.07352
-447.01155
-467.66016
-488.98723
-510.93903
-533.43702
-556.3748
-579.61537
-602.98874
-626.29023
-649.27939
-671.67993
-693.18064
-713.43776
-732.0783
-748.70633
-762.90806
-774.25927
-782.33596
-786.73133
-787.06793
-783.00568
-774.25365
-760.58681
-741.85845
-718.01103
-689.0844
-655.22039
-616.66319
-573.75486
-526.92603
-476.68221
-423.58655
-368.24027
-311.26214
-253.26846
-194.8547
-136.5798
-78.953823
-22.429071
32.605229
85.824989
136.97055
185.8437
232.30303
276.25817
317.66334
356.51074
392.82401
426.65198
458.06297
487.13967
513.97465
538.6665
561.31658
582.02636
600.89522
618.01869
633.48711
647.38462
659.78838
670.76814
680.38518
688.69179
695.73336
701.55459
706.19168
709.66615
711.87855
712.77235
-0.57629433
-1.6035781
-2.7147942
-3.8662586
-5.0784737
-6.3660144
-7.7444142
-9.2296975
-10.838398
-12.587531
-14.494517
-16.577099
-18.853223
-21.340905
-24.05808
-27.022432
-30.251226
-33.761114
-37.567961
-41.686648
-46.1309
-50.913108
-56.044178
-61.533383
-67.388269
-73.614554
-80.216119
-87.194991
-94.551432
-102.28405
-110.39003
-118.86535
-127.70518
-136.90424
-146.45731
-156.35977
-166.60813
-177.20074
-188.1383
-199.42457
-211.06692
-223.0768
-235.47025
-248.26812
-261.49624
-275.18531
-289.37066
-304.09163
-319.39074
-335.31247
-351.90181
-369.20232
-387.25395
-406.09049
-425.73664
-446.20489
-467.49207
-489.57577
-512.4107
-535.92499
-560.01665
-584.55029
-609.35424
-634.21834
-658.89235
-683.08552
-706.46721
-728.66902
-749.28815
-767.89366
-784.03265
-797.23769
-807.03752
-812.97485
-814.62452
-811.60078
-803.56916
-790.26662
-771.51633
-747.24071
-717.47156
-682.35614
-642.15817
-597.25311
-548.11756
-495.31338
-439.4675
-381.24891
-321.34465
-260.43646
-199.17962
-138.18508
-78.005726
-19.126783
38.039459
93.155202
145.95549
196.24408
243.88744
288.80769
330.97494
370.39948
407.12431
441.21806
472.76867
501.87774
528.65572
553.2178
575.68055
596.15919
614.76538
631.60557
646.77969
660.3803
672.49186
683.19053
692.54317
700.60699
707.4317
713.0656
717.54773
720.90341
723.0384
723.90074
-0.44668488
-1.3285516
-2.2926942
-3.297318
-4.3628942
-5.5039202
-6.7359442