/*--------------------------------*- C++ -*----------------------------------*\
| =========                 |                                                 |
| \\      /  F ield         | foam-extend: Open Source CFD                    |
|  \\    /   O peration     | Version:     4.1                                |
|   \\  /    A nd           | Web:         http://www.foam-extend.org         |
|    \\/     M anipulation  |                                                 |
\*---------------------------------------------------------------------------*/
FoamFile
{
    version     2.0;
    format      ascii;
    class       surfaceScalarField;
    location    "0.6";
    object      phi;
}
// * * * * * * * * * * * * * * * * * * * * * * * * * * * * * * * * * * * * * //

dimensions      [0 3 -1 0 0 0 0];

internalField   nonuniform List<scalar> 
31929
(
-0.042682478
5.0229511e-05
-0.042740082
5.7604418e-05
-0.042799126
5.9043798e-05
-0.042858663
5.9537201e-05
-0.042918347
5.9683842e-05
-0.042978075
5.9728131e-05
-0.043037834
5.975868e-05
-0.043097651
5.9817615e-05
-0.043157577
5.9925701e-05
-0.043217674
6.009679e-05
-0.043278012
6.0337997e-05
-0.043338667
6.0655456e-05
-0.043399719
6.1051172e-05
-0.043461246
6.1527424e-05
-0.043523329
6.2082958e-05
-0.043586046
6.2717151e-05
-0.043649472
6.3426027e-05
-0.043713679
6.4206434e-05
-0.043778731
6.505197e-05
-0.043844688
6.595726e-05
-0.043911602
6.6913813e-05
-0.043979516
6.7914434e-05
-0.044048465
6.8948995e-05
-0.044118474
7.0009e-05
-0.044189557
7.1083261e-05
-0.04426172
7.2162621e-05
-0.044334955
7.3235505e-05
-0.044409248
7.4292806e-05
-0.044484572
7.5323298e-05
-0.04456089
7.631867e-05
-0.044638159
7.726877e-05
-0.044716325
7.8166403e-05
-0.04479533
7.9004536e-05
-0.044875106
7.9776096e-05
-0.044955584
8.0477546e-05
-0.045036688
8.1103986e-05
-0.045118342
8.1654472e-05
-0.045200469
8.2126711e-05
-0.045282991
8.252238e-05
-0.045365833
8.2841665e-05
-0.045448921
8.3088578e-05
-0.045532187
8.3265468e-05
-0.045615564
8.3377554e-05
-0.045698994
8.3429397e-05
-0.04578242
8.3426243e-05
-0.045865793
8.3373292e-05
-0.045949069
8.3275414e-05
-0.046032206
8.3137028e-05
-0.046115167
8.2961443e-05
-0.046197918
8.2750895e-05
-0.046280424
8.2506106e-05
-0.04636265
8.2226069e-05
-0.046444558
8.1907794e-05
-0.046526104
8.154634e-05
-0.046607239
8.1134368e-05
-0.046687901
8.0662452e-05
-0.04676802
8.0118974e-05
-0.04684751
7.9490288e-05
-0.046926271
7.8760906e-05
-0.047004185
7.7913989e-05
-0.047081117
7.6931404e-05
-0.047156911
7.579452e-05
-0.047231396
7.4484608e-05
-0.047304379
7.2983472e-05
-0.047375653
7.1274108e-05
-0.047444995
6.9341346e-05
-0.047512167
6.7172692e-05
-0.047576926
6.4758706e-05
-0.04763902
6.2093907e-05
-0.047698197
5.9177213e-05
-0.04775421
5.6012405e-05
-0.047806818
5.2608456e-05
-0.047855798
4.8980005e-05
-0.047900945
4.5147069e-05
-0.04794208
4.113527e-05
-0.047979056
3.6975291e-05
-0.048011758
3.2702407e-05
-0.048040114
2.8356219e-05
-0.048064094
2.3979861e-05
-0.048083713
1.9619294e-05
-0.048099034
1.5320633e-05
-0.048110165
1.1130866e-05
-0.048117262
7.0967946e-06
-0.048120524
3.2622783e-06
-0.048120179
-3.4480385e-07
-0.048116456
-3.7227837e-06
-0.048109632
-6.824898e-06
-0.048100053
-9.5789315e-06
-0.048088099
-1.1953429e-05
-0.048074169
-1.3929743e-05
-0.048058672
-1.5497254e-05
-0.04804202
-1.6652037e-05
-0.048024624
-1.7396339e-05
-0.048006886
-1.7738006e-05
-0.047989196
-1.768991e-05
-0.047971927
-1.7269289e-05
-0.047955429
-1.6497038e-05
-0.047940032
-1.5396988e-05
-0.047926037
-1.3995124e-05
-0.047913718
-1.231897e-05
-0.047903321
-1.0396905e-05
-0.047895064
-8.2576201e-06
-0.047889134
-5.9293923e-06
-0.047885695
-3.439586e-06
-0.047884877
-8.1768135e-07
-0.047886771
1.8938356e-06
-0.047891441
4.6704585e-06
-0.04789895
7.5085185e-06
-0.047909344
1.0393855e-05
-0.047922653
1.3309566e-05
-0.047938892
1.6239065e-05
-0.047958059
1.9166576e-05
-0.047980136
2.2076894e-05
-0.048005091
2.4954632e-05
-0.048032873
2.7782864e-05
-0.048063415
3.054181e-05
-0.048096625
3.3209898e-05
-0.048132386
3.576085e-05
-0.048170517
3.813055e-05
-0.048210653
4.0136681e-05
-0.048252167
4.1513428e-05
-0.04829466
4.2493548e-05
-0.048339679
4.5019227e-05
4.7410628e-05
-0.049056923
6.8188139e-05
-0.049071945
7.2626313e-05
-0.049087081
7.4179782e-05
-0.049102275
7.4731975e-05
-0.049117443
7.4851219e-05
-0.049132536
7.4821e-05
-0.04914755
7.4773621e-05
-0.049162512
7.4779421e-05
-0.049177463
7.4876484e-05
-0.049192457
7.509038e-05
-0.049207554
7.5435774e-05
-0.049222823
7.5924396e-05
-0.049238334
7.656153e-05
-0.049254158
7.7351716e-05
-0.049270369
7.8294113e-05
-0.04928704
7.9387763e-05
-0.04930424
8.0626621e-05
-0.049322039
8.2004844e-05
-0.049340498
8.351167e-05
-0.049359678
8.5136885e-05
-0.04937963
8.6865575e-05
-0.049400399
8.8683846e-05
-0.049422024
9.0573433e-05
-0.049444532
9.2517702e-05
-0.049467945
9.4496097e-05
-0.049492273
9.6490425e-05
-0.049517517
9.8479106e-05
-0.049543668
0.00010044375
-0.049570707
0.00010236315
-0.049598609
0.00010422017
-0.049627336
0.0001059954
-0.049656843
0.00010767385
-0.04968708
0.00010924108
-0.049717987
0.00011068322
-0.049749501
0.00011199183
-0.049781554
0.00011315721
-0.049814076
0.00011417587
-0.049846992
0.00011504312
-0.04988023
0.00011576054
-0.049913717
0.00011632832
-0.049947381
0.00011675264
-0.049981153
0.00011703791
-0.050014969
0.00011719313
-0.050048766
0.00011722669
-0.050082488
0.00011714823
-0.050116082
0.00011696744
-0.0501495
0.00011669349
-0.050182698
0.0001163347
-0.050215634
0.00011589742
-0.050248269
0.00011538592
-0.050280565
0.00011480164
-0.050312481
0.00011414265
-0.050343977
0.00011340323
-0.050375004
0.00011257376
-0.05040551
0.00011164005
-0.050435431
0.00011058372
-0.050464694
0.00010938205
-0.050493212
0.00010800829
-0.050520883
0.00010643203
-0.050547589
0.00010462002
-0.050573194
0.00010253649
-0.050597544
0.00010014452
-0.050620466
9.7406901e-05
-0.05064177
9.4287409e-05
-0.050661248
9.075207e-05
-0.050678678
8.6770495e-05
-0.050693822
8.2317444e-05
-0.050706437
7.7373803e-05
-0.050716272
7.1928225e-05
-0.050723073
6.5978103e-05
-0.050726591
5.9530502e-05
-0.050726585
5.2602849e-05
-0.050722829
4.5223836e-05
-0.050715115
3.7433086e-05
-0.050703261
2.9281224e-05
-0.050687115
2.0829531e-05
-0.050666561
1.214873e-05
-0.050641523
3.3177564e-06
-0.050611964
-5.579073e-06
-0.050577894
-1.4450791e-05
-0.050539371
-2.3201822e-05
-0.050496504
-3.1736786e-05
-0.050449445
-3.9962168e-05
-0.050398393
-4.7789529e-05
-0.050343602
-5.5135924e-05
-0.050285408
-6.1916183e-05
-0.05022417
-6.8062845e-05
-0.050160223
-7.3526212e-05
-0.050093917
-7.8259324e-05
-0.050025619
-8.2227654e-05
-0.049955707
-8.5409703e-05
-0.049884563
-8.7796236e-05
-0.049812569
-8.9389932e-05
-0.049740103
-9.0204322e-05
-0.04966753
-9.0262733e-05
-0.049595202
-8.959704e-05
-0.049523453
-8.8246268e-05
-0.049452594
-8.6255363e-05
-0.049382916
-8.3673416e-05
-0.049314682
-8.0552685e-05
-0.049248132
-7.6947155e-05
-0.049183478
-7.2911403e-05
-0.049120908
-6.8499532e-05
-0.049060583
-6.3764843e-05
-0.049002641
-5.8759328e-05
-0.04894722
-5.3527817e-05
-0.048894434
-4.811483e-05
-0.04884436
-4.2565927e-05
-0.048797046
-3.6920382e-05
-0.048752522
-3.1214057e-05
-0.048710803
-2.5480169e-05
-0.048671886
-1.974985e-05
-0.048635757
-1.4052756e-05
-0.048602384
-8.4184672e-06
-0.048571722
-2.8785786e-06
-0.048543712
2.5319758e-06
-0.048518278
7.775343e-06
-0.048495318
1.2801467e-05
-0.048474683
1.7494931e-05
-0.048456143
2.1596891e-05
-0.048439516
2.4886221e-05
-0.048424738
2.7716018e-05
-0.048410142
3.0422566e-05
2.4359042e-05
-0.049725455
7.67644e-05
-0.049731244
7.8415619e-05
-0.049736313
7.9248345e-05
-0.049741166
7.9585214e-05
-0.049745973
7.9658854e-05
-0.049750805
7.9652952e-05
-0.04975571
7.9678628e-05
-0.049760737
7.9805755e-05
-0.049765936
8.0076062e-05
-0.049771365
8.051886e-05
-0.04977708
8.1151309e-05
-0.049783142
8.1986613e-05
-0.049789611
8.303021e-05
-0.049796545
8.4285956e-05
-0.049804002
8.5751145e-05
-0.049812037
8.7422279e-05
-0.0498207
8.9289694e-05
-0.049830039
9.1343399e-05
-0.049840094
9.3567489e-05
-0.049850904
9.5946249e-05
-0.049862497
9.8458376e-05
-0.049874896
0.00010108345
-0.049888119
0.00010379591
-0.049902173
0.00010657197
-0.04991706
0.00010938332
-0.049932774
0.00011220443
-0.049949301
0.00011500597
-0.04996662
0.00011776254
-0.049984702
0.00012044575
-0.050003514
0.00012303224
-0.050023016
0.00012549646
-0.05004316
0.00012781848
-0.050063899
0.00012997945
-0.050085177
0.00013196178
-0.05010694
0.0001337548
-0.05012913
0.00013534689
-0.050151688
0.00013673435
-0.050174558
0.00013791255
-0.050197682
0.00013888479
-0.050221007
0.00013965312
-0.050244481
0.00014022709
-0.050268058
0.00014061439
-0.050291693
0.00014082834
-0.050315348
0.00014088155
-0.050338988
0.00014078807
-0.050362582
0.00014056174
-0.050386104
0.00014021542
-0.050409529
0.00013976042
-0.050432837
0.00013920503
-0.050456005
0.00013855426
-0.050479012
0.00013780874
-0.050501834
0.00013696405
-0.050524441
0.00013601008
-0.050546798
0.00013493083
-0.050568861
0.00013370358
-0.050590577
0.00013229938
-0.050611878
0.00013068285
-0.050632682
0.00012881272
-0.050652892
0.00012664232
-0.050672393
0.0001241208
-0.05069105
0.00012119372
-0.050708711
0.00011780501
-0.050725202
0.00011389822
-0.050740333
0.00010941847
-0.050753896
0.00010431429
-0.050765665
9.8539638e-05
-0.050775403
9.2056142e-05
-0.050782864
8.4834684e-05
-0.050787794
7.6857717e-05
-0.050789936
6.8120796e-05
-0.05078904
5.8633876e-05
-0.050784859
4.8422303e-05
-0.050777164
3.7528275e-05
-0.050765741
2.6010901e-05
-0.050750406
1.3945471e-05
-0.050730999
1.4231696e-06
-0.0507074
-1.1450624e-05
-0.050679524
-2.4558362e-05
-0.050647332
-3.7771173e-05
-0.050610829
-5.0953604e-05
-0.050570065
-6.3965465e-05
-0.050525137
-7.6664736e-05
-0.050476188
-8.8911404e-05
-0.050423406
-0.00010057121
-0.050367025
-0.0001115173
-0.05030731
-0.00012163161
-0.050244559
-0.00013081313
-0.050179107
-0.00013897832
-0.050111308
-0.00014605822
-0.050041534
-0.00015200167
-0.049970168
-0.00015677633
-0.049897596
-0.00016036785
-0.049824206
-0.00016277962
-0.049750379
-0.00016403123
-0.049676485
-0.00016415689
-0.049602879
-0.00016320362
-0.049529896
-0.0001612291
-0.049457851
-0.00015829993
-0.049387036
-0.00015448885
-0.049317715
-0.00014987336
-0.049250129
-0.00014453351
-0.04918449
-0.00013855021
-0.049120986
-0.0001320037
-0.049059778
-0.00012497283
-0.049001004
-0.00011753292
-0.048944777
-0.00010975449
-0.048891187
-0.000101705
-0.048840305
-9.3448459e-05
-0.048792182
-8.504315e-05
-0.048746853
-7.6542724e-05
-0.048704337
-6.7996503e-05
-0.048664636
-5.9450517e-05
-0.048627741
-5.0948399e-05
-0.048593626
-4.2533268e-05
-0.048562254
-3.4250076e-05
-0.048533575
-2.6146984e-05
-0.048507523
-1.8277059e-05
-0.048484007
-1.0714499e-05
-0.048462905
-3.6070465e-06
-0.048444113
2.8053585e-06
-0.048427654
8.4268727e-06
-0.048413233
1.3295306e-05
-0.048399343
1.6532242e-05
1.213604e-05
-0.049776672
8.2727048e-05
-0.049781165
8.2908623e-05
-0.049785006
8.3089246e-05
-0.049788569
8.3147426e-05
-0.049792043
8.3132916e-05
-0.049795533
8.3143088e-05
-0.049799111
8.3256571e-05
-0.049802838
8.3532828e-05
-0.049806773
8.4011117e-05
-0.049810975
8.4720887e-05
-0.049815503
8.5679681e-05
-0.049820417
8.6900793e-05
-0.049825776
8.8388913e-05
-0.049831637
9.014651e-05
-0.049838054
9.2168529e-05
-0.04984508
9.4448521e-05
-0.049852763
9.697292e-05
-0.049861147
9.9727355e-05
-0.049870271
0.00010269065
-0.049880166
0.00010584151
-0.04989086
0.00010915225
-0.049902372
0.00011259598
-0.049914716
0.00011614
-0.049927898
0.00011975353
-0.049941915
0.00012340075
-0.04995676
0.00012704908
-0.049972416
0.00013066182
-0.04998886
0.00013420689
-0.050006064
0.00013764911
-0.050023991
0.00014095937
-0.050042601
0.00014410636
-0.050061848
0.00014706564
-0.050081683
0.00014981441
-0.050102053
0.00015233175
-0.050122903
0.00015460515
-0.050144178
0.00015662148
-0.05016582
0.0001583771
-0.050187776
0.00015986776
-0.05020999
0.00016109876
-0.050232411
0.0001620742
-0.050254991
0.00016280721
-0.050277685
0.00016330887
-0.050300454
0.00016359696
-0.050323261
0.00016368837
-0.050346074
0.0001636016
-0.050368867
0.00016335465
-0.050391616
0.00016296409
-0.050414299
0.00016244417
-0.050436899
0.00016180507
-0.050459398
0.00016105244
-0.050481775
0.00016018601
-0.05050401
0.00015919873
-0.050526075
0.00015807592
-0.05054794
0.00015679499
-0.05056956
0.00015532445
-0.050590885
0.00015362441
-0.050611849
0.0001516465
-0.050632371
0.00014933446
-0.050652353
0.00014662485
-0.050671681
0.00014344866
-0.05069022
0.00013973213
-0.050707814
0.00013539928
-0.050724289
0.00013037369
-0.050739452
0.00012458098
-0.050753089
0.00011795135
-0.050764972
0.00011042227
-0.050774857
0.00010194142
-0.050782491
9.2468898e-05
-0.050787614
8.1980262e-05
-0.050789961
7.0468703e-05
-0.050789274
5.7946396e-05
-0.050785298
4.4446309e-05
-0.050777794
3.0024558e-05
-0.050766543
1.4759942e-05
-0.050751351
-1.2473456e-06
-0.050732051
-1.7876468e-05
-0.050708515
-3.4986722e-05
-0.050680653
-5.2420336e-05
-0.050648419
-7.0005246e-05
-0.050611813
-8.7559383e-05
-0.050570884
-0.0001048944
-0.050525729
-0.0001218197
-0.050476493
-0.00013814728
-0.050423368
-0.00015369608
-0.05036659
-0.00016829528
-0.050306433
-0.00018178883
-0.050243205
-0.00019404074
-0.050177247
-0.00020493663
-0.050108921
-0.00021438427
-0.050038607
-0.00022231546
-0.049966696
-0.00022868712
-0.049893584
-0.00023348012
-0.049819665
-0.00023669915
-0.049745325
-0.00023837053
-0.049670942
-0.00023854023
-0.049596874
-0.00023727128
-0.049523462
-0.000234641
-0.049451024
-0.00023073857
-0.049379851
-0.0002256613
-0.049310212
-0.00021951283
-0.049242345
-0.00021240006
-0.049176464
-0.00020443101
-0.049112755
-0.0001957127
-0.049051378
-0.00018634991
-0.048992469
-0.00017644257
-0.048936138
-0.0001660855
-0.048882474
-0.00015536841
-0.048831548
-0.00014437522
-0.048783408
-0.00013318307
-0.048738087
-0.00012186302
-0.048695604
-0.00011048009
-0.04865596
-9.9094725e-05
-0.048619144
-8.7763847e-05
-0.048585134
-7.6543045e-05
-0.048553895
-6.5488892e-05
-0.048525382
-5.4660716e-05
-0.048499534
-4.4124867e-05
-0.048476273
-3.3975736e-05
-0.048455508
-2.4372066e-05
-0.048437196
-1.5506136e-05
-0.048421332
-7.4375676e-06
-0.048407504
-5.3203698e-07
-0.048395264
4.2918557e-06
3.9620639e-06
-0.049778671
8.7782039e-05
-0.049782934
8.7172134e-05
-0.049786686
8.6840783e-05
-0.049790156
8.6617246e-05
-0.049793503
8.6480483e-05
-0.049796836
8.6475959e-05
-0.049800235
8.6655588e-05
-0.049803769
8.7067115e-05
-0.049807503
8.7745177e-05
-0.0498115
8.871773e-05
-0.049815822
9.0001656e-05
-0.049820531
9.1609712e-05
-0.049825688
9.3545467e-05
-0.049831351
9.5809777e-05
-0.049837577
9.839509e-05
-0.049844421
0.00010129189
-0.049851931
0.00010448262
-0.049860152
0.00010794841
-0.049869124
0.00011166273
-0.049878881
0.00011559857
-0.04988945
0.00011972173
-0.049900853
0.00012399867
-0.049913102
0.00012838939
-0.049926205
0.00013285592
-0.049940159
0.00013735476
-0.049954956
0.00014184603
-0.049970579
0.00014628543
-0.049987006
0.000150634
-0.050004207
0.00015484955
-0.050022144
0.00015889699
-0.050040777
0.00016273906
-0.050060058
0.00016634663
-0.050079936
0.0001696928
-0.050100358
0.00017275318
-0.050121266
0.00017551333
-0.050142603
0.00017795853
-0.050164311
0.00018008525
-0.050186333
0.00018188963
-0.050208613
0.00018337905
-0.050231099
0.00018455987
-0.050253741
0.00018544894
-0.050276493
0.00018606105
-0.050299315
0.00018641871
-0.05032217
0.00018654349
-0.050345027
0.00018645871
-0.050367859
0.00018618701
-0.050390644
0.00018574908
-0.050413363
0.0001851626
-0.050435998
0.00018444008
-0.050458534
0.00018358824
-0.050480954
0.0001826063
-0.05050324
0.00018148492
-0.050525369
0.00018020508
-0.050547312
0.00017873777
-0.05056903
0.00017704275
-0.050590475
0.00017506913
-0.050611584
0.00017275533
-0.050632279
0.00017002968
-0.050652466
0.00016681153
-0.05067203
0.00016301299
-0.050690838
0.00015854019
-0.050708735
0.00015329634
-0.050725545
0.00014718399
-0.050741073
0.00014010815
-0.050755101
0.00013197953
-0.050767396
0.00012271792
-0.050777711
0.00011225586
-0.050785783
0.00010054159
-0.050791346
8.754279e-05
-0.050794127
7.3249446e-05
-0.050793855
5.7674974e-05
-0.050790269
4.0860035e-05
-0.050783119
2.2874931e-05
-0.050772177
3.8175413e-06
-0.050757237
-1.6187078e-05
-0.050738127
-3.6986897e-05
-0.050714709
-5.8404454e-05
-0.050686889
-8.0240668e-05
-0.050654615
-0.0001022786
-0.050617887
-0.00012428792
-0.050576751
-0.00014603028
-0.050531306
-0.00016726454
-0.050481701
-0.00018775262
-0.050428132
-0.00020726512
-0.050370841
-0.00022558621
-0.05031011
-0.00024251932
-0.050246259
-0.00025789207
-0.050179636
-0.00027155915
-0.050110616
-0.00028340431
-0.05003959
-0.00029334194
-0.049966959
-0.00030131836
-0.049893129
-0.00030731014
-0.049818504
-0.00031132398
-0.04974348
-0.00031339395
-0.049668442
-0.00031357885
-0.049593754
-0.00031195899
-0.049519762
-0.00030863257
-0.049446788
-0.00030371267
-0.049375127
-0.00029732239
-0.049305047
-0.00028959263
-0.049236789
-0.00028065823
-0.049170565
-0.00027065521
-0.04910656
-0.00025971812
-0.049044931
-0.00024797844
-0.048985812
-0.00023556149
-0.048929311
-0.00022258642
-0.048875514
-0.00020916518
-0.048824488
-0.00019540192
-0.048776278
-0.00018139242
-0.048730917
-0.00016722476
-0.048688418
-0.00015297911
-0.048648783
-0.0001387295
-0.048612002
-0.00012454499
-0.048578053
-0.00011049185
-0.048546906
-9.6635758e-05
-0.048518523
-8.3044158e-05
-0.048492855
-6.9792584e-05
-0.048469846
-5.6984508e-05
-0.04844945
-4.4767891e-05
-0.048431666
-3.3290387e-05
-0.048416467
-2.2636037e-05
-0.048403571
-1.3428409e-05
-0.048393168
-6.111063e-06
-2.1161314e-06
-0.049779865
9.2349147e-05
-0.049783947
9.1253727e-05
-0.04978763
9.0523565e-05
-0.049791051
9.0038909e-05
-0.049794336
8.9765485e-05
-0.049797585
8.9724296e-05
-0.049800879
8.9950015e-05
-0.049804293
9.0480954e-05
-0.049807895
9.1347102e-05
-0.049811752
9.2574378e-05
-0.049815928
9.4178496e-05
-0.04982049
9.6171308e-05
-0.0498255
9.8555018e-05
-0.049831018
0.0001013287
-0.049837106
0.00010448219
-0.049843816
0.0001080028
-0.049851203
0.00011186886
-0.049859311
0.00011605692
-0.049868183
0.00012053492
-0.049877855
0.00012526996
-0.049888354
0.00013022115
-0.049899704
0.00013534809
-0.049911917
0.00014060323
-0.049925003
0.00014594112
-0.049938958
0.0001513103
-0.049953775
0.0001566633
-0.049969438
0.0001619479
-0.049985922
0.00016711795
-0.050003196
0.00017212392
-0.050021224
0.00017692443
-0.050039961
0.00018147601
-0.050059359
0.00018574455
-0.050079365
0.00018969883
-0.050099922
0.00019331081
-0.050120973
0.00019656401
-0.050142456
0.00019944201
-0.050164313
0.00020194139
-0.050186482
0.00020405876
-0.050208906
0.0002058037
-0.050231531
0.00020718502
-0.050254306
0.00020822362
-0.050277183
0.00020893833
-0.050300122
0.00020935684
-0.050323084
0.00020950587
-0.050346039
0.00020941414
-0.050368962
0.00020910949
-0.05039183
0.00020861733
-0.050414627
0.0002079594
-0.050437338
0.00020715115
-0.050459951
0.00020620092
-0.050482452
0.00020510796
-0.050504828
0.00020386102
-0.05052706
0.00020243712
-0.050549124
0.00020080099
-0.050570985
0.00019890369
-0.050592599
0.00019668326
-0.050613908
0.00019406458
-0.050634838
0.00019096017
-0.050655298
0.00018727143
-0.050675176
0.0001828908
-0.050694339
0.00017770329
-0.050712633
0.00017159009
-0.05072988
0.0001644314
-0.050745882
0.00015611023
-0.050760419
0.00014651629
-0.050773251
0.00013555016
-0.050784123
0.00012312779
-0.050792766
0.00010918409
-0.050798901
9.3677709e-05
-0.050802245
7.6594012e-05
-0.050802517
5.7947127e-05
-0.050799443
3.7785249e-05
-0.05079276
1.6192105e-05
-0.050782227
-6.7157329e-06
-0.050767626
-3.0787209e-05
-0.050748776
-5.5837588e-05
-0.050725528
-8.1651724e-05
-0.050697782
-0.00010798759
-0.050665479
-0.00013458119
-0.050628615
-0.00016115174
-0.050587237
-0.00018740847
-0.050541444
-0.00021305709
-0.05049139
-0.00023780692
-0.050437277
-0.0002613779
-0.050379356
-0.00028350703
-0.050317921
-0.000303955
-0.050253301
-0.00032251166
-0.05018586
-0.00033899997
-0.050115986
-0.00035327893
-0.050044082
-0.00036524527
-0.049970566
-0.00037483486
-0.049895855
-0.00038202059
-0.049820367
-0.00038681214
-0.049744509
-0.00038925253
-0.049668673
-0.00038941487
-0.049593233
-0.00038739832
-0.049518542
-0.0003833236
-0.049444926
-0.00037732934
-0.049372682
-0.00036956599
-0.049302081
-0.00036019322
-0.049233365
-0.00034937512
-0.049166743
-0.00033727688
-0.049102399
-0.00032406155
-0.04904049
-0.00030988813
-0.048981143
-0.00029490799
-0.048924465
-0.0002792649
-0.048870537
-0.00026309334
-0.048819421
-0.00024651799
-0.04877116
-0.00022965324
-0.04872578
-0.00021260396
-0.048683295
-0.0001954651
-0.0486437
-0.00017832374
-0.048606985
-0.00016126026
-0.048573126
-0.00014435041
-0.048542095
-0.00012766741
-0.048513854
-0.00011128494
-0.048488363
-9.5284067e-05
-0.048465579
-7.9768102e-05
-0.048445482
-6.4864606e-05
-0.048428083
-5.0689899e-05
-0.048413364
-3.7354906e-05
-0.048401213
-2.5578766e-05
-0.048392068
-1.525685e-05
-7.0937976e-06
-0.049783413
9.6626176e-05
-0.049787316
9.515699e-05
-0.049790886
9.4093529e-05
-0.049794215
9.3367199e-05
-0.0497974
9.2950913e-05
-0.049800533
9.2857438e-05
-0.049803696
9.3112331e-05
-0.049806962
9.3747743e-05
-0.049810405
9.4790064e-05
-0.049814094
9.6263359e-05
-0.049818098
9.8182098e-05
-0.049822484
0.0001005571
-0.049827318
0.00010338908
-0.049832664
0.00010667525
-0.049838585
0.00011040273
-0.049845138
0.00011455556
-0.049852377
0.00011910787
-0.049860351
0.00012403145
-0.049869105
0.00012928857
-0.049878675
0.00013484023
-0.049889093
0.00014063861
-0.049900381
0.00014663616
-0.049912555
0.00015277746
-0.049925623
0.00015900929
-0.049939585
0.00016527182
-0.049954431
0.00017150962
-0.049970145
0.00017766217
-0.049986703
0.00018367571
-0.050004072
0.000189493
-0.050022213
0.00019506597
-0.050041082
0.00020034461
-0.050060627
0.00020528948
-0.050080793
0.00020986477
-0.050101521
0.00021403857
-0.050122749
0.00021779217
-0.050144414
0.00022110739
-0.050166454
0.0002239809
-0.050188805
0.00022640983
-0.050211407
0.00022840614
-0.050234204
0.00022998136
-0.050257141
0.00023116078
-0.05028017
0.00023196771
-0.050303249
0.00023243555
-0.05032634
0.0002325968
-0.050349412
0.00023248621
-0.05037244
0.00023213756
-0.050395404
0.00023158176
-0.05041829
0.00023084533
-0.050441087
0.0002299474
-0.050463784
0.00022889868
-0.050486375
0.00022769903
-0.05050885
0.00022633586
-0.050531196
0.00022478261
-0.050553393
0.00022299804
-0.050575414
0.00022092461
-0.050597219
0.00021848914
-0.050618758
0.00021560265
-0.050639959
0.00021216129
-0.050660735
0.00020804775
-0.050680978
0.00020313377
-0.050700557
0.000197282
-0.050719317
0.00019035017
-0.05073708
0.00018219457
-0.050753644
0.00017267443
-0.050768784
0.00016165666
-0.050782255
0.00014902078
-0.050793792
0.00013466429
-0.050803115
0.00011850705
-0.050809934
0.00010049717
-0.050813954
8.06137e-05
-0.050814878
5.8870996e-05
-0.050812416
3.5324008e-05
-0.050806293
1.006908e-05
-0.050796251
-1.6758047e-05
-0.050782059
-4.497943e-05
-0.05076352
-7.4376757e-05
-0.050740476
-0.00010469549
-0.050712815
-0.00013564861
-0.050680473
-0.00016692254
-0.050643442
-0.00019818328
-0.050601766
-0.00022908468
-0.050555546
-0.00025927617
-0.050504942
-0.00028841142
-0.050450163
-0.00031615677
-0.050391471
-0.00034219927
-0.050329172
-0.00036625437
-0.050263611
-0.00038807232
-0.050195168
-0.00040744316
-0.050124246
-0.00042420029
-0.050051269
-0.00043822251
-0.049976668
-0.00044943551
-0.04990088
-0.00045780925
-0.049824334
-0.00046335758
-0.049747453
-0.00046613403
-0.04967064
-0.00046622779
-0.049594279
-0.0004637588
-0.049518731
-0.00045887234
-0.049444325
-0.00045173455
-0.049371366
-0.0004425252
-0.049300125
-0.00043143448
-0.049230843
-0.00041865737
-0.04916373
-0.00040438962
-0.049098967
-0.00038882398
-0.049036708
-0.0003721479
-0.048977076
-0.00035453954
-0.048920173
-0.00033616759
-0.048866077
-0.00031718937
-0.048814845
-0.00029775016
-0.048766516
-0.00027798283
-0.048721111
-0.00025800867
-0.048678639
-0.00023793682
-0.048639096
-0.00021786669
-0.048602468
-0.00019788892
-0.048568731
-0.00017808746
-0.048537856
-0.00015854164
-0.048509812
-0.00013932964
-0.048484561
-0.00012053474
-0.048462074
-0.00010225474
-0.048442342
-8.4597206e-05
-0.048425372
-6.7659715e-05
-0.048411165
-5.1562171e-05
-0.048399708
-3.7034875e-05
-0.048391453
-2.3512707e-05
-1.1426404e-05
-0.049788863
0.00010066351
-0.049792578
9.8871948e-05
-0.049795997
9.7512811e-05
-0.049799188
9.6558524e-05
-0.049802234
9.5996136e-05
-0.049805215
9.5839007e-05
-0.049808212
9.6109431e-05
-0.049811301
9.6836482e-05
-0.049814555
9.8044372e-05
-0.049818048
9.9755886e-05
-0.04982185
0.00010198446
-0.049826033
0.00010473992
-0.049830665
0.00010802151
-0.049835815
0.00011182451
-0.049841545
0.00011613328
-0.049847918
0.00012092851
-0.04985499
0.00012618001
-0.049862813
0.00013185466
-0.049871434
0.00013790885
-0.049880891
0.00014429728
-0.049891217
0.0001509649
-0.049902438
0.00015785672
-0.049914569
0.00016490909
-0.049927621
0.00017206063
-0.049941592
0.00017924274
-0.049956474
0.00018639161
-0.049972249
0.00019343794
-0.049988894
0.00020031996
-0.050006373
0.00020697222
-0.050024646
0.00021333959
-0.050043667
0.00021936503
-0.050063381
0.00022500349
-0.05008373
0.00023021419
-0.050104653
0.00023496111
-0.050126084
0.00023922312
-0.050147957
0.00024298018
-0.050170205
0.00024622902
-0.050192762
0.00024896741
-0.050215566
0.00025120986
-0.050238556
0.00025297092
-0.050261675
0.00025428069
-0.050284875
0.00025516749
-0.050308111
0.00025567103
-0.050331344
0.0002558303
-0.050354545
0.0002556869
-0.050377689
0.00025528135
-0.050400758
0.00025465095
-0.05042374
0.00025382791
-0.050446629
0.00025283595
-0.050469419
0.00025168891
-0.050492108
0.00025038805
-0.050514692
0.0002489201
-0.050537165
0.00024725538
-0.050559514
0.00024534702
-0.050581719
0.00024312895
-0.050603746
0.00024051669
-0.05062555
0.000237407
-0.050647068
0.00023367901
-0.050668216
0.00022919579
-0.05068889
0.00022380717
-0.05070896
0.00021735197
-0.050728272
0.00020966281
-0.050746648
0.00020057012
-0.050763881
0.00018990731
-0.05077974
0.00017751628
-0.050793973
0.00016325328
-0.050806304
0.00014699518
-0.050816441
0.00012864468
-0.050824081
0.00010813739
-0.050828912
8.5444606e-05
-0.050830621
6.0579601e-05
-0.0508289
3.3602939e-05
-0.050823454
4.6228268e-06
-0.050814007
-2.6204699e-05
-0.050800313
-5.8673918e-05
-0.050782157
-9.2532239e-05
-0.050759369
-0.00012748364
-0.050731824
-0.00016319358
-0.050699451
-0.00019929593
-0.050662234
-0.00023540015
-0.050620217
-0.00027110107
-0.050573505
-0.00030598814
-0.050522261
-0.0003396556
-0.050466705
-0.00037171273
-0.050407111
-0.00040179328
-0.050343801
-0.00042956462
-0.050277138
-0.00045473519
-0.050207521
-0.00047706051
-0.050135373
-0.00049634748
-0.050061139
-0.00051245666
-0.049985271
-0.00052530395
-0.049908223
-0.00053485735
-0.049830444
-0.00054113635
-0.049752371
-0.00054420689
-0.049674422
-0.00054417641
-0.049596993
-0.000541188
-0.049520452
-0.00053541392
-0.049445136
-0.00052705027
-0.049371353
-0.00051630842
-0.049299376
-0.00050341125
-0.049229447
-0.00048858654
-0.049161774
-0.00047206229
-0.049096536
-0.00045406233
-0.04903388
-0.00043480376
-0.048973927
-0.00041449228
-0.048916773
-0.00039332215
-0.048862488
-0.00037147379
-0.048811125
-0.00034911324
-0.048762716
-0.00032639171
-0.048717278
-0.00030344655
-0.048674815
-0.00028040056
-0.048635317
-0.00025736461
-0.048598767
-0.00023443853
-0.048565141
-0.00021171314
-0.048534411
-0.00018927229
-0.048506544
-0.00016719655
-0.048481511
-0.00014556804
-0.04845929
-0.00012447571
-0.048439877
-0.0001040094
-0.048423284
-8.4252742e-05
-0.048409531
-6.53159e-05
-0.048398647
-4.7918538e-05
-0.048391016
-3.1143184e-05
-1.5352883e-05
-0.049796293
0.00010449361
-0.049799815
0.00010239437
-0.049803057
0.00010075521
-0.049806077
9.9578133e-05
-0.049808946
9.8864737e-05
-0.04981174
9.8633214e-05
-0.049814537
9.8906399e-05
-0.049817413
9.9712793e-05
-0.049820445
0.00010107587
-0.049823707
0.0001030179
-0.049827274
0.00010555167
-0.04983122
0.00010868621
-0.049835618
0.00011241938
-0.049840538
0.00011674455
-0.049846048
0.00012164332
-0.049852212
0.00012709292
-0.049859091
0.00013305874
-0.049866739
0.00013950259
-0.049875205
0.00014637477
-0.049884531
0.00015362338
-0.049894752
0.00016118586
-0.049905895
0.00016899939
-0.049917977
0.00017699173
-0.04993101
0.00018509283
-0.049944992
0.0001932249
-0.049959915
0.00020131522
-0.049975763
0.00020928522
-0.049992507
0.00021706454
-0.050010114
0.00022457907
-0.050028541
0.00023176605
-0.050047736
0.00023856101
-0.050067646
0.00024491278
-0.050088207
0.0002507753
-0.050109354
0.00025610812
-0.050131018
0.00026088746
-0.050153129
0.00026509129
-0.050175617
0.00026871639
-0.050198411
0.00027176126
-0.050221444
0.0002742432
-0.050244653
0.00027618011
-0.05026798
0.00027760738
-0.050291371
0.00027855893
-0.050314782
0.00027908153
-0.050338173
0.00027922146
-0.050361514
0.00027902809
-0.050384782
0.00027854969
-0.050407962
0.00027783098
-0.050431045
0.00027691093
-0.050454028
0.00027581882
-0.050476912
0.00027457268
-0.0504997
0.00027317604
-0.050522396
0.00027161571
-0.050545
0.00026985953
-0.050567508
0.00026785533
-0.050589908
0.00026552873
-0.050612175
0.00026278377
-0.050634271
0.00025950258
-0.050656138
0.00025554654
-0.0506777
0.000250758
-0.050698857
0.00024496354
-0.050719481
0.00023797646
-0.050739421
0.00022960229
-0.050758494
0.00021964337
-0.050776491
0.00020790485
-0.050793176
0.0001942011
-0.050808285
0.00017836245
-0.050821533
0.00016024252
-0.050832612
0.00013972441
-0.050841204
0.0001167288
-0.050846977
9.1217677e-05
-0.050849599
6.3201387e-05
-0.05084874
3.2744745e-05
-0.050844085
-3.2243204e-08
-0.050835337
-3.4953106e-05
-0.050822227
-7.1783813e-05
-0.050804524
-0.00011023565
-0.050782038
-0.00014996889
-0.050754633
-0.00019059858
-0.050722227
-0.00023170255
-0.050684797
-0.00027282972
-0.050642387
-0.00031351165
-0.050595101
-0.00035327331
-0.050543112
-0.00039164514
-0.05048665
-0.00042817504
-0.050426003
-0.00046243961
-0.050361513
-0.00049405475
-0.050293564