/*--------------------------------*- C++ -*----------------------------------*\
| =========                 |                                                 |
| \\      /  F ield         | foam-extend: Open Source CFD                    |
|  \\    /   O peration     | Version:     4.1                                |
|   \\  /    A nd           | Web:         http://www.foam-extend.org         |
|    \\/     M anipulation  |                                                 |
\*---------------------------------------------------------------------------*/
FoamFile
{
    version     2.0;
    format      ascii;
    class       volVectorField;
    location    "0.6";
    object      U;
}
// * * * * * * * * * * * * * * * * * * * * * * * * * * * * * * * * * * * * * //

dimensions      [0 1 -1 0 0 0 0];

internalField   nonuniform List<vector> 
16126
(
(132.19039 -0.086241807 0)
(132.40655 -0.095645657 0)
(132.58531 -0.097525134 0)
(132.76951 -0.098232501 0)
(132.95437 -0.09853094 0)
(133.13946 -0.098713904 0)
(133.32465 -0.098885055 0)
(133.50995 -0.099090363 0)
(133.69551 -0.099353315 0)
(133.88149 -0.099687248 0)
(134.0681 -0.10010013 0)
(134.25558 -0.1005966 0)
(134.44417 -0.10117893 0)
(134.6341 -0.1018475 0)
(134.82564 -0.10260104 0)
(135.01902 -0.10343682 0)
(135.21448 -0.10435073 0)
(135.41226 -0.1053374 0)
(135.61256 -0.10639031 0)
(135.81558 -0.10750184 0)
(136.0215 -0.10866349 0)
(136.23045 -0.10986592 0)
(136.44257 -0.11109917 0)
(136.65794 -0.11235275 0)
(136.87662 -0.11361591 0)
(137.09866 -0.11487774 0)
(137.32403 -0.11612739 0)
(137.55272 -0.11735428 0)
(137.78465 -0.11854826 0)
(138.01973 -0.11969981 0)
(138.25782 -0.12080021 0)
(138.49879 -0.12184169 0)
(138.74246 -0.12281768 0)
(138.98862 -0.12372271 0)
(139.23707 -0.12455267 0)
(139.48758 -0.12530484 0)
(139.73992 -0.12597788 0)
(139.99384 -0.12657184 0)
(140.24911 -0.12708809 0)
(140.50548 -0.12752922 0)
(140.76273 -0.12789892 0)
(141.02064 -0.12820182 0)
(141.27898 -0.12844317 0)
(141.53758 -0.12862876 0)
(141.79625 -0.1287645 0)
(142.05483 -0.12885617 0)
(142.31318 -0.1289091 0)
(142.57115 -0.12892785 0)
(142.82864 -0.12891588 0)
(143.08552 -0.12887523 0)
(143.34171 -0.12880627 0)
(143.59708 -0.12870739 0)
(143.85152 -0.12857484 0)
(144.10492 -0.12840259 0)
(144.35713 -0.12818219 0)
(144.60797 -0.12790283 0)
(144.85726 -0.12755136 0)
(145.10473 -0.12711248 0)
(145.35011 -0.126569 0)
(145.59307 -0.12590217 0)
(145.8332 -0.12509212 0)
(146.07006 -0.12411835 0)
(146.30314 -0.12296035 0)
(146.53187 -0.12159824 0)
(146.75564 -0.12001345 0)
(146.97378 -0.11818945 0)
(147.18556 -0.11611246 0)
(147.39024 -0.11377215 0)
(147.58705 -0.11116231 0)
(147.77521 -0.10828142 0)
(147.95393 -0.10513312 0)
(148.12246 -0.10172652 0)
(148.28007 -0.098076647 0)
(148.4261 -0.09420433 0)
(148.55994 -0.090136289 0)
(148.68109 -0.085904633 0)
(148.78913 -0.081546348 0)
(148.88379 -0.077102231 0)
(148.96489 -0.072614915 0)
(149.03241 -0.068127417 0)
(149.08647 -0.063684428 0)
(149.12734 -0.059332411 0)
(149.15543 -0.055114383 0)
(149.17129 -0.051064404 0)
(149.17559 -0.047202865 0)
(149.16913 -0.043552168 0)
(149.1525 -0.040195889 0)
(149.12678 -0.037218006 0)
(149.0931 -0.034651958 0)
(149.05266 -0.032516012 0)
(149.00673 -0.030819451 0)
(148.95659 -0.029564162 0)
(148.9035 -0.028745344 0)
(148.84875 -0.028352122 0)
(148.79355 -0.028368191 0)
(148.7391 -0.028772544 0)
(148.68651 -0.029540226 0)
(148.63685 -0.030643122 0)
(148.59109 -0.032050698 0)
(148.55012 -0.033730666 0)
(148.51474 -0.03564958 0)
(148.48569 -0.037773265 0)
(148.46358 -0.040067284 0)
(148.44896 -0.042495925 0)
(148.44227 -0.045019057 0)
(148.44392 -0.047593485 0)
(148.45405 -0.050207514 0)
(148.47289 -0.052859974 0)
(148.50062 -0.055532077 0)
(148.53735 -0.058200029 0)
(148.58316 -0.060838646 0)
(148.63805 -0.063421482 0)
(148.70201 -0.065919929 0)
(148.77494 -0.068301292 0)
(148.85674 -0.070525724 0)
(148.94724 -0.07254288 0)
(149.04619 -0.074288977 0)
(149.15314 -0.075674124 0)
(149.26755 -0.07652501 0)
(149.38931 -0.076501607 0)
(149.51918 -0.075252924 0)
(149.65427 -0.072938198 0)
(149.77819 -0.0693129 0)
(149.87064 -0.054136545 0)
(152.03633 -0.13083151 0)
(152.10024 -0.1437534 0)
(152.14638 -0.14705203 0)
(152.19354 -0.14817072 0)
(152.24065 -0.14842848 0)
(152.28755 -0.14840442 0)
(152.3342 -0.14834186 0)
(152.38064 -0.14835987 0)
(152.42696 -0.14852407 0)
(152.47333 -0.14887441 0)
(152.51992 -0.14943681 0)
(152.56693 -0.15022826 0)
(152.61459 -0.15125935 0)
(152.6631 -0.15253539 0)
(152.7127 -0.15405707 0)
(152.76361 -0.15582076 0)
(152.81606 -0.15781876 0)
(152.87025 -0.1600395 0)
(152.92641 -0.16246774 0)
(152.98471 -0.16508476 0)
(153.04532 -0.16786874 0)
(153.10841 -0.17079494 0)
(153.17409 -0.17383626 0)
(153.24248 -0.17696349 0)
(153.31365 -0.18014596 0)
(153.38764 -0.18335193 0)
(153.46448 -0.18654923 0)
(153.54415 -0.18970572 0)
(153.62662 -0.19279004 0)
(153.7118 -0.19577199 0)
(153.79961 -0.19862323 0)
(153.88991 -0.2013177 0)
(153.98256 -0.20383234 0)
(154.07738 -0.20614714 0)
(154.17418 -0.20824575 0)
(154.27277 -0.2101157 0)
(154.37291 -0.21174849 0)
(154.4744 -0.21313976 0)
(154.577 -0.21428907 0)
(154.68048 -0.21519984 0)
(154.78462 -0.215879 0)
(154.8892 -0.21633651 0)
(154.99401 -0.21658482 0)
(155.09886 -0.21663827 0)
(155.20356 -0.21651222 0)
(155.30795 -0.21622226 0)
(155.41186 -0.21578328 0)
(155.51515 -0.21520856 0)
(155.61769 -0.21450877 0)
(155.71936 -0.21369106 0)
(155.82004 -0.21275818 0)
(155.91961 -0.21170772 0)
(156.01794 -0.21053137 0)
(156.1149 -0.20921454 0)
(156.21033 -0.2077359 0)
(156.30405 -0.20606737 0)
(156.39586 -0.20417422 0)
(156.4855 -0.20201546 0)
(156.57269 -0.19954451 0)
(156.65708 -0.19671017 0)
(156.73828 -0.19345774 0)
(156.81585 -0.18973054 0)
(156.88927 -0.18547155 0)
(156.95798 -0.18062532 0)
(157.02136 -0.17513991 0)
(157.07874 -0.16896908 0)
(157.12942 -0.16207433 0)
(157.17264 -0.15442704 0)
(157.20762 -0.14601038 0)
(157.2336 -0.13682113 0)
(157.24977 -0.12687098 0)
(157.25538 -0.11618777 0)
(157.2497 -0.10481655 0)
(157.23206 -0.092819349 0)
(157.20183 -0.080275582 0)
(157.15851 -0.06728068 0)
(157.10168 -0.053943128 0)
(157.03103 -0.04038284 0)
(156.94639 -0.026729164 0)
(156.84771 -0.013129876 0)
(156.7351 0.00026773423 0)
(156.60881 0.01331697 0)
(156.46927 0.025874916 0)
(156.317 0.037811098 0)
(156.15271 0.049018608 0)
(155.97725 0.0594041 0)
(155.79187 0.068843775 0)
(155.59756 0.077208652 0)
(155.39539 0.084416846 0)
(155.18646 0.090413256 0)
(154.97194 0.095164572 0)
(154.75301 0.098657367 0)
(154.53086 0.10089673 0)
(154.30667 0.10190477 0)
(154.08159 0.1017189 0)
(153.85674 0.1003898 0)
(153.63319 0.097979354 0)
(153.41193 0.094558363 0)
(153.1939 0.090204364 0)
(152.97996 0.084999556 0)
(152.77088 0.079028843 0)
(152.56738 0.072378103 0)
(152.37006 0.065132663 0)
(152.17947 0.057377388 0)
(151.99608 0.049199983 0)
(151.82026 0.040690119 0)
(151.65248 0.031917236 0)
(151.49301 0.022928577 0)
(151.34204 0.013776557 0)
(151.19968 0.0045129599 0)
(151.06601 -0.0048135997 0)
(150.94104 -0.014157775 0)
(150.82474 -0.023476421 0)
(150.71705 -0.032725981 0)
(150.61784 -0.041858344 0)
(150.52698 -0.050817907 0)
(150.44424 -0.059545433 0)
(150.36925 -0.067948058 0)
(150.30162 -0.075776345 0)
(150.24136 -0.082490942 0)
(150.18885 -0.087684113 0)
(150.14122 -0.092021474 0)
(150.08905 -0.095145833 0)
(150.03008 -0.07817221 0)
(154.13065 -0.15083415 0)
(154.1587 -0.15713815 0)
(154.17476 -0.15969382 0)
(154.19005 -0.16060821 0)
(154.20498 -0.16074843 0)
(154.21988 -0.16062089 0)
(154.23494 -0.16049442 0)
(154.25029 -0.16051912 0)
(154.2661 -0.16078475 0)
(154.28253 -0.16134851 0)
(154.29976 -0.16224834 0)
(154.31797 -0.16350933 0)
(154.33734 -0.16514695 0)
(154.35807 -0.1671687 0)
(154.38034 -0.16957494 0)
(154.40431 -0.17235942 0)
(154.43015 -0.17550962 0)
(154.45802 -0.179007 0)
(154.48805 -0.18282738 0)
(154.52037 -0.1869412 0)
(154.55507 -0.19131406 0)
(154.59224 -0.19590712 0)
(154.63195 -0.20067781 0)
(154.67422 -0.20558033 0)
(154.71909 -0.21056662 0)
(154.76653 -0.21558692 0)
(154.81651 -0.22059085 0)
(154.86899 -0.2255281 0)
(154.92389 -0.23034953 0)
(154.98111 -0.23500786 0)
(155.04053 -0.23945876 0)
(155.10202 -0.24366147 0)
(155.16542 -0.24757981 0)
(155.23059 -0.25118264 0)
(155.29735 -0.25444443 0)
(155.36553 -0.25734582 0)
(155.43493 -0.25987371 0)
(155.50539 -0.26202147 0)
(155.57672 -0.26378875 0)
(155.64876 -0.26518123 0)
(155.72134 -0.2662101 0)
(155.79431 -0.26689134 0)
(155.86752 -0.2672448 0)
(155.94085 -0.26729324 0)
(156.01419 -0.26706091 0)
(156.08742 -0.26657233 0)
(156.16048 -0.26585071 0)
(156.23327 -0.26491647 0)
(156.30573 -0.26378566 0)
(156.37779 -0.26246846 0)
(156.44938 -0.26096772 0)
(156.52045 -0.2592777 0)
(156.59089 -0.25738295 0)
(156.66063 -0.25525751 0)
(156.72952 -0.25286435 0)
(156.79744 -0.25015519 0)
(156.86418 -0.24707076 0)
(156.92952 -0.2435414 0)
(156.99319 -0.23948818 0)
(157.05484 -0.23482444 0)
(157.11411 -0.22945773 0)
(157.17054 -0.2232923 0)
(157.22362 -0.21623178 0)
(157.27279 -0.20818236 0)
(157.31744 -0.1990561 0)
(157.35688 -0.18877445 0)
(157.39041 -0.17727177 0)
(157.41726 -0.16449883 0)
(157.43666 -0.15042608 0)
(157.44781 -0.13504661 0)
(157.44992 -0.11837855 0)
(157.44222 -0.10046669 0)
(157.42397 -0.081384612 0)
(157.39447 -0.061235062 0)
(157.35311 -0.040148639 0)
(157.29934 -0.018281661 0)
(157.23274 0.0041848932 0)
(157.15297 0.027043017 0)
(157.05985 0.050068624 0)
(156.95333 0.073031958 0)
(156.83348 0.095688714 0)
(156.70054 0.1177923 0)
(156.55487 0.13909829 0)
(156.397 0.15937043 0)
(156.22759 0.17838771 0)
(156.0474 0.19595164 0)
(155.85732 0.21190332 0)
(155.65833 0.22610943 0)
(155.4515 0.23845067 0)
(155.23797 0.24883835 0)
(155.0189 0.25721609 0)
(154.7955 0.26355926 0)
(154.56897 0.26787337 0)
(154.34051 0.27019187 0)
(154.11127 0.27057341 0)
(153.88239 0.2690986 0)
(153.65494 0.26586653 0)
(153.42993 0.26099114 0)
(153.2083 0.25459753 0)
(152.99091 0.2468185 0)
(152.77854 0.23779114 0)
(152.57191 0.22765374 0)
(152.37161 0.21654304 0)
(152.17821 0.20459191 0)
(151.99216 0.19192764 0)
(151.81384 0.17867095 0)
(151.64357 0.16494305 0)
(151.4816 0.15085969 0)
(151.32812 0.1365212 0)
(151.18326 0.1220184 0)
(151.0471 0.10743428 0)
(150.91967 0.092844899 0)
(150.80097 0.078320645 0)
(150.69093 0.063928913 0)
(150.58948 0.049737273 0)
(150.49646 0.035813649 0)
(150.41169 0.022229344 0)
(150.33487 0.0090843721 0)
(150.26575 -0.0033860608 0)
(150.20437 -0.014751918 0)
(150.15055 -0.024895036 0)
(150.10169 -0.034375987 0)
(150.05449 -0.042596627 0)
(150.01554 -0.036406438 0)
(154.2947 -0.16530968 0)
(154.31541 -0.16702866 0)
(154.32776 -0.16811011 0)
(154.33913 -0.16858924 0)
(154.34996 -0.1687236 0)
(154.3607 -0.16879475 0)
(154.37161 -0.16900214 0)
(154.38289 -0.16947768 0)
(154.39472 -0.17030833 0)
(154.40729 -0.17155196 0)
(154.42077 -0.17324692 0)
(154.43536 -0.17541725 0)
(154.45124 -0.17807575 0)
(154.46859 -0.18122552 0)
(154.48758 -0.184861 0)
(154.50838 -0.1889685 0)
(154.53114 -0.19352678 0)
(154.55601 -0.1985073 0)
(154.58312 -0.2038749 0)
(154.61258 -0.20958807 0)
(154.64447 -0.21559974 0)
(154.67888 -0.22185782 0)
(154.71585 -0.22830614 0)
(154.75542 -0.2348851 0)
(154.79758 -0.24153291 0)
(154.84233 -0.24818629 0)
(154.88962 -0.25478187 0)
(154.93939 -0.26125698 0)
(154.99157 -0.26755108 0)
(155.04606 -0.27360657 0)
(155.10272 -0.27937012 0)
(155.16144 -0.28479344 0)
(155.22206 -0.28983441 0)
(155.28442 -0.29445772 0)
(155.34835 -0.29863545 0)
(155.41369 -0.30234771 0)
(155.48026 -0.30558269 0)
(155.54788 -0.30833683 0)
(155.61638 -0.31061449 0)
(155.68561 -0.31242753 0)
(155.7554 -0.31379454 0)
(155.82561 -0.31473988 0)
(155.89611 -0.31529238 0)
(155.96678 -0.31548389 0)
(156.03751 -0.31534762 0)
(156.10823 -0.31491623 0)
(156.17884 -0.3142199 0)
(156.24928 -0.31328424 0)
(156.31949 -0.31212825 0)
(156.38941 -0.31076229 0)
(156.45899 -0.30918621 0)
(156.52816 -0.30738763 0)
(156.59686 -0.30534055 0)
(156.66499 -0.30300424 0)
(156.73243 -0.30032265 0)
(156.79906 -0.29722415 0)
(156.86467 -0.29362199 0)
(156.92905 -0.28941514 0)
(156.99192 -0.28448991 0)
(157.05296 -0.27872206 0)
(157.11177 -0.27197957 0)
(157.16792 -0.26412598 0)
(157.22087 -0.25502423 0)
(157.27008 -0.24454095 0)
(157.31489 -0.23255107 0)
(157.35463 -0.21894268 0)
(157.38857 -0.20362195 0)
(157.41592 -0.1865179 0)
(157.43589 -0.167587 0)
(157.44766 -0.1468174 0)
(157.45043 -0.12423179 0)
(157.44338 -0.099889771 0)
(157.42574 -0.073891906 0)
(157.39681 -0.046380175 0)
(157.35594 -0.017533457 0)
(157.30257 0.012428636 0)
(157.23623 0.043248589 0)
(157.15659 0.074646411 0)
(157.06343 0.10631314 0)
(156.95668 0.13792113 0)
(156.83642 0.16913231 0)
(156.70287 0.19960426 0)
(156.5564 0.22899926 0)
(156.39755 0.25699143 0)
(156.22699 0.28327039 0)
(156.04549 0.30754895 0)
(155.85398 0.32958027 0)
(155.65346 0.34916034 0)
(155.44502 0.36612328 0)
(155.22983 0.38034635 0)
(155.00908 0.3917515 0)
(154.78399 0.40030486 0)
(154.5558 0.40601483 0)
(154.32571 0.40892905 0)
(154.09492 0.40913057 0)
(153.86456 0.40673335 0)
(153.63573 0.40187739 0)
(153.40944 0.39472362 0)
(153.18665 0.38544885 0)
(152.96821 0.37424087 0)
(152.75492 0.36129389 0)
(152.54747 0.34680435 0)
(152.34649 0.33096735 0)
(152.1525 0.31397339 0)
(151.96598 0.29600449 0)
(151.78729 0.27723117 0)
(151.61675 0.25781636 0)
(151.4546 0.23791528 0)
(151.30102 0.21767148 0)
(151.15615 0.19721806 0)
(151.02005 0.17667919 0)
(150.89276 0.15617213 0)
(150.77427 0.13581026 0)
(150.66452 0.11570781 0)
(150.56343 0.095985257 0)
(150.47086 0.076773062 0)
(150.38664 0.058219491 0)
(150.31054 0.040532769 0)
(150.2424 0.02406664 0)
(150.1822 0.0092934522 0)
(150.12944 -0.0035504646 0)
(150.08208 -0.013942669 0)
(150.03986 -0.020540075 0)
(150.01018 -0.016292339 0)
(154.30249 -0.17598601 0)
(154.32113 -0.1753974 0)
(154.33311 -0.17518355 0)
(154.34421 -0.17498024 0)
(154.3547 -0.17479739 0)
(154.365 -0.17477284 0)
(154.37538 -0.17504358 0)
(154.38608 -0.17571836 0)
(154.3973 -0.17687753 0)
(154.40923 -0.17857848 0)
(154.42208 -0.18086052 0)
(154.43603 -0.18374824 0)
(154.45128 -0.18725375 0)
(154.468 -0.19137785 0)
(154.48639 -0.196111 0)
(154.50661 -0.20143377 0)
(154.52882 -0.20731751 0)
(154.55317 -0.21372462 0)
(154.57979 -0.22060933 0)
(154.6088 -0.22791809 0)
(154.64029 -0.23559062 0)
(154.67433 -0.24356044 0)
(154.71098 -0.25175621 0)
(154.75028 -0.26010244 0)
(154.79222 -0.26852112 0)
(154.83679 -0.27693258 0)
(154.88396 -0.2852572 0)
(154.93366 -0.29341648 0)
(154.98581 -0.30133475 0)
(155.04031 -0.30894022 0)
(155.09703 -0.31616661 0)
(155.15583 -0.32295415 0)
(155.21657 -0.32925091 0)
(155.27908 -0.33501364 0)
(155.34318 -0.34020849 0)
(155.40871 -0.34481177 0)
(155.47548 -0.34880997 0)
(155.5433 -0.35220002 0)
(155.61201 -0.35498879 0)
(155.68144 -0.3571926 0)
(155.75143 -0.35883619 0)
(155.82182 -0.35995149 0)
(155.8925 -0.360576 0)
(155.96332 -0.3607509 0)
(156.0342 -0.36051893 0)
(156.10504 -0.35992198 0)
(156.17577 -0.3589986 0)
(156.24632 -0.35778133 0)
(156.31664 -0.35629409 0)
(156.38667 -0.3545496 0)
(156.45637 -0.35254692 0)
(156.52569 -0.35026931 0)
(156.59456 -0.34768238 0)
(156.66291 -0.34473272 0)
(156.73062 -0.341347 0)
(156.79758 -0.33743183 0)
(156.8636 -0.33287411 0)
(156.92847 -0.32754229 0)
(156.99193 -0.32128833 0)
(157.05365 -0.31395047 0)
(157.11325 -0.3053568 0)
(157.17028 -0.29532954 0)
(157.22423 -0.28369002 0)
(157.27452 -0.27026428 0)
(157.32051 -0.25488898 0)
(157.3615 -0.2374178 0)
(157.39674 -0.21772776 0)
(157.42545 -0.19572551 0)
(157.44678 -0.17135331 0)
(157.45992 -0.14459479 0)
(157.46401 -0.11547729 0)
(157.45821 -0.084077488 0)
(157.44174 -0.050526651 0)
(157.41384 -0.015007746 0)
(157.37385 0.022247448 0)
(157.32117 0.060957138 0)
(157.25531 0.10079624 0)
(157.17592 0.14139608 0)
(157.08277 0.18235575 0)
(156.97576 0.22325061 0)
(156.85499 0.26364105 0)
(156.72066 0.30308284 0)
(156.57318 0.34113778 0)
(156.41306 0.37738396 0)
(156.241 0.41142446 0)
(156.05782 0.44289609 0)
(155.86444 0.47148025 0)
(155.66192 0.49690854 0)
(155.45137 0.51896531 0)
(155.23399 0.53749126 0)
(155.01101 0.55238494 0)
(154.78368 0.563602 0)
(154.55327 0.57115272 0)
(154.32103 0.57509812 0)
(154.08816 0.57554489 0)
(153.85582 0.57263951 0)
(153.62512 0.56656181 0)
(153.39711 0.55751833 0)
(153.17272 0.54573566 0)
(152.95284 0.53145407 0)
(152.73826 0.51492156 0)
(152.52968 0.49638852 0)
(152.3277 0.4761032 0)
(152.13287 0.45430769 0)
(151.94564 0.43123408 0)
(151.76636 0.40710164 0)
(151.59535 0.38211631 0)
(151.43285 0.3564696 0)
(151.27901 0.33033721 0)
(151.13396 0.30387958 0)
(150.99778 0.27724312 0)
(150.87048 0.25056222 0)
(150.75205 0.22396226 0)
(150.64245 0.19756429 0)
(150.54159 0.17149003 0)
(150.44935 0.14586713 0)
(150.36559 0.12084328 0)
(150.29015 0.096628479 0)
(150.22298 0.073544152 0)
(150.164 0.051957771 0)
(150.11279 0.032131008 0)
(150.06813 0.015300522 0)
(150.03109 0.0027022106 0)
(150.00748 -0.0017078953 0)
(154.30708 -0.18670167 0)
(154.32447 -0.18490612 0)
(154.33614 -0.18382006 0)
(154.34708 -0.18312008 0)
(154.3574 -0.18273809 0)
(154.36747 -0.18273287 0)
(154.37755 -0.18319413 0)
(154.3879 -0.18420675 0)
(154.39872 -0.18584012 0)
(154.41023 -0.18814663 0)
(154.42264 -0.19116283 0)
(154.43613 -0.19491081 0)
(154.45092 -0.19939953 0)
(154.46719 -0.2046255 0)
(154.48514 -0.21057363 0)
(154.50493 -0.21721748 0)
(154.52675 -0.22452008 0)
(154.55073 -0.23243413 0)
(154.57702 -0.24090299 0)
(154.60574 -0.24986112 0)
(154.63698 -0.25923527 0)
(154.67084 -0.26894522 0)
(154.70735 -0.2789053 0)
(154.74656 -0.28902531 0)
(154.78848 -0.29921235 0)
(154.83309 -0.30937189 0)
(154.88035 -0.31940986 0)
(154.9302 -0.32923375 0)
(154.98255 -0.33875477 0)
(155.0373 -0.34788901 0)
(155.09432 -0.35655938 0)
(155.15347 -0.36469676 0)
(155.21459 -0.37224152 0)
(155.27751 -0.37914463 0)
(155.34205 -0.38536832 0)
(155.40803 -0.39088706 0)
(155.47525 -0.39568754 0)
(155.54353 -0.39976894 0)
(155.6127 -0.40314228 0)
(155.68257 -0.40582985 0)
(155.75298 -0.40786389 0)
(155.82378 -0.40928513 0)
(155.89482 -0.41014077 0)
(155.966 -0.41048221 0)
(156.03719 -0.41036241 0)
(156.10833 -0.40983302 0)
(156.17932 -0.40894129 0)
(156.25012 -0.40772685 0)
(156.32067 -0.40621847 0)
(156.39094 -0.40443094 0)
(156.46088 -0.40236206 0)
(156.53046 -0.39998998 0)
(156.59963 -0.39727097 0)
(156.66832 -0.39413766 0)
(156.73644 -0.39049803 0)
(156.80388 -0.38623506 0)
(156.87047 -0.38120729 0)
(156.93601 -0.37525028 0)
(157.00026 -0.36817897 0)
(157.06289 -0.35979114 0)
(157.12352 -0.34987171 0)
(157.18172 -0.33819805 0)
(157.23696 -0.32454615 0)
(157.28867 -0.3086974 0)
(157.33619 -0.29044609 0)
(157.3788 -0.26960715 0)
(157.41575 -0.24602416 0)
(157.44621 -0.21957705 0)
(157.46933 -0.19018978 0)
(157.48423 -0.15783717 0)
(157.49004 -0.12254728 0)
(157.48589 -0.084411702 0)
(157.47094 -0.043589385 0)
(157.44442 -0.00030012604 0)
(157.40559 0.045167389 0)
(157.35385 0.092465162 0)
(157.28866 0.14118748 0)
(157.20965 0.19087943 0)
(157.11657 0.24104464 0)
(157.00931 0.29115625 0)
(156.88795 0.34066825 0)
(156.75271 0.38902828 0)
(156.60398 0.43569092 0)
(156.44232 0.48013061 0)
(156.26843 0.52185396 0)
(156.08317 0.56041173 0)
(155.8875 0.59540963 0)
(155.68251 0.62651551 0)
(155.46935 0.65346429 0)
(155.24928 0.67606161 0)
(155.02355 0.69418517 0)
(154.79348 0.70778378 0)
(154.56037 0.71687411 0)
(154.32548 0.72153579 0)
(154.09007 0.72190504 0)
(153.85533 0.71816722 0)
(153.62238 0.71054879 0)
(153.39228 0.69930896 0)
(153.166 0.68473136 0)
(152.94441 0.66711611 0)
(152.72831 0.64677239 0)
(152.5184 0.62401178 0)
(152.31529 0.59914253 0)
(152.1195 0.5724647 0)
(151.93148 0.54426596 0)
(151.75158 0.51481903 0)
(151.5801 0.48438004 0)
(151.41725 0.45318711 0)
(151.26319 0.42145945 0)
(151.11805 0.38939775 0)
(150.98186 0.35718529 0)
(150.85464 0.32499002 0)
(150.73638 0.29296746 0)
(150.62702 0.2612647 0)
(150.52647 0.23002429 0)
(150.43462 0.19938919 0)
(150.35135 0.1695171 0)
(150.27654 0.14061149 0)
(150.21015 0.11293426 0)
(150.1521 0.086732733 0)
(150.10209 0.062214584 0)
(150.05958 0.040757803 0)
(150.02614 0.022534783 0)
(150.00609 0.0096244878 0)
(154.31855 -0.19486466 0)
(154.33505 -0.19216058 0)
(154.3463 -0.19026992 0)
(154.35694 -0.18899188 0)
(154.36697 -0.18826013 0)
(154.3767 -0.18810237 0)
(154.38641 -0.18858202 0)
(154.39632 -0.1897681 0)
(154.40666 -0.19172192 0)
(154.41767 -0.19449209 0)
(154.42954 -0.19811321 0)
(154.44249 -0.20260564 0)
(154.45673 -0.20797589 0)
(154.47246 -0.21421685 0)
(154.48988 -0.22130828 0)
(154.50917 -0.22921706 0)
(154.53051 -0.23789784 0)
(154.55405 -0.24729335 0)
(154.57995 -0.25733549 0)
(154.60833 -0.26794576 0)
(154.63929 -0.27903679 0)
(154.67292 -0.2905131 0)
(154.70928 -0.30227291 0)
(154.7484 -0.31420928 0)
(154.7903 -0.3262122 0)
(154.83496 -0.33816994 0)
(154.88235 -0.3499714 0)
(154.93239 -0.36150751 0)
(154.98501 -0.37267374 0)
(155.04008 -0.38337145 0)
(155.09749 -0.3935102 0)
(155.15707 -0.40300911 0)
(155.21867 -0.41179865 0)
(155.2821 -0.41982192 0)
(155.34718 -0.4270355 0)
(155.41371 -0.43341054 0)
(155.48151 -0.43893278 0)
(155.55036 -0.44360285 0)
(155.62008 -0.44743552 0)
(155.6905 -0.45045901 0)
(155.76142 -0.45271344 0)
(155.83271 -0.45424908 0)
(155.90421 -0.45512396 0)
(155.9758 -0.45540116 0)
(156.04738 -0.45514569 0)
(156.11885 -0.454421 0)
(156.19016 -0.45328532 0)
(156.26124 -0.45178779 0)
(156.33206 -0.44996462 0)
(156.40259 -0.44783519 0)
(156.4728 -0.44539858 0)
(156.54267 -0.44263021 0)
(156.61216 -0.43947918 0)
(156.68123 -0.43586613 0)
(156.7498 -0.43168188 0)
(156.81778 -0.42678704 0)
(156.88502 -0.42101259 0)
(156.95134 -0.41416149 0)
(157.01649 -0.40601159 0)
(157.08017 -0.39631961 0)
(157.14202 -0.38482632 0)
(157.20158 -0.3712629 0)
(157.25835 -0.35535826 0)
(157.31173 -0.33684731 0)
(157.36106 -0.31547987 0)
(157.40561 -0.29103013 0)
(157.44458 -0.26330627 0)
(157.47714 -0.2321598 0)
(157.50238 -0.19749532 0)
(157.5194 -0.15927714 0)
(157.52728 -0.11753535 0)
(157.5251 -0.072377138 0)
(157.51199 -0.023988741 0)
(157.4871 0.027369903 0)
(157.44968 0.081361741 0)
(157.39905 0.13757266 0)
(157.33468 0.19551868 0)
(157.25612 0.2546548 0)
(157.16311 0.31438563 0)
(157.05554 0.3740782 0)
(156.93345 0.43307601 0)
(156.79708 0.49071459 0)
(156.64683 0.54633741 0)
(156.48328 0.59931163 0)
(156.30716 0.64904333 0)
(156.11935 0.69499193 0)
(155.92087 0.73668261 0)
(155.71285 0.77371564 0)
(155.4965 0.80577297 0)
(155.27313 0.83262242 0)
(155.04405 0.854119 0)
(154.81062 0.87020353 0)
(154.57418 0.88089856 0)
(154.33606 0.88630231 0)
(154.09754 0.88658075 0)
(153.85985 0.88195851 0)
(153.62415 0.87270906 0)
(153.39149 0.85914448 0)
(153.16287 0.8416054 0)
(152.93918 0.82045143 0)
(152.72122 0.79605218 0)
(152.50967 0.76877931 0)
(152.30515 0.73899961 0)
(152.10818 0.70706913 0)
(151.91917 0.67332842 0)
(151.73849 0.63809931 0)
(151.5664 0.60168282 0)
(151.40311 0.56435769 0)
(151.24878 0.52637983 0)
(151.10349 0.48798288 0)
(150.96728 0.44937962 0)
(150.84017 0.41076453 0)
(150.72212 0.37231726 0)
(150.61308 0.33420697 0)
(150.51296 0.29659696 0)
(150.42166 0.25965132 0)
(150.33906 0.22354975 0)
(150.26508 0.18850889 0)
(150.1997 0.15477836 0)
(150.1428 0.12259099 0)
(150.09423 0.092201033 0)
(150.05379 0.065064398 0)
(150.02307 0.040354829 0)
(150.00528 0.019202698 0)
(154.33605 -0.20450181 0)
(154.35171 -0.20113708 0)
(154.36247 -0.19864767 0)
(154.37267 -0.19693107 0)
(154.38228 -0.19594615 0)
(154.39156 -0.19571378 0)
(154.40077 -0.19628472 0)
(154.41015 -0.19771788 0)
(154.41992 -0.20006817 0)
(154.43033 -0.20338036 0)
(154.44158 -0.20768637 0)
(154.4539 -0.213004 0)
(154.46751 -0.21933661 0)
(154.48262 -0.2266728 0)
(154.49944 -0.2349868 0)
(154.51816 -0.24423841 0)
(154.53895 -0.25437376 0)
(154.562 -0.26532553 0)
(154.58746 -0.27701414 0)
(154.61545 -0.28934832 0)
(154.64609 -0.30222673 0)
(154.67948 -0.31553888 0)
(154.71566 -0.32916725 0)
(154.75469 -0.34298849 0)
(154.79658 -0.35687593 0)
(154.84132 -0.37070103 0)
(154.88885 -0.38433613 0)
(154.93913 -0.39765609 0)
(154.99205 -0.41054105 0)
(155.0475 -0.42287816 0)
(155.10535 -0.43456407 0)
(155.16543 -0.44550663 0)
(155.22757 -0.45562688 0)
(155.2916 -0.46486055 0)
(155.35729 -0.47315906 0)
(155.42447 -0.48049079 0)
(155.49291 -0.4868411 0)
(155.56241 -0.49221265 0)
(155.63277 -0.49662462 0)
(155.70379 -0.50011186 0)
(155.7753 -0.50272308 0)
(155.84714 -0.5045189 0)
(155.91915 -0.50556899 0)
(155.9912 -0.50594895 0)
(156.0632 -0.50573665 0)
(156.13505 -0.50500819 0)
(156.2067 -0.50383356 0)
(156.27809 -0.50227212 0)
(156.3492 -0.50036803 0)
(156.42001 -0.49814576 0)
(156.49051 -0.49560582 0)
(156.56069 -0.4927209 0)
(156.63055 -0.48943261 0)
(156.70004 -0.48564886 0)
(156.76913 -0.48124231 0)
(156.83773 -0.47604968 0)
(156.90572 -0.4698724 0)
(156.97294 -0.46247847 0)
(157.03916 -0.45360567 0)
(157.10408 -0.44296626 0)
(157.16736 -0.430253 0)
(157.22854 -0.41514652 0)
(157.28712 -0.39732399 0)
(157.34249 -0.37646879 0)
(157.39398 -0.35228109 0)
(157.44083 -0.32448898 0)
(157.48222 -0.29285995 0)
(157.51728 -0.25721195 0)
(157.54507 -0.21742552 0)
(157.56464 -0.17344978 0)
(157.575 -0.12531386 0)
(157.5752 -0.073137389 0)
(157.5643 -0.01713078 0)
(157.5414 0.042402962 0)
(157.50568 0.10506533 0)
(157.45643 0.17037018 0)
(157.39305 0.23774972 0)
(157.31508 0.30656322 0)
(157.22221 0.37610961 0)
(157.1143 0.44564263 0)
(156.99139 0.51438771 0)
(156.85373 0.58156058 0)
(156.70171 0.64638636 0)
(156.53595 0.70811852 0)
(156.35722 0.76605728 0)
(156.16643 0.81956643 0)
(155.96466 0.86808793 0)
(155.75309 0.91115321 0)
(155.53302 0.94839126 0)
(155.30578 0.97953342 0)
(155.07277 1.0044147 0)
(154.83541 1.022972 0)
(154.59509 1.0352386 0)
(154.3532 1.0413374 0)
(154.11107 1.0414706 0)
(153.86996 1.0359092 0)
(153.63105 1.0249806 0)
(153.39544 1.009057 0)
(153.16414 0.98854291 0)
(152.93803 0.96386401 0)
(152.71792 0.93545641 0)
(152.50451 0.90375737 0)
(152.29839 0.86919716 0)
(152.10006 0.83219232 0)
(151.90995 0.79314014 0)
(151.72838 0.7524149 0)
(151.55562 0.71036506 0)
(151.39184 0.66731171 0)
(151.23718 0.62354786 0)
(151.09172 0.57933896 0)
(150.95548 0.53492418 0)
(150.82845 0.49051894 0)
(150.7106 0.44631809 0)
(150.60185 0.40249998 0)
(150.50212 0.35923098 0)
(150.41131 0.31667253 0)
(150.32933 0.27499388 0)
(150.25609 0.23438507 0)
(150.19159 0.19504888 0)
(150.13574 0.15717968 0)
(150.08848 0.12102363 0)
(150.04978 0.088051644 0)
(150.02106 0.056674069 0)
(150.00477 0.027714183 0)
(154.35954 -0.21155079 0)
(154.37443 -0.20750983 0)
(154.38463 -0.20439453 0)
(154.3943 -0.20217715 0)
(154.40337 -0.20084853 0)
(154.41209 -0.20043652 0)
(154.4207 -0.20098996 0)
(154.42943 -0.2025643 0)
(154.43853 -0.20521178 0)
(154.44823 -0.20897536 0)
(154.45876 -0.21388549 0)
(154.47035 -0.2199581 0)
(154.48323 -0.22719378 0)
(154.49762 -0.23557708 0)
(154.51373 -0.24507666 0)
(154.53178 -0.25564507 0)
(154.55195 -0.26721947 0)
(154.57443 -0.27972186 0)
(154.59937 -0.29306037 0)
(154.62692 -0.30712987 0)
(154.65719 -0.32181382 0)
(154.69029 -0.33698531 0)
(154.72628 -0.35250948 0)
(154.76521 -0.36824486 0)
(154.80708 -0.38404626 0)
(154.8519 -0.39976646 0)
(154.89961 -0.41525929 0)
(154.95015 -0.43038156 0)
(155.00343 -0.44499622 0)
(155.05932 -0.4589743 0)
(155.11767 -0.47219789 0)
(155.17833 -0.48456194 0)
(155.24111 -0.49597668 0)
(155.30581 -0.50636933 0)
(155.37222 -0.51568527 0)
(155.44013 -0.52388949 0)
(155.50931 -0.53096669 0)
(155.57955 -0.53692166 0)
(155.65064 -0.5417784 0)
(155.72236 -0.54557919 0)
(155.79454 -0.54838253 0)
(155.86699 -0.55026088 0)
(155.93957 -0.55129743 0)
(156.01214 -0.5515825 0)
(156.0846 -0.55120929 0)
(156.15686 -0.55026921 0)
(156.22887 -0.54884686 0)
(156.30058 -0.54701476 0)
(156.37199 -0.54482802 0)
(156.44309 -0.54231907 0)
(156.51388 -0.53949262 0)
(156.58439 -0.53632114 0)
(156.65461 -0.5327409 0)
(156.72455 -0.52864893 0)
(156.79418 -0.52390097 0)
(156.86345 -0.51831061 0)
(156.93226 -0.5116499 0)
(157.00047 -0.50365131 0)
(157.06787 -0.49401145 0)
(157.13418 -0.4823963 0)
(157.19906 -0.46844816 0)
(157.26208 -0.45179414 0)
(157.32271 -0.43205619 0)
(157.38035 -0.40886227 0)
(157.43431 -0.38185879 0)
(157.48381 -0.35072351 0)
(157.528 -0.31517907 0)
(157.56595 -0.27500595 0)
(157.59669 -0.23005685 0)
(157.6192 -0.18026374 0)
(157.63246 -0.12565194 0)
(157.63543 -0.066351681 0)
(157.6271 -0.0025983021 0)
(157.60653 0.065265792 0)
(157.57281 0.13678926 0)
(157.52519 0.21141393 0)
(157.46299 0.2884844 0)
(157.38571 0.36725921 0)
(157.293 0.44692534 0)
(157.18471 0.52661602 0)
(157.06086 0.60543051 0)
(156.92169 0.68245609 0)
(156.76763 0.75679059 0)
(156.5993 0.82756503 0)
(156.41751 0.89396532 0)
(156.22324 0.95525209 0)
(156.01763 1.0107778 0)
(155.80193 1.0600001 0)
(155.5775 1.1024915 0)
(155.34575 1.1379446 0)
(155.10817 1.1661738 0)
(154.86623 1.1871124 0)
(154.62141 1.2008063 0)
(154.37515 1.2074055 0)
(154.12882 1.2071516 0)
(153.88375 1.2003654 0)
(153.64114 1.1874326 0)
(153.40212 1.168789 0)
(153.16772 1.1449071 0)
(152.93883 1.1162819 0)
(152.71627 1.0834193 0)
(152.50073 1.0468251 0)
(152.29279 1.0069953 0)
(152.09294 0.9644092 0)
(151.90159 0.91952256 0)
(151.71904 0.87276381 0)
(151.54554 0.82453078 0)
(151.38124 0.77518908 0)
(151.22627 0.72507159 0)
(151.08066 0.67447899 0)
(150.94444 0.62368128 0)
(150.81757 0.5729203 0)
(150.7 0.52241299 0)
(150.59164 0.47235507 0)
(150.49242 0.42292538 0)
(150.40221 0.37429235 0)
(150.32093 0.32662316 0)
(150.24852 0.28008965 0)
(150.18494 0.23485962 0)
(150.13013 0.19109144 0)
(150.0841 0.14898463 0)
(150.04688 0.10999565 0)
(150.01967 0.071917768 0)
(150.00444 0.035532846 0)
(154.38822 -0.22033053 0)
(154.40234 -0.2156841 0)
(154.41192 -0.21202588 0)
(154.42096 -0.20937803 0)
(154.4294 -0.2077603 0)
(154.43745 -0.20721271 0)
(154.44535 -0.2077879 0)
(154.45334 -0.20954196 0)
(154.46166 -0.21252683 0)
(154.47055 -0.21678499 0)
(154.48026 -0.22234601 0)
(154.49101 -0.22922421 0)
(154.50306 -0.23741755 0)
(154.51664 -0.24690657 0)
(154.53197 -0.25765436 0)
(154.54926 -0.26960621 0)
(154.56873 -0.28269031 0)
(154.59056 -0.29681794 0)
(154.61493 -0.31188485 0)
(154.64198 -0.32777195 0)
(154.67185 -0.34434735 0)
(154.70463 -0.36146752 0)