/*--------------------------------*- C++ -*----------------------------------*\
| =========                 |                                                 |
| \\      /  F ield         | foam-extend: Open Source CFD                    |
|  \\    /   O peration     | Version:     4.1                                |
|   \\  /    A nd           | Web:         http://www.foam-extend.org         |
|    \\/     M anipulation  |                                                 |
\*---------------------------------------------------------------------------*/
FoamFile
{
    version     2.0;
    format      ascii;
    class       volScalarField;
    location    "0.3";
    object      p;
}
// * * * * * * * * * * * * * * * * * * * * * * * * * * * * * * * * * * * * * //

dimensions      [0 2 -2 0 0 0 0];

internalField   nonuniform List<scalar> 
16796
(
-0.00019903874
-8.2680292e-06
-0.00021129632
-0.00015285969
-0.00027050807
-0.00027281653
-0.00035462547
-0.00038644574
-0.0004551222
-0.00050323513
-0.00056959491
-0.00062886033
-0.00069849291
-0.00076743882
-0.00084368661
-0.00092255826
-0.001007855
-0.0010977589
-0.0011942374
-0.001296772
-0.0014065456
-0.0015236478
-0.0016489452
-0.0017828303
-0.0019260624
-0.0020792024
-0.0022429943
-0.0024181082
-0.0026053095
-0.0028053515
-0.0030190271
-0.0032471601
-0.003490569
-0.0037501163
-0.0040266458
-0.0043210278
-0.0046341045
-0.004966721
-0.0053196783
-0.005693746
-0.006089633
-0.0065079624
-0.0069492779
-0.0074139779
-0.0079023315
-0.0084144118
-0.0089500905
-0.0095089804
-0.010090409
-0.010693367
-0.011316471
-0.011957906
-0.012615388
-0.013286104
-0.013966666
-0.01465307
-0.015340639
-0.016023997
-0.016697026
-0.017352853
-0.017983825
-0.01858153
-0.019136795
-0.019639744
-0.020079838
-0.020445979
-0.020726591
-0.020909775
-0.020983449
-0.020935549
-0.020754209
-0.020428017
-0.01994622
-0.019299004
-0.018477714
-0.017475124
-0.016285632
-0.014905503
-0.013332985
-0.011568502
-0.0096147161
-0.0074765052
-0.0051610121
-0.0026775064
-3.7302644e-05
0.0027464828
0.0056590878
0.0086844557
0.011805416
0.015004113
0.018262175
0.021561161
0.024882702
0.028208907
0.031522457
0.034806943
0.0380469
0.041228056
0.044337312
0.047362905
0.050294354
0.053122547
0.055839677
0.058439272
0.060916142
0.063266337
0.065487135
0.067576836
0.069534845
0.071361141
0.073056683
0.074622214
0.07605973
0.077369633
0.078555085
0.079614704
0.080554375
0.081367946
0.082068649
0.082637887
0.083108563
0.083429409
0.083685648
0.083741858
-0.00019855422
-8.2366414e-06
-0.00021077387
-0.00015247144
-0.0002698341
-0.00027213224
-0.0003537418
-0.00038548244
-0.00045399208
-0.0005019881
-0.00056818848
-0.00062731266
-0.00069678078
-0.00076556565
-0.00084163712
-0.00092032872
-0.0010054331
-0.0010951371
-0.0011914042
-0.0012937179
-0.001403259
-0.0015201181
-0.0016451606
-0.0017787795
-0.0019217337
-0.0020745848
-0.0022380766
-0.0024128801
-0.0025997615
-0.0027994752
-0.0030128155
-0.0032406082
-0.003483674
-0.0037428784
-0.0040190685
-0.0043131187
-0.0046258761
-0.0049581912
-0.0053108719
-0.005684695
-0.006080378
-0.0064985537
-0.0069397765
-0.007404457
-0.0078928777
-0.0084051261
-0.0089410897
-0.0095003985
-0.010082398
-0.010686098
-0.011310134
-0.011952712
-0.012611567
-0.013283907
-0.013966362
-0.014654942
-0.015344989
-0.016031135
-0.016707271
-0.017366524
-0.018001238
-0.01860299
-0.019162586
-0.019670126
-0.020115031
-0.020486155
-0.020771867
-0.0209602
-0.021038994
-0.020996101
-0.020819563
-0.02049787
-0.020020169
-0.019376546
-0.018558248
-0.017557959
-0.016369995
-0.01499056
-0.013417844
-0.011652267
-0.0096965331
-0.0075555289
-0.0052364284
-0.0027485471
-0.00010326475
0.0026862247
0.0056050649
0.0086370994
0.011765046
0.01497094
0.018236295
0.021542567
0.02487128
0.028204456
0.031524693
0.034815515
0.038061401
0.041248042
0.044362308
0.047392429
0.050327919
0.053159679
0.055879923
0.058482208
0.060961376
0.063313515
0.065535934
0.067626967
0.069586043
0.071413163
0.073109307
0.074675237
0.076112973
0.077422945
0.078608345
0.079667823
0.080607295
0.081420638
0.082121102
0.082690121
0.083160597
0.083481302
0.08373742
0.083793607
-0.0001975759
-8.1895018e-06
-0.00020972789
-0.00015170839
-0.00026849199
-0.00027077734
-0.00035198578
-0.00038357201
-0.00045174847
-0.00049951458
-0.00056539833
-0.00062424408
-0.00069338682
-0.00076185438
-0.00083757816
-0.00091591563
-0.0010006418
-0.0010899539
-0.0011858069
-0.0012876888
-0.0013967764
-0.001513162
-0.0016377094
-0.0017708127
-0.0019132303
-0.0020655248
-0.002228441
-0.0024026513
-0.002588924
-0.002788016
-0.0030007253
-0.0032278815
-0.0034703106
-0.0037288843
-0.004004457
-0.0042979118
-0.0046101059
-0.0049419017
-0.0052941202
-0.005667554
-0.0060629378
-0.0064809238
-0.0069220885
-0.0073868664
-0.0078755666
-0.0083883053
-0.008925001
-0.009485317
-0.010068633
-0.010673997
-0.011300081
-0.011945129
-0.012606913
-0.013282677
-0.013969085
-0.01466218
-0.015357326
-0.016049175
-0.016731627
-0.017397811
-0.018040058
-0.018649921
-0.019218164
-0.019734831
-0.020189265
-0.020570229
-0.020865974
-0.021064406
-0.021153213
-0.021120084
-0.020952882
-0.020639912
-0.02017013
-0.019533431
-0.018720876
-0.017724979
-0.016539901
-0.015161717
-0.013588511
-0.011820652
-0.0098608489
-0.007714004
-0.0053873519
-0.0028903069
-0.0002343894
0.0025670383
0.0054989164
0.0085448739
0.01168739
0.014908266
0.018188775
0.021510151
0.0248537
0.028201259
0.031535253
0.034839075
0.038097086
0.041294901
0.044419332
0.047458586
0.050402172
0.05324101
0.055967348
0.058574794
0.06105825
0.063413874
0.065639047
0.067732178
0.069692772
0.071520906
0.073217633
0.074783787
0.076221457
0.077531136
0.078716077
0.079774989
0.08071383
0.081526534
0.082226371
0.082794838
0.083264817
0.083585172
0.083840994
0.083897117
-0.00019611372
-8.1155815e-06
-0.00020816127
-0.00015056232
-0.00026648005
-0.00026874445
-0.00034935241
-0.00038070614
-0.00044838319
-0.00049580377
-0.00056121237
-0.00061963971
-0.00068829371
-0.00075628421
-0.00083148523
-0.0009092899
-0.00099344695
-0.0010821687
-0.0011773979
-0.0012786287
-0.001387032
-0.0015027028
-0.0016265022
-0.0017588257
-0.001900431
-0.0020518821
-0.0022139249
-0.0023872342
-0.0025725807
-0.0027707255
-0.0029824711
-0.0032086534
-0.0034501058
-0.003707709
-0.0039823282
-0.0042748592
-0.0045861742
-0.0049171528
-0.0052686363
-0.0056414399
-0.0060363243
-0.006453971
-0.0068949889
-0.0073598489
-0.0078488997
-0.008362301
-0.0089000182
-0.0094617646
-0.010046973
-0.010654747
-0.011283815
-0.01193248
-0.012598571
-0.013279388
-0.013971648
-0.01467144
-0.015374168
-0.016074514
-0.016766396
-0.017442945
-0.018096476
-0.018718507
-0.019299741
-0.019830137
-0.020298925
-0.020694729
-0.021005627
-0.021219327
-0.021323291
-0.021304961
-0.021151926
-0.020852212
-0.020394481
-0.019768339
-0.018964564
-0.017975411
-0.016794801
-0.015418621
-0.013844799
-0.012073627
-0.01010783
-0.0079523332
-0.0056144631
-0.0031037807
-0.00043201573
0.0023872195
0.0053385607
0.0084053169
0.011569608
0.01481289
0.018116067
0.021460045
0.024825799
0.028194891
0.031549486
0.034872775
0.038148946
0.0413635
0.044503164
0.04755611
0.05051184
0.053361308
0.056096816
0.058712052
0.061202009
0.06356295
0.065792365
0.067888772
0.069851786
0.071681589
0.073379336
0.074945961
0.076383649
0.077692992
0.078877326
0.079935453
0.080873399
0.081685184
0.082384111
0.08295177
0.083421022
0.083740864
0.083996253
0.084052285
-0.0001941682
-8.0216037e-06
-0.00020607856
-0.00014904293
-0.0002638072
-0.00026604621
-0.00034585501
-0.00037690117
-0.00044391435
-0.00049087678
-0.00055565433
-0.00061352666
-0.00068153197
-0.00074888973
-0.00082339729
-0.0009004955
-0.00098389797
-0.0010718373
-0.0011662399
-0.0012666082
-0.0013741054
-0.00148883
-0.0016116396
-0.0017429317
-0.001883463
-0.0020337998
-0.0021946891
-0.0023668091
-0.0025509342
-0.0027478307
-0.0029583076
-0.003183209
-0.0034233785
-0.0036797088
-0.0039530796
-0.0042444038
-0.0045545737
-0.0048844922
-0.0052350272
-0.0056070246
-0.0060012796
-0.0064185129
-0.0068593768
-0.0073243904
-0.0078139555
-0.0083282895
-0.0088674203
-0.009431128
-0.010018916
-0.010629962
-0.01126307
-0.01191662
-0.012588518
-0.013276139
-0.013976269
-0.01468506
-0.01539797
-0.016109719
-0.016814251
-0.017504699
-0.018173359
-0.018811698
-0.019410342
-0.019959137
-0.020447163
-0.020862854
-0.021194061
-0.021428229
-0.021552515
-0.021554029
-0.021419998
-0.02113807
-0.020696511
-0.020084541
-0.019292555
-0.018312454
-0.017137841
-0.015764338
-0.01418966
-0.01241398
-0.01044002
-0.0082727387
-0.0059195868
-0.0033903287
-0.00069698407
0.0021464896
0.0051243074
0.0082193382
0.011413208
0.014686897
0.018020809
0.021395399
0.024791195
0.028189383
0.031571775
0.034921296
0.038221899
0.041458934
0.044619013
0.047690267
0.05066219
0.053525781
0.056273413
0.058898885
0.061397311
0.0637651
0.065999887
0.068100349
0.070066255
0.071897942
0.073596713
0.075163653
0.076601079
0.077909721
0.079093029
0.080149927
0.081086526
0.081896959
0.082594569
0.083161071
0.083629286
0.083948399
0.084203175
0.084259072
-0.00019174554
-7.9028548e-06
-0.00020348274
-0.00014714756
-0.0002604747
-0.00026268112
-0.0003414938
-0.00037215583
-0.00043834103
-0.0004847315
-0.00054872156
-0.00060590083
-0.00067309616
-0.00073966345
-0.00081330457
-0.0008895197
-0.00097197867
-0.0010589393
-0.0011523075
-0.0012515959
-0.0013579582
-0.0014714969
-0.0015930653
-0.001723063
-0.0018622458
-0.0020111822
-0.0021706208
-0.0023412434
-0.002523829
-0.0027191502
-0.0029280239
-0.0031513041
-0.0033898467
-0.0036445592
-0.0039163391
-0.0042061205
-0.0045148202
-0.00484337
-0.0051926707
-0.0055636062
-0.0059570148
-0.0063736656
-0.0068142652
-0.0072793931
-0.0077695172
-0.0082849275
-0.0088257303
-0.0093917896
-0.0099826982
-0.010597726
-0.011235775
-0.011895322
-0.012574371
-0.013270392
-0.013980261
-0.01470021
-0.015425768
-0.016151708
-0.016872005
-0.017579801
-0.018267368
-0.018926118
-0.019546579
-0.020118459
-0.020630649
-0.021071353
-0.021428134
-0.021688107
-0.021838044
-0.02186464
-0.021754659
-0.021495274
-0.02107425
-0.020480314
-0.019703374
-0.018734883
-0.017568035
-0.016198116
-0.014622574
-0.012841427
-0.010857385
-0.0086754467
-0.0063032162
-0.0037507109
-0.0010303156
0.0018435784
0.0048546524
0.0079852194
0.011216276
0.014528201
0.01790076
0.021313838
0.024747392
0.028182136
0.031599434
0.034981876
0.038313118
0.041578325
0.044763966
0.047858123
0.050850283
0.053731511
0.056494271
0.059132504
0.061641484
0.064017801
0.06625928
0.068364794
0.070334302
0.072168336
0.073868383
0.075435707
0.076872796
0.078180546
0.079362554
0.080417895
0.081352786
0.082161506
0.082857449
0.083422484
0.083889387
0.084207578
0.084461577
0.084517308
-0.00018885068
-7.7626313e-06
-0.00020038139
-0.00014488474
-0.00025649373
-0.00025866218
-0.00033628412
-0.00036648769
-0.00043168336
-0.00047739068
-0.00054043969
-0.00059679097
-0.0006630184
-0.00072864118
-0.00080124689
-0.00087640671
-0.00095773808
-0.001043529
-0.0011356607
-0.0012336584
-0.0013386639
-0.0014507848
-0.001570869
-0.001699319
-0.0018368889
-0.0019841501
-0.002141853
-0.002310684
-0.0024914271
-0.0026848625
-0.0028918165
-0.0031131549
-0.0033497483
-0.0036025217
-0.0038723939
-0.004160324
-0.0044672585
-0.0047941632
-0.0051419787
-0.0055116343
-0.0059040196
-0.0063199621
-0.0067602332
-0.0072254848
-0.0077162647
-0.00823295
-0.0087757413
-0.0093446043
-0.0099392392
-0.010559029
-0.011202992
-0.011869725
-0.012557351
-0.013263455
-0.013985025
-0.014718393
-0.015459173
-0.016202208
-0.016941513
-0.017670245
-0.018380651
-0.01906408
-0.019710945
-0.020310792
-0.020852288
-0.021323357
-0.021711217
-0.022002583
-0.022183763
-0.022240942
-0.022160322
-0.021928491
-0.021532597
-0.020960762
-0.02020229
-0.01924808
-0.018090817
-0.016725367
-0.015148844
-0.01336106
-0.011364701
-0.0091648212
-0.006769215
-0.0041882167
-0.0014346682
0.0014764998
0.0045283016
0.0077023634
0.010978898
0.014337546
0.017757279
0.021217288
0.024696824
0.028176029
0.031635719
0.03505808
0.038426412
0.041725657
0.044942118
0.048063827
0.051080265
0.053982583
0.056763363
0.059416725
0.061938137
0.064324419
0.066573627
0.06868488
0.070658377
0.072494892
0.07419614
0.075763613
0.077200007
0.078506424
0.079686635
0.080739901
0.081672567
0.082479082
0.083172896
0.08373607
0.084201317
0.084518345
0.084771367
0.084826885
-0.00018549003
-7.5987136e-06
-0.00019677931
-0.00014225542
-0.00025186905
-0.00025399265
-0.00033023129
-0.00035990158
-0.00042394719
-0.00046885994
-0.00053081469
-0.00058620266
-0.00065130394
-0.00071582732
-0.00078722759
-0.00086115829
-0.00094117594
-0.0010256034
-0.0011162934
-0.0012127854
-0.0013162072
-0.0014266724
-0.0015450224
-0.0016716626
-0.0018073453
-0.0019526449
-0.0021083135
-0.0022750425
-0.0024536217
-0.0026448396
-0.0028495331
-0.0030685812
-0.0033028713
-0.0035533483
-0.0038209554
-0.0041066803
-0.0044115034
-0.0047364299
-0.0050824462
-0.0054505338
-0.005841642
-0.0062566658
-0.0066964521
-0.0071617374
-0.007653162
-0.0081712053
-0.0087161785
-0.0092881663
-0.0098869956
-0.010512183
-0.011162884
-0.011837839
-0.01253531
-0.013253024
-0.013988099
-0.014736992
-0.015495419
-0.016258309
-0.017019732
-0.017772867
-0.018509937
-0.019222224
-0.019900012
-0.020532661
-0.021108579
-0.021615368
-0.022039841
-0.022368247
-0.022586343
-0.022679719
-0.022633908
-0.022434806
-0.022068827
-0.021523372
-0.020787025
-0.01985002
-0.018704433
-0.01734462
-0.015767296
-0.013972018
-0.011961428
-0.0097406371
-0.0073176571
-0.0047031907
-0.0019106226
0.0010444786
0.0041443272
0.0073697316
0.010699961
0.014113775
0.01758919
0.021104571
0.024638322
0.028169906
0.031679485
0.035148773
0.038560644
0.04189979
0.04515232
0.048306214
0.051350957
0.054277808
0.057079499
0.059750366
0.062286115
0.064683841
0.066941878
0.069059637
0.0710376
0.072876825
0.074579297
0.076146775
0.077582197
0.078886908
0.080064883
0.081115601
0.082045554
0.082849393
0.083540635
0.084101565
0.084564818
0.084880448
0.085132298
0.085187564
-0.00018167117
-7.4131457e-06
-0.00019268612
-0.00013926826
-0.00024661382
-0.00024868672
-0.00032335288
-0.00035241705
-0.00041515515
-0.0004591645
-0.00051987493
-0.0005741673
-0.00063798766
-0.00070126027
-0.00077128891
-0.00084382076
-0.00092234294
-0.001005218
-0.0010942661
-0.0011890426
-0.0012906597
-0.0013992374
-0.0015156098
-0.0016401853
-0.001773714
-0.0019167735
-0.0020701177
-0.0022344437
-0.0024105472
-0.0025992262
-0.0028013292
-0.0030177503
-0.0032493951
-0.0034972313
-0.0037622293
-0.0040454091
-0.0043477894
-0.0046704199
-0.0050143388
-0.0053805869
-0.0057701814
-0.0061840942
-0.0066232583
-0.0070885066
-0.0075805859
-0.0081000929
-0.0086474658
-0.0092229269
-0.0098264494
-0.010457704
-0.011116009
-0.011800268
-0.01250891
-0.013239826
-0.013990292
-0.014756911
-0.015535526
-0.016321171
-0.017107985
-0.017889183
-0.018656968
-0.019402554
-0.020116082
-0.02078671
-0.021402548
-0.021950836
-0.022417916
-0.022789502
-0.023050709
-0.023186432
-0.023181417
-0.023020747
-0.022689966
-0.02217562
-0.021465431
-0.02054884
-0.019417193
-0.018064229
-0.016486187
-0.014682298
-0.012655152
-0.010409934
-0.0079549181
-0.0053012506
-0.0024629707
0.00054359381
0.0036996956
0.0069851757
0.010378174
0.013856416
0.017396778
0.020976662
0.024573469
0.02816588
0.031733287
0.035256865
0.038719001
0.042104108
0.045398077
0.048588848
0.051665915
0.054620683
0.057446064
0.06013666
0.06268846
0.065098888
0.067366606
0.069491373
0.071474003
0.073315893
0.075019343
0.076586424
0.07802036
0.079322775
0.080497883
0.081545409
0.082472017
0.083272589
0.083960714
0.084518936
0.084979793
0.085293745
0.085544192
0.085599153
-0.00017740202
-7.204843e-06
-0.00018810897
-0.00013592695
-0.0002407363
-0.00024275176
-0.000315659
-0.00034404443
-0.00040531938
-0.00044831705
-0.00050763427
-0.00056069929
-0.00062308457
-0.00068495523
-0.00075344611
-0.00082440893
-0.00090125318
-0.00098238562
-0.0010695896
-0.0011624385
-0.0012620267
-0.001368481
-0.0014826271
-0.0016048766
-0.0017359768
-0.0018765086
-0.0020272275
-0.0021888361
-0.0023621369
-0.0025479376
-0.0027470996
-0.0029605325
-0.0031891626
-0.0034339819
-0.0036959907
-0.0039762447
-0.0042758043
-0.004595769
-0.0049372339
-0.0053013061
-0.005689078
-0.0061016074
-0.0065399239
-0.0070049683
-0.0074976072
-0.0080185693
-0.0085684365
-0.0091475867
-0.0097561596
-0.010394003
-0.011060617
-0.011755096
-0.012476062
-0.013221595
-0.013989154
-0.014775514
-0.015576669
-0.016387781
-0.017203077
-0.018015819
-0.0188182
-0.019601366
-0.020355306
-0.021068956
-0.0217301
-0.022325571
-0.022841184
-0.023262046
-0.023572545
-0.023756782
-0.023798601
-0.023682157
-0.023391984
-0.022913647
-0.022233866
-0.02134116
-0.020226019
-0.018881462
-0.017303162
-0.01548996
-0.013444362
-0.011171622
-0.0086802987
-0.0059820353
-0.0030916274
-2.6272508e-05
0.0031941555
0.0065483807
0.010013215
0.013565184
0.01717983
0.020833441
0.024502243
0.028164023
0.031797278
0.035382578
0.038901744
0.042338891
0.045679666
0.048911979
0.052025353
0.055011371
0.057863166
0.060575657
0.063145167
0.065569507
0.06784772
0.069979967
0.071967445
0.073811938
0.075516108
0.077082382
0.078514306
0.079813825
0.080985419
0.082029096
0.082951711
0.083748406
0.084432851
0.084987888
0.085445934
0.08575792
0.086006727
0.086061333
-0.00017269208
-6.9753704e-06
-0.00018305926
-0.00013224086
-0.00023425169
-0.00023620362
-0.0003071697
-0.00033480571
-0.00039446544
-0.00043634584
-0.00049412445
-0.00054583352
-0.00060663318
-0.00066695428
-0.00073374513
-0.00080297274
-0.00087796078
-0.00095716466
-0.0010423271
-0.001133041
-0.001230381
-0.0013344811
-0.0014461577
-0.0015658254
-0.0016942283
-0.0018319503
-0.0019797486
-0.0021383316
-0.0023085084
-0.0024910974
-0.0026869731
-0.0028970625
-0.0031223135
-0.0033637445
-0.0036223884
-0.0038993391
-0.0041957034
-0.0045126344
-0.00485129
-0.00521285
-0.0055984899
-0.0060093622
-0.0064466033
-0.0069112741
-0.0074043747
-0.0079267808
-0.0084792357
-0.0090622923
-0.0096762776
-0.010321239
-0.010996886
-0.01170253
-0.012437012
-0.013198633
-0.013985065
-0.014793285
-0.015619469
-0.01645893
-0.01730601
-0.018154039
-0.018995212
-0.019820613
-0.020620076
-0.021382302
-0.022094717
-0.022743706
-0.023314492
-0.023791506
-0.024158301
-0.02439808
-0.024493646
-0.024428082
-0.024184752
-0.023748074
-0.023103594
-0.022238749
-0.021143016
-0.019808557
-0.018230377
-0.016406837
-0.014340341
-0.012036236
-0.0095034192
-0.0067541234
-0.0038040423
-0.00067138723
0.0026226358
0.0060554585
0.0096023297
0.0132384
0.016937647
0.020675094
0.024425605
0.028165958
0.031873627
0.035528514
0.039111807
0.042607304
0.046000392
0.049278978
0.052432629
0.055453162
0.058333972
0.061070362
0.063659044
0.066098282
0.06838756
0.070527502
0.07251975
0.074366526
0.076070906
0.077635723
0.079064889
0.080360707
0.081527958
0.082566967
0.083484799
0.084276892
0.084956995
0.085508286
0.085963041
0.086272729
0.086519621
0.086573812
-0.00016755107
-6.724272e-06
-0.00017754653
-0.00012821598
-0.00022717161
-0.00022905338
-0.00029789963
-0.00032471633
-0.00038261133
-0.00042327011
-0.0004793667
-0.00052959253
-0.00058865757
-0.0006472826
-0.00071221218
-0.00077953904
-0.00085249298
-0.00092958233
-0.0010125053
-0.0011008757
-0.0011957464
-0.0012972591
-0.0014062192
-0.001523045
-0.0016484757
-0.0017830989
-0.0019276724
-0.0020829107
-0.0022496294
-0.0024286577
-0.0026208839
-0.0028272528
-0.0030487353
-0.0032863777
-0.0035412473
-0.0038144794
-0.0041072297
-0.0044207094
-0.0047561441
-0.005114792
-0.0054979188
-0.0059067804
-0.0063426294
-0.0068066583
-0.0073000134
-0.0078237328
-0.0083787375
-0.0089657743
-0.0095853789
-0.010237821
-0.010923045
-0.011640606
-0.012389593
-0.013168558
-0.013975416
-0.014807379
-0.015660831
-0.016531274
-0.017413182
-0.018299981
-0.019183878
-0.020055911
-0.020905752
-0.021721859
-0.022491269
-0.023199886
-0.023832281
-0.024372136
-0.024802078
-0.025104308
-0.025260453
-0.025252398
-0.025062173
-0.024672904
-0.024068787
-0.023236027
-0.022162933
-0.020840674
-0.019263476
-0.017429128
-0.01533989
-0.013001176
-0.010422248
-0.0076159757
-0.0045990774
-0.0013909026
0.0019857977
0.0055069907
0.009146103
0.012876724
0.016671009
0.020502552
0.024344638
0.02817292
0.031963693
0.03569613
0.039350701
0.042910881
0.046361773
0.04969131
0.052889131
0.055947341
0.058859652
0.061621815
0.064231
0.06668599
0.068986776
0.07113451
0.073131333
0.074979968
0.076683953
0.078246575
0.079672151
0.080963389
0.0821254
0.083158858
0.084071062
0.084857774
0.085532828
0.08607978
0.086530735
0.086837772
0.087082462
0.087136176
-0.00016199036
-6.4529105e-06
-0.00017158397
-0.00012386267
-0.0002195134
-0.00022131885
-0.00028787151
-0.00031380102
-0.00036978591
-0.0004091216
-0.00046339661
-0.00051201531
-0.00056920061
-0.00062598682
-0.00068889796
-0.00075416259
-0.00082490881
-0.00089970197
-0.00098019183
-0.0010660149
-0.0011581997
-0.0012568963
-0.0013628979
-0.0014766258
-0.0015988143
-0.0017300536
-0.0018711023
-0.0020226803
-0.00218561
-0.0023607312
-0.0025489465
-0.0027512191
-0.0029685437
-0.0032019961
-0.0034526796
-0.0037217733
-0.0040104851
-0.004320088
-0.0046518801
-0.005007204
-0.0053874225
-0.005793903
-0.0062280246
-0.0066911231
-0.0071845042
-0.0077093842
-0.0082668798
-0.008857952
-0.0094833677
-0.010143645
-0.010838991
-0.011569234
-0.012333746
-0.013131365
-0.013960285
-0.014817992
-0.015701118
-0.016605385
-0.01752544
-0.018454834
-0.019385814
-0.020309385
-0.021215067
-0.022091069
-0.022924018
-0.023699301
-0.02440077
-0.025011288
-0.025512437
-0.025885298
-0.026110161
-0.026167545
-0.026037943
-0.02570299
-0.025145313
-0.024349679
-0.023303021
-0.021995335
-0.020419931
-0.018573895
-0.016459314
-0.014081704
-0.011450759
-0.0085800984
-0.005487656
-0.0021940915
0.0012760237
0.0048969854
0.0086400869
0.012477153
0.016378221
0.020315288
0.024259822
0.02818624
0.032069498
0.035887993
0.039621398
0.043252868
0.046767216
0.050152449
0.053398312
0.056497273
0.059443421
0.062233044
0.064863835
0.067335183
0.069647656
0.071803007
0.073803941
0.075653744
0.077356471
0.078915916
0.08033685
0.081622421
0.082778108
0.08380497
0.084710557
0.085490988
0.086160186
0.086702121
0.087148698
0.087452686
0.087694848
0.087748012
-0.00015602162
-6.1612325e-06
-0.0001651835
-0.00011918896
-0.00021129191
-0.00021301453
-0.00027710429
-0.00030207999
-0.00035601271
-0.00039392571
-0.00044624236
-0.00049313207
-0.00054829492
-0.00060310149
-0.000663839
-0.00072688154
-0.00079524784
-0.00086756421
-0.00094542813
-0.0010284999
-0.001117782
-0.0012134326
-0.0013162316
-0.0014266029
-0.0015452748
-0.0016728399
-0.0018100565
-0.0019576499
-0.0021164485
-0.0022873029
-0.0024711296
-0.0026689105
-0.002881665
-0.0031104986
-0.0033565526
-0.0036210512
-0.0039052573
-0.0042105087
-0.00453818
-0.0048897035
-0.005266545
-0.0056701913
-0.0061021568
-0.006563931
-0.0070569921
-0.007582749
-0.0081425311
-0.0087375329
-0.0093687745
-0.010037047
-0.010742847
-0.011486309
-0.012267117
-0.013084431
-0.013936763
-0.014821909
-0.015736786
-0.01667738
-0.017638542
-0.018613982
-0.019596012
-0.02057563
-0.021542206
-0.022483705
-0.023386319
-0.024234891
-0.025012493
-0.025701103
-0.026281151
-0.026732492
-0.027033922
-0.027164452
-0.027102843
-0.026829067
-0.026323965
-0.025570687
-0.024554586
-0.02326432
-0.021692132
-0.019834277
-0.017692618
-0.015272715
-0.012584715
-0.0096430241
-0.0064669577
-0.0030786204
0.00049531027
0.0042272616
0.0080860441
0.012041505
0.016061222
0.020115411
0.024173442
0.028208374
0.032193638
0.036106797
0.039926638
0.043636008
0.04721941
0.050664986
0.053962625
0.057105242
0.060087375
0.062905935
0.065559225
0.068047322
0.070371449
0.072534038
0.074538424
0.076388521
0.078088959
0.07964409
0.081059183
0.082337874
0.083486039
0.084505156
0.085403047
0.086176221
0.086838685
0.087374873
0.087816452
0.088116963
0.088356249
0.08840879
-0.00014965809
-5.8505126e-06
-0.00015836008
-0.00011420635
-0.00020252667
-0.00020416034
-0.0002656235
-0.00028958098
-0.00034132409
-0.00037771797
-0.00042794378
-0.00047298636
-0.00052598828
-0.00057867849
-0.00063709153
-0.00069775644
-0.00076357514
-0.00083323862
-0.00090828832
-0.00098840966
-0.0010745767
-0.001166956
-0.0012663125
-0.0013730726
-0.0014879574
-0.0016115613
-0.0017446417
-0.0018879285
-0.0020422556
-0.0022084839
-0.0023875439
-0.0025804361
-0.0027882045
-0.0030119856
-0.0032529591
-0.0035123963
-0.0037916171
-0.0040920272
-0.0044150816
-0.0047623067
-0.005135278
-0.0055356089
-0.0059649583
-0.0064249808
-0.0069173401
-0.0074436533
-0.0080054806
-0.0086042716
-0.0092413239
-0.0099177299
-0.010634306
-0.011391527
-0.012189429
-0.013027537
-0.013904723
-0.014819144
-0.01576805
-0.016747738
-0.017753314
-0.018778697
-0.019816297
-0.020857146
-0.02189048
-0.022904038
-0.023883557
-0.024813318
-0.025675544
-0.02645126
-0.027119613
-0.027659106
-0.02804684
-0.028260129
-0.02827574
-0.028071746
-0.027626904
-0.026922488
-0.025941987
-0.024672482
-0.023104947
-0.02123463
-0.019063106
-0.016596032
-0.013844098
-0.010822639
-0.0075526136
-0.0040577793
-0.00036730402
0.0034891294
0.0074774186
0.011565204
0.015717204
0.019901677
0.02408558
0.028240516
0.032338186
0.036355305
0.040269675
0.044063884
0.047722119
0.051232745
0.05458585
0.057774905
0.060794977
0.063643717
0.066320123
0.068825069
0.071160512
0.073329652
0.075336529
0.077185754
0.078882593
0.080432014
0.081839829
0.083110207
0.084249455
0.085259507
0.086148472
0.086913283
0.087568031
0.088097655
0.088533544
0.088830101
0.089066125
0.089117957
-0.00014291343
-5.5209881e-06
-0.00015112795
-0.00010892474
-0.00019323559
-0.00019477399
-0.00025345217
-0.00027632865
-0.00032574882
-0.00036052958
-0.00040853559
-0.00045161564
-0.00050232136
-0.00055276123
-0.00060870182
-0.00066683614
-0.00072994197
-0.00079677856
-0.00086882756
-0.00094580052
-0.001028641
-0.0011175238
-0.0012131976
-0.0013160903
-0.001426915
-0.0015462669
-0.0016749015
-0.0018135524
-0.0019630584
-0.0021242899
-0.0022981905
-0.0024857791
-0.0026881242
-0.002906393
-0.0031418046
-0.003395678
-0.0036693914
-0.0039644208
-0.0042823043
-0.0046246667
-0.0049931978
-0.0053896441
-0.0058158172
-0.0062735461
-0.0067646921
-0.0072910947
-0.0078545616
-0.008456817
-0.0090994587
-0.0097839065
-0.010511327
-0.011282568
-0.012098056
-0.01295772
-0.013860837
-0.01480597
-0.01579075
-0.01681184
-0.017864644
-0.018943338
-0.020040472
-0.021147148
-0.022252486
-0.023344019
-0.024407014
-0.025425176
-0.026379817
-0.027250951
-0.028016322
-0.02865297
-0.029136118
-0.029441227
-0.029542826
-0.029416895
-0.029039833
-0.02839082
-0.027451218
-0.02620632
-0.024645631
-0.022763213
-0.020560292
-0.018042508
-0.015221113
-0.01211238
-0.0087391342
-0.0051269229
-0.0013078045
0.0026862115
0.0068176187
0.011051618
0.015349588
0.019677644
0.023999947
0.028286532
0.032507125
0.036637568
0.040654566
0.044540497
0.048279227
0.051859438
0.055271479
0.058509496
0.061569181
0.064449045
0.067148881
0.069670468
0.072016591
0.07419131
0.076199444
0.078046377
0.079738071
0.081280169
0.082679075
0.083939533
0.085068314
0.086067845
0.086946536
0.087701778
0.088347741
0.088869915
0.089299368
0.08959146
0.089823806
0.089874839
-0.00013580263
-5.173908e-06
-0.00014350388
-0.00010335684
-0.00018344046
-0.00018487762
-0.00024061873
-0.00026235388
-0.00030932295
-0.0003424001
-0.00038806212
-0.00042906834
-0.00047734731
-0.00052540734
-0.00057873233
-0.00063418781
-0.00069442045
-0.00075826104
-0.00082712783
-0.00090075943
-0.00098006668
-0.0010652326
-0.0011569879
-0.0012557615
-0.0013622568
-0.0014770694
-0.0016009513
-0.0017346392
-0.0018789753
-0.0020348388
-0.0022031857
-0.0023850525
-0.0025815317
-0.0027938211
-0.0030231789
-0.0032709728
-0.0035386406
-0.0038277299
-0.0041398648
-0.004476772
-0.0048402608
-0.0052322172
-0.0056546132
-0.006109463
-0.0065988374
-0.0071248138
-0.0076894658
-0.008294814
-0.0089427821
-0.0096351473
-0.01037346
-0.011158983
-0.011992575
-0.01287462
-0.013804853
-0.014782305
-0.015805048
-0.016870177
-0.017973458
-0.019109394
-0.020270732
-0.021448705
-0.022632356
-0.023809049
-0.024963578
-0.026079076
-0.027135873
-0.028112923
-0.028986411
-0.029731789
-0.030322154
-0.030730899
-0.03092998
-0.030892993
-0.030593578
-0.03000849
-0.029116564
-0.027900984
-0.026349494
-0.024454712
-0.022217397
-0.019643251
-0.016744217
-0.013537672
-0.010048697
-0.0063048682
-0.0023416939
0.0018062164
0.0060973344
0.010494178
0.014954222
0.01944127
0.02391626
0.028347593
0.032702757
0.036956751
0.041085076
0.04507
0.048895076
0.052549452
0.056023811
0.059313137
0.062413852
0.065325479
0.068048719
0.070586383
0.072942186
0.075121151
0.077128959
0.078971848
0.080656539
0.082189415
0.083577516
0.08482621
0.085942764
0.086930131
0.087797039
0.088541371
0.089177365
0.089691112
0.090113307
0.090400369
0.090628583
0.090678716
-0.00012834122
-4.8097471e-06
-0.00013550427
-9.75143e-05
-0.0001731621
-0.00017449196
-0.00022715006
-0.00024768558
-0.00029208022
-0.00032336627
-0.00036656436
-0.00040538888
-0.0004511145
-0.00049666875
-0.0005472387
-0.00059987056
-0.00065707309
-0.00071775172
-0.00078325769
-0.00085335749
-0.00092892703
-0.0010101572
-0.001097759
-0.0011921617
-0.0012940575
-0.0014040411
-0.0015228597
-0.0016512519
-0.0017900619
-0.0019401764
-0.0021025626
-0.0022782732
-0.002468424
-0.0026742423
-0.0028970252
-0.0031381885
-0.0033992298
-0.0036817694
-0.003987519
-0.0043183095
-0.004676073
-0.0050628402
-0.0054807499
-0.0059320095
-0.0064189103
-0.0069437805
-0.0075089757
-0.0081168324
-0.0087696232
-0.0094695102
-0.01021846
-0.011018186
-0.01187002
-0.01277485
-0.013732918
-0.014743782
-0.015806013
-0.016917203
-0.018073541
-0.019269926
-0.020499354
-0.021753254
-0.023020621
-0.024288697
-0.025541796
-0.026762488
-0.02793006
-0.029022361
-0.03001388
-0.030878377
-0.031586598
-0.032109705
-0.032416773
-0.032478797
-0.032266304
-0.03175337
-0.030915952
-0.029734863
-0.028195814
-0.026289734
-0.024016845
-0.021382707
-0.018399964
-0.015087048
-0.011471611
-0.0075833732
-0.0034618747
0.0008554578
0.0053223567
0.0098984217
0.014536536
0.019198017
0.023840042
0.028429306
0.032930727
0.037318494
0.041566758
0.045657798
0.049574847
0.053307682
0.056847408
0.060190014
0.063332779
0.066276397