/*--------------------------------*- C++ -*----------------------------------*\
| =========                 |                                                 |
| \\      /  F ield         | foam-extend: Open Source CFD                    |
|  \\    /   O peration     | Version:     4.1                                |
|   \\  /    A nd           | Web:         http://www.foam-extend.org         |
|    \\/     M anipulation  |                                                 |
\*---------------------------------------------------------------------------*/
FoamFile
{
    version     2.0;
    format      ascii;
    class       surfaceScalarField;
    location    "0.3";
    object      phi;
}
// * * * * * * * * * * * * * * * * * * * * * * * * * * * * * * * * * * * * * //

dimensions      [0 3 -1 0 0 0 0];

internalField   nonuniform List<scalar> 
32976
(
-0.0016146143
1.2268988e-07
-0.0016147473
1.330979e-07
-0.00161489
1.4269224e-07
-0.0016150443
1.5427508e-07
-0.0016152102
1.6588701e-07
-0.0016153891
1.7892586e-07
-0.0016155817
1.9256297e-07
-0.0016157892
2.0746295e-07
-0.0016160125
2.2329901e-07
-0.0016162529
2.4041497e-07
-0.0016165116
2.5871186e-07
-0.00161679
2.7839629e-07
-0.0016170895
2.9947545e-07
-0.0016174116
3.2210053e-07
-0.0016177579
3.4633073e-07
-0.0016181302
3.7229819e-07
-0.0016185303
4.0008978e-07
-0.0016189601
4.2983446e-07
-0.0016194217
4.6163531e-07
-0.0016199174
4.9562447e-07
-0.0016204493
5.31915e-07
-0.0016210199
5.7064379e-07
-0.0016216319
6.1192951e-07
-0.0016222878
6.5591274e-07
-0.0016229905
7.0271335e-07
-0.001623743
7.5247253e-07
-0.0016245483
8.0530607e-07
-0.0016254096
8.6135063e-07
-0.0016263303
9.2071109e-07
-0.0016273138
9.8351244e-07
-0.0016283637
1.0498398e-06
-0.0016294835
1.1197926e-06
-0.0016306769
1.1934438e-06
-0.0016319477
1.2708316e-06
-0.0016332997
1.3520058e-06
-0.0016347367
1.4369487e-06
-0.0016362624
1.5256552e-06
-0.0016378804
1.6180387e-06
-0.0016395944
1.7140215e-06
-0.0016414078
1.8134289e-06
-0.0016433239
1.9160911e-06
-0.0016453457
2.0217273e-06
-0.0016474757
2.1300434e-06
-0.0016497164
2.2406511e-06
-0.0016520695
2.3531018e-06
-0.0016545363
2.4668701e-06
-0.0016571177
2.5813499e-06
-0.0016598135
2.6958562e-06
-0.0016626231
2.8096116e-06
-0.0016655449
2.9217544e-06
-0.0016685762
3.0313326e-06
-0.0016717135
3.1373048e-06
-0.0016749521
3.2385407e-06
-0.0016782859
3.3338306e-06
-0.0016817078
3.421877e-06
-0.0016852091
3.5013146e-06
-0.0016887798
3.5707119e-06
-0.0016924084
3.6285828e-06
-0.0016960818
3.6733955e-06
-0.0016997854
3.7035929e-06
-0.001703503
3.717589e-06
-0.0017072168
3.7137987e-06
-0.0017109074
3.690646e-06
-0.001714554
3.6465876e-06
-0.0017181341
3.580143e-06
-0.0017216241
3.4899376e-06
-0.0017249988
3.3747659e-06
-0.0017282325
3.2336514e-06
-0.0017312984
3.0659363e-06
-0.0017341698
2.8713528e-06
-0.0017368199
2.6500797e-06
-0.0017392226
2.4027802e-06
-0.0017413533
2.1306072e-06
-0.0017431884
1.8351768e-06
-0.001744707
1.5185381e-06
-0.0017458901
1.1831278e-06
-0.0017467218
8.3172219e-07
-0.0017471892
4.6739594e-07
-0.0017472827
9.3465864e-08
-0.0017469961
-2.865557e-07
-0.0017463271
-6.6902958e-07
-0.0017452768
-1.0502741e-06
-0.0017438502
-1.4266316e-06
-0.0017420556
-1.7945566e-06
-0.0017399049
-2.1506985e-06
-0.001737413
-2.4919779e-06
-0.0017345973
-2.8156468e-06
-0.001731478
-3.1193536e-06
-0.0017280768
-3.4011718e-06
-0.0017244171
-3.659643e-06
-0.0017205234
-3.8937764e-06
-0.0017164203
-4.1030494e-06
-0.0017121329
-4.2873783e-06
-0.0017076858
-4.4470901e-06
-0.001703103
-4.5828375e-06
-0.0016984075
-4.695527e-06
-0.0016936213
-4.7861686e-06
-0.0016887656
-4.8557304e-06
-0.0016838607
-4.9048784e-06
-0.001678927
-4.9337376e-06
-0.0016739854
-4.9415689e-06
-0.0016690589
-4.9265078e-06
-0.0016641735
-4.8853947e-06
-0.0016593596
-4.8138787e-06
-0.0016546528
-4.7068489e-06
-0.0016500934
-4.559373e-06
-0.0016457254
-4.3680028e-06
-0.0016415931
-4.1322766e-06
-0.0016377372
-3.85596e-06
-0.0016341896
-3.5475413e-06
-0.0016309701
-3.2195338e-06
-0.0016280835
-2.8866059e-06
-0.0016255206
-2.562896e-06
-0.0016232612
-2.2593798e-06
-0.0016212791
-1.9821342e-06
-0.001619547
-1.7320572e-06
-0.0016180411
-1.505918e-06
-0.0016167429
-1.2982211e-06
-0.0016156399
-1.1030043e-06
-0.0016147247
-9.1514779e-07
-0.0016139939
-7.3083461e-07
-0.0016134462
-5.4763094e-07
-0.0016130822
-3.6400027e-07
-1.7924915e-07
-0.0016146099
2.4506622e-07
-0.0016147427
2.6587185e-07
-0.001614885
2.850259e-07
-0.0016150389
3.0817228e-07
-0.0016152044
3.3136263e-07
-0.0016153829
3.5741356e-07
-0.001615575
3.8465318e-07
-0.0016157819
4.1442043e-07
-0.0016160047
4.46055e-07
-0.0016162445
4.8024885e-07
-0.0016165026
5.16801e-07
-0.0016167803
5.5612652e-07
-0.0016170791
5.9823842e-07
-0.0016174004
6.4343986e-07
-0.001617746
6.9184863e-07
-0.0016181174
7.4372935e-07
-0.0016185165
7.9925552e-07
-0.0016189454
8.5868522e-07
-0.001619406
9.2222457e-07
-0.0016199005
9.9013796e-07
-0.0016204312
1.0626516e-06
-0.0016210006
1.1400396e-06
-0.0016216112
1.2225394e-06
-0.0016222658
1.3104326e-06
-0.001622967
1.4039594e-06
-0.0016237179
1.5034027e-06
-0.0016245216
1.6089947e-06
-0.0016253813
1.7210094e-06
-0.0016263002
1.8396576e-06
-0.0016272819
1.9651903e-06
-0.0016283299
2.097779e-06
-0.0016294477
2.237624e-06
-0.0016306391
2.3848728e-06
-0.0016319079
2.5396039e-06
-0.0016332578
2.701919e-06
-0.0016346926
2.8717851e-06
-0.0016362162
3.0491947e-06
-0.0016378321
3.2339774e-06
-0.0016395441
3.425981e-06
-0.0016413555
3.6248593e-06
-0.0016432697
3.8302763e-06
-0.0016452896
4.0416736e-06
-0.0016474181
4.258467e-06
-0.0016496573
4.4798836e-06
-0.0016520092
4.7050297e-06
-0.0016544752
4.9328576e-06
-0.001657056
5.1621583e-06
-0.0016597517
5.3915642e-06
-0.0016625616
5.6195222e-06
-0.0016654842
5.84431e-06
-0.0016685169
6.0640235e-06
-0.0016716562
6.2765786e-06
-0.0016748973
6.4797117e-06
-0.0016782345
6.6709987e-06
-0.0016816605
6.8478381e-06
-0.0016851666
7.0074907e-06
-0.001688743
7.1470821e-06
-0.001692378
7.263626e-06
-0.0016960587
7.3540426e-06
-0.0016997703
7.4151988e-06
-0.0017034966
7.4439028e-06
-0.0017072198
7.4369647e-06
-0.0017109203
7.3912137e-06
-0.0017145773
7.3035494e-06
-0.0017181682
7.1710011e-06
-0.001721669
6.9908165e-06
-0.0017250549
6.7605868e-06
-0.0017282996
6.4783642e-06
-0.0017313765
6.1428376e-06
-0.0017342586
5.753472e-06
-0.0017369191
5.3106197e-06
-0.0017393319
4.8155951e-06
-0.001741472
4.270688e-06
-0.001743316
3.6791156e-06
-0.0017448424
3.0449657e-06
-0.0017460324
2.3731094e-06
-0.0017468698
1.6691077e-06
-0.0017473415
9.3912715e-07
-0.0017474379
1.8983202e-07
-0.0017471527
-5.7171536e-07
-0.0017464835
-1.3381947e-06
-0.0017454316
-2.1022079e-06
-0.0017440018
-2.856409e-06
-0.0017422027
-3.593674e-06
-0.0017400461
-4.3072687e-06
-0.0017375471
-4.991005e-06
-0.0017347234
-5.6393609e-06
-0.0017315951
-6.2476138e-06
-0.0017281844
-6.811896e-06
-0.0017245148
-7.3292835e-06
-0.0017206108
-7.7977924e-06
-0.0017164974
-8.2163829e-06
-0.0017121999
-8.5848966e-06
-0.001707743
-8.9040021e-06
-0.0017031508
-9.1750228e-06
-0.0016984465
-9.3997923e-06
-0.0016936524
-9.5803526e-06
-0.0016887894
-9.718664e-06
-0.0016838782
-9.8160825e-06
-0.0016789391
-9.8728836e-06
-0.001673993
-9.8876158e-06
-0.001669063
-9.8565784e-06
-0.0016641749
-9.7734831e-06
-0.0016593591
-9.6296603e-06
-0.001654651
-9.4149194e-06
-0.001650091
-9.119422e-06
-0.0016457227
-8.7362876e-06
-0.0016415904
-8.2645918e-06
-0.0016377345
-7.7118459e-06
-0.001634187
-7.0949892e-06
-0.0016309676
-6.4390022e-06
-0.001628081
-5.7731777e-06
-0.0016255181
-5.1257627e-06
-0.0016232588
-4.5186972e-06
-0.0016212768
-3.9641423e-06
-0.0016195449
-3.4639116e-06
-0.0016180393
-3.0115623e-06
-0.0016167414
-2.5961192e-06
-0.0016156387
-2.2056641e-06
-0.0016147239
-1.8299606e-06
-0.0016139934
-1.4613686e-06
-0.001613446
-1.095021e-06
-0.0016130822
-7.2783128e-07
-3.5841795e-07
-0.0016146023
3.6683925e-07
-0.0016147344
3.9799015e-07
-0.001614876
4.2665825e-07
-0.0016150292
4.6131277e-07
-0.0016151938
4.9602687e-07
-0.0016153714
5.3502894e-07
-0.0016155626
5.7580799e-07
-0.0016157686
6.2037425e-07
-0.0016159902
6.6773558e-07
-0.0016162289
7.1893063e-07
-0.0016164858
7.7365702e-07
-0.0016167622
8.325376e-07
-0.0016170595
8.9559137e-07
-0.0016173794
9.6327312e-07
-0.0016177233
1.0357593e-06
-0.001618093
1.1134469e-06
-0.0016184903
1.1965961e-06
-0.0016189172
1.2855941e-06
-0.0016193758
1.3807502e-06
-0.0016198681
1.4824612e-06
-0.0016203965
1.5910668e-06
-0.0016209634
1.7069787e-06
-0.0016215715
1.8305538e-06
-0.0016222232
1.9622153e-06
-0.0016229216
2.1023247e-06
-0.0016236695
2.2513075e-06
-0.00162447
2.4095139e-06
-0.0016253264
2.5773567e-06
-0.0016262419
2.7551543e-06
-0.00162722
2.9432859e-06
-0.0016282642
3.142012e-06
-0.0016293782
3.3516366e-06
-0.0016305657
3.5723851e-06
-0.0016318305
3.8043798e-06
-0.0016331764
4.0477787e-06
-0.0016346071
4.3025381e-06
-0.0016361266
4.5686532e-06
-0.0016377385
4.8458752e-06
-0.0016394465
5.1339835e-06
-0.0016412541
5.4324666e-06
-0.0016431646
5.7408289e-06
-0.0016451812
6.0582415e-06
-0.0016473066
6.3838367e-06
-0.0016495432
6.7164639e-06
-0.0016518929
7.0547911e-06
-0.0016543573
7.3972547e-06
-0.0016569372
7.7420481e-06
-0.0016596328
8.087126e-06
-0.0016624434
8.4301629e-06
-0.0016653677
8.7685779e-06
-0.0016684032
9.0995143e-06
-0.0016715464
9.4198431e-06
-0.0016747929
9.7261621e-06
-0.0016781367
1.0014825e-05
-0.0016815708
1.0281913e-05
-0.0016850866
1.0523299e-05
-0.0016886742
1.0734643e-05
-0.001692322
1.0911435e-05
-0.0016960169
1.1049018e-05
-0.0016997444
1.1142649e-05
-0.001703488
1.1187495e-05
-0.0017072297
1.1178723e-05
-0.0017109501
1.1111535e-05
-0.0017146278
1.0981243e-05
-0.0017182401
1.0783362e-05
-0.001721763
1.0513749e-05
-0.0017251712
1.0168786e-05
-0.0017284384
9.7455497e-06
-0.0017315377
9.2420752e-06
-0.0017344417
8.6575544e-06
-0.0017371236
7.9924998e-06
-0.0017395569
7.248858e-06
-0.0017417162
6.4300332e-06
-0.0017435779
5.5408253e-06
-0.0017451203
4.5873514e-06
-0.0017463241
3.5769232e-06
-0.0017471729
2.5179082e-06
-0.0017476534
1.4196028e-06
-0.0017477557
2.9206939e-07
-0.0017474733
-8.5402611e-07
-0.0017468039
-2.0076188e-06
-0.0017457486
-3.1575168e-06
-0.0017443124
-4.2926082e-06
-0.001742504
-5.4021168e-06
-0.0017403354
-6.4758549e-06
-0.0017378219
-7.5044642e-06
-0.0017349817
-8.4795953e-06
-0.0017318352
-9.394114e-06
-0.0017284049
-1.0242182e-05
-0.0017247148
-1.1019394e-05
-0.0017207898
-1.1722772e-05
-0.0017166554
-1.2350767e-05
-0.0017123372
-1.2903167e-05
-0.0017078601
-1.3381015e-05
-0.0017032488
-1.378634e-05
-0.0016985267
-1.4121949e-05
-0.0016937161
-1.4390962e-05
-0.0016888383
-1.4596383e-05
-0.0016839141
-1.474031e-05
-0.0016789638
-1.4823223e-05
-0.0016740084
-1.484301e-05
-0.0016690708
-1.4794191e-05
-0.0016641769
-1.4667403e-05
-0.0016593568
-1.4449711e-05
-0.0016546458
-1.4125893e-05
-0.001650084
-1.3681243e-05
-0.0016457148
-1.3105468e-05
-0.0016415822
-1.2397179e-05
-0.0016377265
-1.1567606e-05
-0.0016341794
-1.0642091e-05
-0.0016309604
-9.6580201e-06
-0.0016280743
-8.6592507e-06
-0.001625512
-7.688091e-06
-0.0016232532
-6.7774208e-06
-0.0016212719
-5.9454819e-06
-0.0016195408
-5.1950173e-06
-0.001618036
-4.5163912e-06
-0.0016167389
-3.8931663e-06
-0.0016156371
-3.3074791e-06
-0.0016147231
-2.7439809e-06
-0.0016139932
-2.1912064e-06
-0.0016134464
-1.6418512e-06
-0.001613083
-1.0912696e-06
-5.3738787e-07
-0.0016145884
4.8771207e-07
-0.0016147195
5.2913162e-07
-0.0016148601
5.6724658e-07
-0.0016150121
6.1332713e-07
-0.0016151756
6.5948415e-07
-0.0016153519
7.1134708e-07
-0.0016155417
7.6557226e-07
-0.0016157461
8.248366e-07
-0.0016159662
8.8781865e-07
-0.0016162032
9.5590167e-07
-0.0016164582
1.0286829e-06
-0.0016167327
1.1069918e-06
-0.0016170279
1.1908538e-06
-0.0016173455
1.2808748e-06
-0.0016176871
1.3772902e-06
-0.0016180543
1.4806289e-06
-0.0016184489
1.591238e-06
-0.0016188729
1.7096338e-06
-0.0016193284
1.8362292e-06
-0.0016198175
1.9715536e-06
-0.0016203425
2.116061e-06
-0.0016209058
2.2703008e-06
-0.00162151
2.4347508e-06
-0.0016221578
2.6099766e-06
-0.0016228519
2.7964624e-06
-0.0016235954
2.994778e-06
-0.0016243913
3.2053934e-06
-0.0016252428
3.4288627e-06
-0.0016261532
3.6656146e-06
-0.0016271261
3.9161597e-06
-0.0016281649
4.1808513e-06
-0.0016292734
4.4601009e-06
-0.0016304552
4.7542169e-06
-0.0016317142
5.063371e-06
-0.0016330542
5.3877829e-06
-0.0016344791
5.7274053e-06
-0.0016359927
6.0822428e-06
-0.0016375988
6.4519768e-06
-0.0016393011
6.8363259e-06
-0.0016411033
7.2346227e-06
-0.0016430087
7.646221e-06
-0.0016450205
8.0700312e-06
-0.0016471416
8.5049115e-06
-0.0016493744
8.9493437e-06
-0.0016517212
9.4015663e-06
-0.0016541835
9.8595088e-06
-0.0016567622
1.0320775e-05
-0.0016594577
1.0782648e-05
-0.0016622696
1.1242036e-05
-0.0016651965
1.16955e-05
-0.0016682362
1.2139234e-05
-0.0016713854
1.2569059e-05
-0.0016746397
1.2980428e-05
-0.0016779933
1.3368461e-05
-0.0016814393
1.372791e-05
-0.0016849693
1.4053234e-05
-0.0016885732
1.4338605e-05
-0.0016922398
1.4577956e-05
-0.0016959557
1.4765012e-05
-0.0016997065
1.4893379e-05
-0.0017034755
1.4956532e-05
-0.0017072447
1.4947951e-05
-0.0017109944
1.4861156e-05
-0.0017147029
1.4689826e-05
-0.0017183475
1.4427925e-05
-0.0017219036
1.4069885e-05
-0.0017253457
1.361085e-05
-0.0017286471
1.3046905e-05
-0.0017317804
1.2375408e-05
-0.0017347181
1.1595258e-05
-0.0017374327
1.07071e-05
-0.0017398973
9.7134873e-06
-0.0017420862
8.618911e-06
-0.0017439751
7.4297363e-06
-0.0017455419
6.1541065e-06
-0.0017467667
4.8017912e-06
-0.0017476328
3.3840034e-06
-0.0017481265
1.9132294e-06
-0.0017482374
4.030115e-07
-0.0017479591
-1.1322867e-06
-0.001747289
-2.6777496e-06
-0.0017462283
-4.2182802e-06
-0.001744782
-5.7388903e-06
-0.001742959
-7.2250416e-06
-0.0017407719
-8.6629898e-06
-0.0017382363
-1.0040115e-05
-0.0017353707
-1.1345161e-05
-0.0017321963
-1.2568522e-05
-0.0017287361
-1.3702345e-05
-0.0017250148
-1.4740726e-05
-0.0017210579
-1.5679684e-05
-0.0017168915
-1.6517183e-05
-0.0017125416
-1.7252988e-05
-0.0017080341
-1.7888562e-05
-0.0017033937
-1.84267e-05
-0.0016986444
-1.8871249e-05
-0.0016938089
-1.922648e-05
-0.0016889088
-1.9496518e-05
-0.0016839648
-1.9684279e-05
-0.0016789975
-1.9790528e-05
-0.0016740279
-1.9812576e-05
-0.0016690789
-1.9743243e-05
-0.0016641761
-1.9570172e-05
-0.0016593496
-1.9276243e-05
-0.0016546342
-1.8841271e-05
-0.0016500697
-1.8245737e-05
-0.0016456992
-1.7475966e-05
-0.0016415663
-1.6530105e-05
-0.0016377108
-1.5423066e-05
-0.0016341644
-1.4188527e-05
-0.0016309462
-1.2876193e-05
-0.0016280611
-1.1544399e-05
-0.0016254997
-1.0249445e-05
-0.001623242
-9.035109e-06
-0.0016212618
-7.9257037e-06
-0.0016195319
-6.9249146e-06
-0.0016180284
-6.0199374e-06
-0.0016167326
-5.1888972e-06
-0.0016156321
-4.4080012e-06
-0.0016147193
-3.6567966e-06
-0.0016139905
-2.9199908e-06
-0.0016134445
-2.1878378e-06
-0.0016130817
-1.4541196e-06
-7.1606324e-07
-0.0016145713
6.0739007e-07
-0.0016147012
6.5897927e-07
-0.0016148404
7.0645096e-07
-0.0016149909
7.6384949e-07
-0.0016151527
8.2134234e-07
-0.0016153273
8.8594696e-07
-0.0016155153
9.53495e-07
-0.0016157177
1.0273242e-06
-0.0016159357
1.105787e-06
-0.0016161704
1.1906087e-06
-0.001616423
1.2812873e-06
-0.0016166949
1.3788577e-06
-0.0016169874
1.4833522e-06
-0.001617302
1.5955271e-06
-0.0016176404
1.7156768e-06
-0.0016180043
1.8444622e-06
-0.0016183953
1.9823174e-06
-0.0016188156
2.1298878e-06
-0.0016192671
2.2876903e-06
-0.0016197519
2.4563875e-06
-0.0016202724
2.636548e-06
-0.0016208309
2.8288606e-06
-0.0016214301
3.0339244e-06
-0.0016220726
3.2524494e-06
-0.0016227612
3.4850442e-06
-0.0016234988
3.7324251e-06
-0.0016242886
3.9951845e-06
-0.0016251338
4.2740207e-06
-0.0016260376
4.5694768e-06
-0.0016270037
4.8821984e-06
-0.0016280354
5.2126369e-06
-0.0016291367
5.5613168e-06
-0.0016303111
5.9286355e-06
-0.0016315625
6.3148211e-06
-0.0016328949
6.7201629e-06
-0.0016343121
7.1446183e-06
-0.0016358181
7.5882109e-06
-0.0016374167
8.0505619e-06
-0.0016391117
8.5313401e-06
-0.0016409068
9.0297335e-06
-0.0016428055
9.5449572e-06
-0.0016448112
1.0075673e-05
-0.0016469267
1.0620478e-05
-0.0016491549
1.1177497e-05
-0.0016514979
1.1744553e-05
-0.0016539575
1.2319079e-05
-0.0016565348
1.2898098e-05
-0.0016592304
1.3478233e-05
-0.001662044
1.4055628e-05
-0.0016649745
1.4625996e-05
-0.0016680198
1.5184576e-05
-0.0016711769
1.572614e-05
-0.0016744414
1.6244988e-05
-0.001677808
1.6734995e-05
-0.0016812696
1.7189562e-05
-0.0016848181
1.7601712e-05
-0.0016884436
1.7964099e-05
-0.0016921347
1.8269055e-05
-0.0016958783
1.8508646e-05
-0.0016996597
1.8674772e-05
-0.0017034623
1.8759161e-05
-0.0017072679
1.8753537e-05
-0.0017110565
1.864968e-05
-0.0017148062
1.8439572e-05
-0.0017184938
1.8115566e-05
-0.0017220946
1.7670612e-05
-0.0017255823
1.709857e-05
-0.0017289299
1.6394484e-05
-0.0017321095
1.5554995e-05
-0.0017350929
1.4578665e-05
-0.001737852
1.3466237e-05
-0.0017403593
1.2220829e-05
-0.0017425884
1.0847995e-05
-0.0017445143
9.3556539e-06
-0.0017461142
7.7539809e-06
-0.0017473677
6.055236e-06
-0.0017482572
4.2735362e-06
-0.0017487686
2.4246419e-06
-0.0017488913
5.2568211e-07
-0.0017486184
-1.4051579e-06
-0.0017479472
-3.3489699e-06
-0.0017468789
-5.2865995e-06
-0.0017454187
-7.1990283e-06
-0.001743576
-9.0678053e-06
-0.0017413635
-1.0875488e-05
-0.0017387975
-1.2606069e-05
-0.0017358974
-1.4245279e-05
-0.001732685
-1.578096e-05
-0.0017291841
-1.7203187e-05
-0.0017254203
-1.8504529e-05
-0.00172142
-1.9680001e-05
-0.0017172101
-2.0727105e-05
-0.0017128174
-2.1645626e-05
-0.0017082685
-2.2437518e-05
-0.0017035888
-2.310642e-05
-0.0016988027
-2.3657314e-05
-0.0016939335
-2.409572e-05
-0.001689003
-2.442699e-05
-0.0016840323
-2.4654967e-05
-0.001679042
-2.4780807e-05
-0.0016740532
-2.4801351e-05
-0.0016690887
-2.4707827e-05
-0.0016641738
-2.448499e-05
-0.0016593384
-2.4111632e-05
-0.001654617
-2.3562692e-05
-0.0016500489
-2.2813907e-05
-0.0016456766
-2.1848261e-05
-0.0016415432
-2.0663434e-05
-0.0016376883
-1.9277981e-05
-0.001634143
-1.7733839e-05
-0.0016309263
-1.6092931e-05
-0.0016280427
-1.4427964e-05
-0.001625483
-1.2809138e-05
-0.001623227
-1.1291073e-05
-0.0016212486
-9.9041299e-06
-0.0016195206
-8.6529437e-06
-0.001618019
-7.5215647e-06
-0.0016167252
-6.4827068e-06
-0.0016156265
-5.5066678e-06
-0.0016147154
-4.5679025e-06
-0.0016139881
-3.6472897e-06
-0.0016134433
-2.7326385e-06
-0.0016130813
-1.816142e-06
-8.9432074e-07
-0.00161455
7.2558136e-07
-0.0016146783
7.8721788e-07
-0.0016148158
8.4393456e-07
-0.0016149644
9.1251717e-07
-0.0016151243
9.8121307e-07
-0.0016152968
1.0584117e-06
-0.0016154824
1.1391298e-06
-0.0016156824
1.2273586e-06
-0.0016158978
1.321129e-06
-0.0016161297
1.4225043e-06
-0.0016163793
1.5308854e-06
-0.0016166479
1.6475108e-06
-0.001616937
1.7724203e-06
-0.001617248
1.9065199e-06
-0.0016175825
2.0501633e-06
-0.0016179422
2.2041427e-06
-0.0016183288
2.3689799e-06
-0.0016187444
2.5454495e-06
-0.0016191909
2.7341729e-06
-0.0016196704
2.9359462e-06
-0.0016201853
3.1514541e-06
-0.001620738
3.3815253e-06
-0.0016213309
3.6268824e-06
-0.0016219669
3.8883812e-06
-0.0016226486
4.1667571e-06
-0.001623379
4.4628756e-06
-0.0016241613
4.777455e-06
-0.0016249986
5.1113413e-06
-0.0016258944
5.4651965e-06
-0.001626852
5.8398068e-06
-0.0016278751
6.2357272e-06
-0.0016289673
6.6536022e-06
-0.0016301326
7.0939258e-06
-0.0016313748
7.556991e-06
-0.0016326978
8.0431661e-06
-0.0016341056
8.5524235e-06
-0.0016356022
9.084817e-06
-0.0016371916
9.6399199e-06
-0.0016388776
1.0217364e-05
-0.0016406641
1.0816207e-05
-0.0016425547
1.1435539e-05
-0.0016445528
1.2073789e-05
-0.0016466616
1.2729306e-05
-0.001648884
1.3399876e-05
-0.0016512223
1.4082918e-05
-0.0016536786
1.4775383e-05
-0.0016562543
1.5473728e-05
-0.00165895
1.6173922e-05
-0.0016617657
1.6871359e-05
-0.0016647006
1.7560903e-05
-0.0016677529
1.8236844e-05
-0.0016709196
1.8892902e-05
-0.0016741969
1.9522216e-05
-0.0016775793
2.0117401e-05
-0.0016810602
2.0670488e-05
-0.0016846315
2.1173037e-05
-0.0016882836
2.1616143e-05
-0.001692005
2.19905e-05
-0.0016957828
2.2286458e-05
-0.0016996022
2.249415e-05
-0.0017034465
2.2603487e-05
-0.0017072973
2.2604366e-05
-0.0017111344
2.2486744e-05
-0.0017149357
2.2240829e-05
-0.0017186774
2.1857276e-05
-0.0017223342
2.132748e-05
-0.0017258796
2.0643937e-05
-0.0017292857
1.9800581e-05
-0.001732524
1.8793266e-05
-0.0017355655
1.7620157e-05
-0.0017383813
1.6282034e-05
-0.001740943
1.4782542e-05
-0.0017432233
1.3128265e-05
-0.0017451963
1.1328664e-05
-0.0017468382
9.3959664e-06
-0.001748128
7.3449702e-06
-0.0017490472
5.1927756e-06
-0.0017495811
2.9585282e-06
-0.0017497185
6.6308436e-07
-0.0017494523
-1.6713864e-06
-0.0017487795
-4.0218018e-06
-0.0017477013
-6.3647589e-06
-0.0017462233
-8.6770146e-06
-0.0017443551
-1.0936015e-05
-0.0017421101
-1.3120437e-05
-0.0017395055
-1.5210731e-05
-0.0017365613
-1.7189475e-05
-0.0017333004
-1.9041859e-05
-0.0017297478
-2.0755814e-05
-0.0017259299
-2.2322348e-05
-0.0017218745
-2.3735469e-05
-0.0017176093
-2.4992254e-05
-0.0017131624
-2.6092567e-05
-0.001708561
-2.7038942e-05
-0.0017038314
-2.7835964e-05
-0.0016989989
-2.8489871e-05
-0.001694087
-2.9007561e-05
-0.0016891183
-2.9395747e-05
-0.0016841139
-2.9659332e-05
-0.0016790947
-2.9800005e-05
-0.0016740818
-2.9814269e-05
-0.0016690977
-2.9691896e-05
-0.0016641678
-2.941488e-05
-0.0016593214
-2.8958048e-05
-0.0016545925
-2.8291574e-05
-0.0016500199
-2.7386533e-05
-0.0016456455
-2.6222615e-05
-0.0016415119
-2.4797039e-05
-0.001637658
-2.3131955e-05
-0.0016341143
-2.1277464e-05
-0.0016308997
-1.9307584e-05
-0.0016280184
-1.7309263e-05
-0.001625461
-1.536649e-05
-0.0016232075
-1.3544649e-05
-0.0016212315
-1.1880115e-05
-0.0016195059
-1.0378476e-05
-0.0016180068
-9.0206628e-06
-0.0016167155
-7.7740104e-06
-0.0016156193
-6.6029323e-06
-0.0016147104
-5.476806e-06
-0.001613985
-4.3726827e-06
-0.0016134417
-3.2759224e-06
-0.0016130807
-2.1771095e-06
-1.0720492e-06
-0.0016145257
8.4199718e-07
-0.001614652
9.1353584e-07
-0.0016147874
9.793637e-07
-0.0016149339
1.058971e-06
-0.0016150914
1.1387114e-06
-0.0016152613
1.2283279e-06
-0.0016154442
1.3220339e-06
-0.0016156413
1.4244656e-06
-0.0016158535
1.5333368e-06
-0.001616082
1.6510454e-06
-0.001616328
1.7768966e-06
-0.0016165929
1.9123308e-06
-0.0016168778
2.0573961e-06
-0.0016171845
2.213147e-06
-0.0016175143
2.379997e-06
-0.001617869
2.5588696e-06
-0.0016182504
2.7503741e-06
-0.0016186604
2.9554147e-06
-0.0016191009
3.174718e-06
-0.0016195742
3.4092143e-06
-0.0016200825
3.6597056e-06
-0.0016206281
3.9271618e-06
-0.0016212136
4.2124308e-06
-0.0016218418
4.5165161e-06
-0.0016225153
4.8402833e-06
-0.0016232372
5.1847496e-06
-0.0016240105
5.5507635e-06
-0.0016248385
5.9393233e-06
-0.0016257245
6.3512153e-06
-0.001626672
6.7873721e-06
-0.0016276848
7.2484597e-06
-0.0016287664
7.7352504e-06
-0.0016299208
8.2483436e-06
-0.001631152
8.7881076e-06
-0.0016324638
9.3550005e-06
-0.0016338604
9.9490223e-06
-0.0016353458
1.057027e-05
-0.0016369242
1.1218283e-05
-0.0016385995
1.1892673e-05
-0.0016403757
1.2592382e-05
-0.0016422565
1.3316393e-05
-0.0016442457
1.4062917e-05
-0.0016463464
1.4830078e-05
-0.0016485619
1.5615336e-05
-0.0016508947
1.6415726e-05
-0.0016533471
1.7227732e-05
-0.0016559206
1.8047261e-05
-0.0016586163
1.8869642e-05
-0.0016614345
1.9689527e-05
-0.0016643745
2.050094e-05
-0.0016674349
2.1297227e-05
-0.0016706131
2.2071049e-05
-0.0016739052
2.281438e-05
-0.0016773064
2.3518559e-05
-0.0016808101
2.4174225e-05
-0.0016844085
2.4771444e-05
-0.0016880921
2.5299715e-05
-0.0016918496
2.574804e-05
-0.0016956682
2.6104994e-05
-0.0016995329
2.6358875e-05
-0.0017034271
2.6497696e-05
-0.0017073322
2.6509439e-05
-0.0017112276
2.6382144e-05
-0.0017150909
2.6104141e-05
-0.0017188979
2.566429e-05
-0.0017226227
2.5052324e-05
-0.0017262381
2.4259273e-05
-0.0017297154
2.3277862e-05
-0.0017330252
2.2103063e-05
-0.0017361376
2.0732562e-05
-0.0017390226
1.91671e-05
-0.0017416509
1.7410794e-05
-0.0017439938
1.547122e-05
-0.0017460245
1.3359379e-05
-0.0017477182
1.1089573e-05
-0.0017490524
8.6792002e-06
-0.0017500081
6.1484437e-06
-0.0017505695
3.5199713e-06
-0.0017507249
8.185382e-07
-0.0017504668
-1.9295027e-06
-0.001749792
-4.6966682e-06
-0.0017487017
-7.4550671e-06
-0.0017472017
-1.0176989e-05
-0.0017453022
-1.2835539e-05
-0.0017430173
-1.5405294e-05
-0.0017403651
-1.786296e-05
-0.0017373667
-2.0187798e-05
-0.0017340464
-2.2362223e-05
-0.0017304303
-2.4371928e-05
-0.0017265463
-2.6206332e-05
-0.0017224233
-2.7858431e-05
-0.0017180907
-2.9324924e-05
-0.0017135774
-3.060583e-05
-0.001708912
-3.1704375e-05
-0.0017041217
-3.262622e-05
-0.0016992326
-3.3379013e-05
-0.0016942689
-3.3971185e-05
-0.0016892537
-3.441098e-05
-0.0016842085
-3.4704526e-05
-0.0016791543
-3.4854212e-05
-0.0016741122
-3.4856366e-05
-0.0016691046
-3.4699465e-05
-0.0016641566
-3.4362896e-05
-0.001659297
-3.3817667e-05
-0.0016545593
-3.3029312e-05
-0.0016499815
-3.1964343e-05
-0.0016456049
-3.0599212e-05
-0.0016414712
-2.8930683e-05
-0.0016376187
-2.6984448e-05
-0.0016340775
-2.4818665e-05
-0.0016308658
-2.2519308e-05
-0.0016279876
-2.0187409e-05
-0.0016254335
-1.7920611e-05
-0.0016231832
-1.5794966e-05
-0.0016212105
-1.3852819e-05
-0.0016194883
-1.2100707e-05
-0.0016179925
-1.0516467e-05
-0.0016167044
-9.0620899e-06
-0.0016156112
-7.6961347e-06
-0.0016147051
-6.3829212e-06
-0.0016139821
-5.0956738e-06
-0.0016134407
-3.8172999e-06
-0.0016130811
-2.5367527e-06
-1.2491109e-06
-0.0016144952
9.5635228e-07
-0.0016146193
1.0376249e-06
-0.0016147523
1.1124087e-06
-0.0016148962
1.2028558e-06
-0.001615051
1.2934571e-06
-0.0016152179
1.3952873e-06
-0.0016153977
1.50177e-06
-0.0016155914
1.6181763e-06
-0.0016157999
1.7419088e-06
-0.0016160246
1.8756949e-06
-0.0016162664
2.0187468e-06
-0.0016165268
2.1727042e-06
-0.001616807
2.3376244e-06
-0.0016171086
2.5147094e-06
-0.001617433
2.704433e-06
-0.001617782
2.9078492e-06
-0.0016181573
3.125656e-06
-0.0016185608
3.3588867e-06
-0.0016189944
3.6083742e-06
-0.0016194604
3.8751839e-06
-0.0016199609
4.160236e-06
-0.0016204984
4.4646434e-06
-0.0016210754
4.7893813e-06
-0.0016216945
5.1356036e-06
-0.0016223585
5.5043088e-06
-0.0016230704
5.8966701e-06
-0.0016238333
6.3136704e-06
-0.0016246505
6.7564654e-06
-0.0016255252
7.2259722e-06
-0.0016264611
7.7232765e-06
-0.0016274618
8.2491637e-06
-0.0016285311
8.8045428e-06
-0.0016296729
9.3901292e-06
-0.0016308912
1.0006378e-05
-0.00163219
1.065385e-05
-0.0016335736
1.1332586e-05
-0.0016350461
1.2042742e-05
-0.0016366116
1.2783842e-05
-0.0016382744
1.3555491e-05
-0.0016400386
1.4356537e-05
-0.0016419081
1.5185875e-05
-0.0016438867
1.6041522e-05
-0.001645978
1.692139e-05
-0.0016481853
1.782264e-05
-0.0016505115
1.874194e-05
-0.0016529591
1.9675329e-05
-0.00165553
2.061818e-05
-0.0016582256
2.1565198e-05
-0.0016610464
2.2510307e-05
-0.0016639921
2.3446702e-05
-0.0016670617
2.4366784e-05
-0.0016702528
2.526216e-05
-0.001673562
2.6123628e-05
-0.0016769847
2.6941238e-05
-0.0016805147
2.7704214e-05
-0.0016841443
2.8401094e-05
-0.0016878644
2.9019736e-05
-0.0016916637
2.9547396e-05
-0.0016955295
2.9970807e-05
-0.001699447
3.0276351e-05
-0.0017033994
3.0450053e-05
-0.0017073678
3.0477878e-05
-0.0017113315
3.0345837e-05
-0.0017152676
3.0040262e-05
-0.0017191514
2.954809e-05
-0.0017229564
2.8857261e-05
-0.0017266543
2.7957212e-05
-0.0017302158
2.683933e-05
-0.0017336103
2.5497587e-05
-0.0017368068
2.3929077e-05
-0.0017397741
2.2134414e-05
-0.0017424814
2.0118114e-05
-0.0017448989
1.7888706e-05
-0.0017469983
1.5458724e-05
-0.0017487533
1.2844576e-05
-0.0017501404
1.0066342e-05
-0.0017511394
7.1474067e-06
-0.0017517335
4.1141286e-06
-0.0017519104
9.9536949e-07
-0.0017516618
-2.1780933e-06
-0.0017509843
-5.374106e-06
-0.0017498794
-8.5600053e-06
-0.0017483531
-1.1703322e-05
-0.0017464161
-1.4772538e-05
-0.0017440835
-1.7737853e-05
-0.0017413745
-2.0572001e-05
-0.0017383115
-2.3250718e-05
-0.0017349203
-2.5753497e-05
-0.0017312285
-2.8063691e-05
-0.0017272658
-3.0169083e-05
-0.0017230625
-3.2061662e-05
-0.0017186496
-3.373781e-05
-0.0017140577
-3.5197792e-05
-0.0017093164
-3.6445669e-05
-0.0017044543
-3.7488332e-05
-0.0016994983
-3.8335028e-05
-0.0016944735
-3.8995907e-05
-0.0016894036
-3.9480951e-05
-0.0016843104
-3.9797708e-05
-0.0016792151
-3.9949468e-05
-0.0016741389
-3.9932574e-05
-0.001669104
-3.97344e-05
-0.001664135
-3.9331904e-05
-0.0016592602
-3.8692445e-05
-0.0016545124
-3.7777059e-05
-0.001649929
-3.6547813e-05
-0.0016455502
-3.4977986e-05
-0.001641417
-3.3063894e-05
-0.0016375667
-3.083471e-05
-0.0016340289
-2.835653e-05
-0.0016308211
-2.5727112e-05
-0.0016279471
-2.3061397e-05
-0.0016253972
-2.047052e-05
-0.001623151
-1.8041086e-05
-0.0016211825
-1.5821348e-05
-0.0016194644
-1.3818788e-05
-0.0016179727
-1.2008173e-05
-0.0016166886
-1.0346194e-05
-0.0016155992
-8.7855872e-06
-0.0016146965
-7.285639e-06
-0.0016139764
-5.8157499e-06
-0.0016134373
-4.3563709e-06
-0.0016130793
-2.8947982e-06
-1.4253719e-06
-0.0016144618
1.0683661e-06
-0.0016145833
1.1591819e-06
-0.0016147137
1.2427451e-06
-0.0016148546
1.3438222e-06
-0.0016150062
1.4450754e-06
-0.0016151698
1.5588873e-06
-0.001615346
1.6779064e-06
-0.0016155358
1.8080278e-06
-0.0016157403
1.946349e-06
-0.0016159605
2.0959218e-06
-0.0016161976
2.2558677e-06
-0.0016164529
2.4280232e-06
-0.0016167278
2.6124559e-06
-0.0016170236
2.810514e-06
-0.0016173419
3.022732e-06
-0.0016176843
3.250294e-06
-0.0016180526
3.493987e-06
-0.0016184487
3.754974e-06
-0.0016188746
4.0341947e-06
-0.0016193322
4.3328504e-06
-0.001619824
4.6519813e-06
-0.0016203522
4.9928446e-06
-0.0016209193
5.3565455e-06
-0.0016215281
5.7443909e-06
-0.0016221813
6.1575159e-06
-0.0016228819
6.5972536e-06
-0.001623633
7.0647265e-06
-0.0016244377
7.5612537e-06
-0.0016252997
8.0878898e-06
-0.0016262223
8.6458817e-06
-0.0016272093
9.2361432e-06
-0.0016282644
9.8597304e-06
-0.0016293918
1.0517486e-05
-0.0016305954
1.1209966e-05
-0.0016318794
1.1937846e-05
-0.001633248
1.2701227e-05
-0.0016347056
1.3500339e-05
-0.0016362565
1.4334709e-05
-0.001637905
1.5203958e-05
-0.0016396553
1.610686e-05
-0.0016415116
1.7042243e-05
-0.0016434781
1.8007953e-05
-0.0016455584
1.9001717e-05
-0.0016477562
2.0020418e-05
-0.0016500746
2.1060383e-05
-0.0016525165
2.2117227e-05
-0.0016550841
2.3185808e-05
-0.0016577792
2.4260231e-05
-0.0016606026