/*--------------------------------*- C++ -*----------------------------------*\
| =========                 |                                                 |
| \\      /  F ield         | foam-extend: Open Source CFD                    |
|  \\    /   O peration     | Version:     4.1                                |
|   \\  /    A nd           | Web:         http://www.foam-extend.org         |
|    \\/     M anipulation  |                                                 |
\*---------------------------------------------------------------------------*/
FoamFile
{
    version     2.0;
    format      ascii;
    class       volScalarField;
    location    "0.3";
    object      rAU;
}
// * * * * * * * * * * * * * * * * * * * * * * * * * * * * * * * * * * * * * //

dimensions      [0 0 1 0 0 0 0];

internalField   nonuniform List<scalar> 
16796
(
0.0004879257
0.00048751854
0.00048751763
0.00048751674
0.00048751569
0.00048751464
0.00048751343
0.00048751221
0.00048751081
0.00048750939
0.00048750777
0.00048750612
0.00048750425
0.00048750234
0.00048750019
0.00048749797
0.00048749549
0.00048749292
0.00048749006
0.00048748709
0.00048748381
0.00048748039
0.00048747662
0.00048747267
0.00048746835
0.00048746382
0.00048745888
0.00048745368
0.00048744804
0.0004874421
0.00048743567
0.00048742886
0.00048742164
0.00048741387
0.00048740569
0.0004873969
0.00048738767
0.00048737778
0.0004873674
0.00048735633
0.00048734472
0.00048733239
0.00048731945
0.00048730582
0.00048729151
0.00048727651
0.00048726081
0.00048724443
0.00048722734
0.00048720958
0.00048719115
0.00048717208
0.00048715239
0.00048713213
0.00048711133
0.00048709005
0.00048706835
0.0004870463
0.00048702398
0.00048700148
0.00048697889
0.00048695633
0.00048693391
0.00048691176
0.00048689001
0.00048686881
0.00048684832
0.00048682868
0.00048681005
0.00048679261
0.00048677652
0.00048676192
0.00048674898
0.00048673783
0.0004867286
0.00048672141
0.00048671635
0.0004867135
0.00048671292
0.00048671292
0.00048671464
0.00048671869
0.00048672505
0.0004867337
0.00048674458
0.00048675762
0.00048677273
0.00048678981
0.00048680874
0.00048682937
0.00048685159
0.00048687522
0.00048690013
0.00048692616
0.00048695316
0.00048698099
0.00048700951
0.00048703859
0.00048706809
0.00048709789
0.00048712787
0.0004871579
0.00048718785
0.00048721756
0.00048724684
0.00048727547
0.00048730321
0.0004873298
0.00048735496
0.00048737845
0.00048740006
0.00048741968
0.00048743727
0.00048745289
0.00048746665
0.00048747873
0.00048748928
0.00048749846
0.00048750636
0.00048751308
0.00048751865
0.0004875231
0.00048752644
0.00048712292
0.00048762013
0.00048721341
0.00048721245
0.00048721149
0.00048721037
0.00048720925
0.00048720795
0.00048720665
0.00048720516
0.00048720364
0.00048720192
0.00048720015
0.00048719816
0.00048719612
0.00048719383
0.00048719146
0.00048718882
0.00048718608
0.00048718304
0.00048717987
0.00048717638
0.00048717273
0.00048716873
0.00048716453
0.00048715994
0.00048715512
0.00048714987
0.00048714435
0.00048713836
0.00048713206
0.00048712525
0.00048711803
0.00048711039
0.00048710217
0.00048709352
0.00048708424
0.00048707449
0.00048706407
0.00048705313
0.00048704148
0.00048702928
0.00048701634
0.00048700276
0.00048698849
0.00048697352
0.00048695786
0.00048694148
0.00048692442
0.00048690667
0.00048688824
0.00048686917
0.00048684946
0.00048682917
0.00048680834
0.00048678701
0.00048676525
0.00048674312
0.00048672071
0.00048669809
0.00048667539
0.0004866527
0.00048663013
0.00048660782
0.0004865859
0.00048656452
0.00048654383
0.00048652399
0.00048650517
0.00048648752
0.00048647122
0.00048645642
0.00048644327
0.00048643194
0.00048642255
0.0004864152
0.00048641001
0.00048640705
0.00048640638
0.00048640806
0.00048640691
0.00048640631
0.00048640804
0.00048641212
0.00048641854
0.00048642728
0.00048643827
0.00048645144
0.00048646671
0.00048648395
0.00048650305
0.00048652388
0.00048654627
0.00048657009
0.00048659518
0.00048662138
0.00048664854
0.00048667652
0.00048670519
0.00048673439
0.00048676402
0.00048679394
0.00048682405
0.00048685422
0.00048688434
0.00048691423
0.00048694373
0.0004869726
0.00048700058
0.00048702738
0.00048705271
0.00048707628
0.0004870979
0.00048711744
0.00048713488
0.00048715032
0.00048716391
0.00048717582
0.00048718625
0.00048719533
0.00048720318
0.00048720986
0.00048721542
0.00048721987
0.00048681798
0.00048761944
0.00048721267
0.00048721165
0.00048721062
0.00048720943
0.00048720824
0.00048720687
0.00048720548
0.0004872039
0.00048720228
0.00048720046
0.00048719858
0.00048719648
0.0004871943
0.00048719187
0.00048718936
0.00048718656
0.00048718365
0.00048718043
0.00048717707
0.00048717338
0.00048716951
0.00048716527
0.00048716082
0.00048715596
0.00048715086
0.00048714531
0.00048713947
0.00048713314
0.00048712648
0.00048711929
0.00048711167
0.00048710361
0.00048709494
0.00048708582
0.00048707605
0.00048706579
0.00048705483
0.00048704334
0.0004870311
0.0004870183
0.00048700473
0.00048699052
0.00048697559
0.00048695995
0.0004869436
0.00048692654
0.00048690879
0.00048689034
0.00048687122
0.00048685145
0.00048683108
0.00048681014
0.00048678868
0.00048676677
0.00048674446
0.00048672184
0.000486699
0.00048667602
0.00048665304
0.00048663015
0.00048660749
0.0004865852
0.00048656342
0.00048654231
0.00048652203
0.00048650276
0.00048648465
0.00048646789
0.00048645263
0.00048643905
0.00048642728
0.00048641749
0.00048640978
0.00048640426
0.00048640102
0.00048640013
0.00048640163
0.00048640554
0.00048640328
0.00048640033
0.00048639974
0.00048640155
0.00048640578
0.0004864124
0.00048642139
0.00048643268
0.0004864462
0.00048646184
0.00048647948
0.00048649901
0.00048652026
0.00048654309
0.00048656733
0.00048659283
0.00048661943
0.00048664697
0.00048667531
0.00048670431
0.00048673384
0.00048676378
0.00048679404
0.00048682451
0.00048685509
0.00048688566
0.00048691606
0.0004869461
0.00048697551
0.00048700398
0.00048703118
0.00048705675
0.00048708038
0.00048710189
0.00048712118
0.0004871383
0.00048715341
0.0004871667
0.00048717838
0.00048718864
0.00048719763
0.00048720543
0.0004872121
0.00048721766
0.00048681689
0.00048761877
0.00048721195
0.00048721087
0.00048720978
0.00048720854
0.00048720727
0.00048720583
0.00048720436
0.00048720269
0.00048720098
0.00048719906
0.00048719707
0.00048719485
0.00048719256
0.00048719
0.00048718734
0.00048718439
0.00048718132
0.00048717793
0.00048717438
0.00048717049
0.00048716641
0.00048716194
0.00048715725
0.00048715214
0.00048714676
0.00048714092
0.00048713477
0.00048712811
0.0004871211
0.00048711354
0.00048710553
0.00048709706
0.00048708795
0.00048707838
0.00048706813
0.00048705737
0.00048704588
0.00048703384
0.00048702103
0.00048700763
0.00048699346
0.00048697861
0.00048696303
0.00048694672
0.00048692969
0.00048691193
0.00048689348
0.00048687432
0.0004868545
0.00048683403
0.00048681297
0.00048679136
0.00048676925
0.00048674672
0.00048672383
0.00048670068
0.00048667736
0.00048665397
0.00048663065
0.00048660751
0.0004865847
0.00048656236
0.00048654065
0.00048651975
0.00048649981
0.00048648102
0.00048646357
0.00048644761
0.00048643334
0.0004864209
0.00048641045
0.00048640214
0.00048639607
0.00048639234
0.00048639103
0.00048639218
0.00048639583
0.00048640198
0.00048639865
0.00048639333
0.00048639041
0.00048638995
0.00048639198
0.0004863965
0.00048640351
0.00048641296
0.00048642477
0.00048643886
0.00048645511
0.0004864734
0.00048649357
0.00048651547
0.00048653894
0.00048656381
0.00048658991
0.00048661707
0.00048664515
0.000486674
0.00048670349
0.0004867335
0.00048676395
0.00048679474
0.00048682582
0.00048685708
0.00048688841
0.00048691962
0.00048695047
0.00048698062
0.00048700969
0.00048703725
0.0004870629
0.00048708637
0.0004871075
0.0004871263
0.00048714293
0.00048715759
0.00048717053
0.00048718197
0.0004871921
0.00048720101
0.00048720878
0.00048721545
0.00048681581
0.00048761814
0.00048721126
0.00048721014
0.00048720899
0.00048720768
0.00048720635
0.00048720483
0.00048720329
0.00048720154
0.00048719974
0.00048719772
0.00048719564
0.00048719331
0.00048719089
0.00048718821
0.00048718541
0.00048718232
0.00048717909
0.00048717553
0.00048717181
0.00048716772
0.00048716344
0.00048715875
0.00048715383
0.00048714847
0.00048714283
0.00048713671
0.00048713026
0.00048712328
0.00048711594
0.00048710802
0.00048709963
0.00048709075
0.00048708123
0.00048707121
0.00048706049
0.00048704923
0.00048703723
0.00048702465
0.00048701128
0.0004869973
0.00048698251
0.00048696703
0.0004869508
0.00048693383
0.00048691611
0.00048689766
0.00048687849
0.00048685862
0.00048683808
0.0004868169
0.00048679513
0.00048677281
0.00048675003
0.00048672684
0.00048670333
0.0004866796
0.00048665575
0.0004866319
0.00048660818
0.00048658473
0.0004865617
0.00048653924
0.00048651754
0.00048649676
0.00048647708
0.00048645872
0.00048644183
0.00048642662
0.00048641325
0.0004864019
0.00048639271
0.00048638582
0.00048638134
0.00048637936
0.00048637995
0.00048638314
0.00048638893
0.00048639733
0.00048639302
0.00048638529
0.00048638001
0.00048637725
0.00048637708
0.00048637952
0.00048638457
0.0004863922
0.00048640235
0.00048641493
0.00048642984
0.00048644696
0.00048646612
0.00048648717
0.00048650994
0.00048653425
0.00048655993
0.00048658679
0.00048661468
0.00048664344
0.00048667294
0.00048670308
0.00048673376
0.00048676492
0.00048679653
0.00048682851
0.00048686078
0.00048689319
0.00048692549
0.00048695732
0.00048698826
0.0004870178
0.00048704547
0.00048707089
0.00048709387
0.00048711435
0.00048713249
0.00048714851
0.0004871627
0.00048717533
0.00048718658
0.0004871966
0.00048720548
0.00048721325
0.00048681473
0.00048761754
0.00048721061
0.00048720944
0.00048720824
0.00048720687
0.00048720548
0.00048720389
0.00048720227
0.00048720044
0.00048719856
0.00048719645
0.00048719427
0.00048719184
0.00048718931
0.0004871865
0.00048718358
0.00048718035
0.00048717697
0.00048717325
0.00048716936
0.00048716509
0.00048716061
0.00048715572
0.00048715057
0.00048714497
0.00048713907
0.00048713268
0.00048712594
0.00048711866
0.00048711099
0.00048710272
0.00048709397
0.0004870847
0.00048707477
0.00048706431
0.00048705314
0.0004870414
0.00048702889
0.00048701578
0.00048700186
0.00048698729
0.0004869719
0.00048695579
0.00048693892
0.00048692128
0.00048690287
0.00048688371
0.00048686383
0.00048684323
0.00048682195
0.00048680004
0.00048677753
0.00048675448
0.00048673099
0.00048670711
0.00048668293
0.00048665858
0.00048663415
0.00048660977
0.0004865856
0.00048656176
0.00048653844
0.0004865158
0.00048649402
0.00048647329
0.0004864538
0.00048643577
0.00048641938
0.00048640483
0.0004863923
0.00048638196
0.00048637397
0.00048636846
0.00048636553
0.00048636527
0.00048636773
0.00048637294
0.00048638089
0.00048639156
0.00048638636
0.00048637618
0.0004863685
0.00048636343
0.00048636105
0.0004863614
0.00048636451
0.00048637034
0.00048637887
0.00048639
0.00048640362
0.00048641963
0.00048643785
0.00048645813
0.00048648028
0.00048650411
0.00048652944
0.00048655607
0.00048658385
0.0004866126
0.00048664218
0.00048667249
0.00048670346
0.00048673504
0.00048676722
0.00048679995
0.00048683319
0.0004868668
0.00048690055
0.00048693407
0.00048696688
0.0004869984
0.00048702809
0.00048705547
0.00048708027
0.00048710243
0.00048712208
0.00048713947
0.00048715491
0.0004871687
0.00048718108
0.0004871922
0.00048720218
0.00048721106
0.00048681365
0.00048761698
0.00048721
0.00048720879
0.00048720753
0.00048720611
0.00048720465
0.000487203
0.00048720132
0.00048719941
0.00048719745
0.00048719525
0.00048719298
0.00048719045
0.00048718781
0.00048718489
0.00048718184
0.00048717848
0.00048717496
0.00048717109
0.00048716704
0.0004871626
0.00048715793
0.00048715283
0.00048714747
0.00048714165
0.00048713551
0.00048712885
0.00048712184
0.00048711426
0.00048710627
0.00048709767
0.00048708856
0.00048707892
0.00048706858
0.00048705771
0.00048704609
0.00048703387
0.00048702087
0.00048700723
0.00048699277
0.00048697763
0.00048696164
0.00048694491
0.00048692739
0.00048690908
0.00048688998
0.00048687011
0.0004868495
0.00048682816
0.00048680613
0.00048678345
0.00048676018
0.00048673638
0.00048671213
0.00048668751
0.00048666263
0.00048663759
0.00048661253
0.00048658756
0.00048656286
0.00048653858
0.00048651489
0.00048649197
0.00048647004
0.00048644927
0.00048642989
0.00048641211
0.00048639614
0.00048638217
0.0004863704
0.00048636101
0.00048635415
0.00048634997
0.00048634855
0.00048634998
0.00048635431
0.00048636155
0.00048637166
0.00048638462
0.00048637867
0.00048636598
0.00048635586
0.00048634844
0.00048634382
0.00048634208
0.00048634324
0.00048634731
0.00048635424
0.00048636396
0.00048637637
0.00048639133
0.00048640869
0.00048642827
0.00048644988
0.00048647333
0.00048649839
0.00048652489
0.00048655263
0.00048658144
0.00048661117
0.00048664173
0.00048667305
0.00048670509
0.00048673788
0.0004867714
0.00048680563
0.00048684047
0.00048687569
0.0004869109
0.00048694558
0.00048697908
0.00048701077
0.0004870401
0.00048706674
0.00048709056
0.00048711172
0.00048713046
0.00048714715
0.00048716211
0.00048717561
0.00048718783
0.0004871989
0.00048720888
0.00048681257
0.00048761645
0.00048720942
0.00048720817
0.00048720686
0.00048720539
0.00048720387
0.00048720217
0.00048720041
0.00048719844
0.0004871964
0.00048719413
0.00048719177
0.00048718914
0.0004871864
0.00048718337
0.00048718021
0.00048717672
0.00048717307
0.00048716906
0.00048716485
0.00048716024
0.00048715539
0.00048715011
0.00048714455
0.0004871385
0.00048713213
0.00048712522
0.00048711794
0.00048711008
0.00048710179
0.00048709287
0.00048708341
0.00048707341
0.00048706268
0.0004870514
0.00048703934
0.00048702667
0.00048701318
0.00048699903
0.00048698402
0.00048696832
0.00048695174
0.00048693439
0.00048691622
0.00048689723
0.00048687744
0.00048685686
0.0004868355
0.00048681341
0.0004867906
0.00048676714
0.00048674307
0.00048671848
0.00048669344
0.00048666804
0.0004866424
0.00048661662
0.00048659086
0.00048656524
0.00048653994
0.00048651513
0.00048649099
0.00048646772
0.00048644554
0.00048642465
0.00048640528
0.00048638767
0.00048637202
0.00048635855
0.00048634747
0.00048633896
0.00048633318
0.00048633027
0.00048633033
0.00048633343
0.00048633961
0.00048634888
0.00048636119
0.00048637648
0.00048636993
0.00048635465
0.00048634203
0.00048633222
0.00048632534
0.00048632149
0.00048632072
0.00048632303
0.0004863284
0.00048633676
0.00048634799
0.00048636199
0.00048637856
0.00048639753
0.00048641869
0.00048644184
0.00048646674
0.00048649318
0.00048652097
0.00048654993
0.0004865799
0.00048661078
0.0004866425
0.00048667507
0.00048670851
0.00048674285
0.00048677811
0.0004868142
0.0004868509
0.0004868878
0.00048692436
0.00048695984
0.00048699353
0.00048702481
0.00048705326
0.00048707875
0.0004871014
0.0004871215
0.00048713943
0.00048715555
0.00048717017
0.00048718348
0.00048719564
0.00048720671
0.0004868115
0.00048761596
0.00048720889
0.0004872076
0.00048720624
0.00048720472
0.00048720315
0.00048720139
0.00048719957
0.00048719754
0.00048719543
0.00048719307
0.00048719063
0.00048718792
0.00048718509
0.00048718196
0.00048717868
0.00048717508
0.0004871713
0.00048716715
0.00048716279
0.00048715803
0.00048715302
0.00048714755
0.00048714179
0.00048713554
0.00048712895
0.00048712181
0.00048711427
0.00048710614
0.00048709756
0.00048708832
0.00048707854
0.00048706818
0.00048705708
0.00048704539
0.00048703291
0.00048701979
0.00048700583
0.00048699117
0.00048697564
0.00048695937
0.0004869422
0.00048692424
0.00048690542
0.00048688576
0.00048686527
0.00048684396
0.00048682186
0.00048679898
0.00048677538
0.00048675111
0.00048672622
0.00048670079
0.00048667492
0.0004866487
0.00048662224
0.00048659567
0.00048656913
0.00048654278
0.00048651681
0.00048649138
0.00048646671
0.000486443
0.00048642047
0.00048639937
0.00048637992
0.00048636237
0.00048634696
0.00048633391
0.00048632343
0.00048631573
0.00048631096
0.00048630928
0.00048631078
0.00048631553
0.00048632356
0.00048633487
0.0004863494
0.00048636706
0.00048636011
0.00048634217
0.00048632697
0.00048631471
0.00048630553
0.00048629955
0.00048629684
0.00048629741
0.00048630125
0.00048630829
0.00048631842
0.00048633151
0.00048634738
0.00048636583
0.00048638664
0.00048640959
0.00048643442
0.00048646091
0.00048648886
0.00048651805
0.00048654834
0.00048657962
0.00048661183
0.00048664497
0.00048667912
0.00048671433
0.00048675064
0.000486788
0.0004868262
0.00048686481
0.00048690324
0.00048694069
0.00048697638
0.00048700959
0.00048703986
0.00048706701
0.00048709115
0.0004871126
0.00048713176
0.00048714903
0.00048716476
0.00048717916
0.00048719239
0.00048720454
0.00048681044
0.0004876155
0.00048720839
0.00048720707
0.00048720566
0.0004872041
0.00048720248
0.00048720067
0.0004871988
0.0004871967
0.00048719453
0.0004871921
0.00048718958
0.00048718678
0.00048718387
0.00048718064
0.00048717727
0.00048717355
0.00048716965
0.00048716538
0.00048716088
0.00048715597
0.0004871508
0.00048714517
0.00048713923
0.00048713278
0.00048712597
0.00048711861
0.00048711083
0.00048710244
0.00048709358
0.00048708405
0.00048707394
0.00048706325
0.00048705178
0.00048703971
0.00048702682
0.00048701326
0.00048699883
0.00048698369
0.00048696762
0.00048695081
0.00048693306
0.00048691448
0.00048689502
0.00048687468
0.00048685348
0.00048683143
0.00048680856
0.00048678489
0.00048676048
0.00048673536
0.00048670962
0.00048668332
0.00048665657
0.00048662947
0.00048660213
0.0004865747
0.00048654732
0.00048652017
0.00048649344
0.00048646731
0.000486442
0.00048641775
0.00048639478
0.00048637336
0.00048635372
0.00048633615
0.00048632087
0.00048630814
0.00048629819
0.00048629122
0.00048628741
0.0004862869
0.00048628981
0.00048629619
0.00048630608
0.00048631945
0.00048633624
0.00048635633
0.00048634919
0.00048632849
0.00048631064
0.00048629586
0.00048628434
0.0004862762
0.00048627153
0.00048627037
0.00048627271
0.00048627847
0.00048628756
0.00048629983
0.00048631508
0.00048633311
0.00048635367
0.00048637652
0.0004864014
0.00048642805
0.00048645625
0.00048648579
0.00048651649
0.00048654825
0.00048658102
0.00048661481
0.00048664973
0.00048668585
0.00048672325
0.00048676191
0.00048680161
0.00048684194
0.00048688223
0.00048692166
0.00048695933
0.00048699447
0.00048702655
0.00048705535
0.00048708098
0.00048710376
0.00048712414
0.00048714256
0.00048715939
0.00048717486
0.00048718917
0.0004872024
0.00048680938
0.00048761509
0.00048720794
0.00048720659
0.00048720514
0.00048720354
0.00048720187
0.00048720001
0.00048719809
0.00048719593
0.0004871937
0.00048719121
0.00048718862
0.00048718575
0.00048718275
0.00048717943
0.00048717596
0.00048717215
0.00048716814
0.00048716374
0.00048715912
0.00048715407
0.00048714875
0.00048714296
0.00048713685
0.00048713022
0.00048712321
0.00048711563
0.00048710763
0.00048709899
0.00048708986
0.00048708005
0.00048706964
0.00048705862
0.00048704681
0.00048703436
0.00048702107
0.00048700709
0.0004869922
0.00048697657
0.00048696
0.00048694264
0.00048692431
0.00048690512
0.00048688501
0.000486864
0.00048684209
0.00048681929
0.00048679564
0.00048677116
0.0004867459
0.00048671992
0.00048669328
0.00048666607
0.0004866384
0.00048661035
0.00048658208
0.00048655372
0.00048652543
0.00048649739
0.00048646981
0.00048644288
0.00048641684
0.00048639194
0.00048636843
0.00048634657
0.00048632664
0.00048630893
0.00048629369
0.00048628118
0.00048627166
0.00048626535
0.00048626242
0.00048626304
0.00048626732
0.00048627532
0.00048628707
0.00048630253
0.00048632162
0.00048634421
0.00048633714
0.00048631356
0.00048629296
0.00048627559
0.00048626166
0.00048625132
0.00048624468
0.0004862418
0.00048624266
0.0004862472
0.00048625531
0.00048626683
0.00048628157
0.00048629928
0.0004863197
0.00048634258
0.00048636762
0.00048639455
0.00048642313
0.00048645311
0.00048648432
0.00048651666
0.00048655007
0.0004865846
0.00048662034
0.00048665742
0.00048669595
0.00048673593
0.00048677716
0.0004868192
0.00048686137
0.00048690276
0.00048694241
0.00048697947
0.00048701334
0.00048704378
0.00048707088
0.00048709499
0.00048711659
0.00048713615
0.00048715406
0.00048717061
0.00048718598
0.00048720027
0.00048680833
0.00048761471
0.00048720754
0.00048720615
0.00048720466
0.00048720303
0.00048720132
0.00048719942
0.00048719744
0.00048719524
0.00048719295
0.0004871904
0.00048718775
0.0004871848
0.00048718173
0.00048717834
0.00048717478
0.00048717087
0.00048716676
0.00048716225
0.00048715751
0.00048715234
0.00048714688
0.00048714094
0.00048713467
0.00048712786
0.00048712067
0.00048711289
0.00048710467
0.0004870958
0.00048708642
0.00048707634
0.00048706564
0.00048705431
0.00048704216
0.00048702936
0.00048701568
0.00048700128
0.00048698596
0.00048696986
0.00048695278
0.00048693488
0.00048691598
0.00048689618
0.00048687543
0.00048685373
0.0004868311
0.00048680754
0.0004867831
0.00048675779
0.00048673166
0.00048670478
0.00048667722
0.00048664905
0.0004866204
0.00048659136
0.00048656208
0.00048653272
0.00048650343
0.00048647441
0.00048644589
0.00048641806
0.00048639119
0.00048636552
0.00048634135
0.00048631894
0.0004862986
0.00048628063
0.00048626531
0.00048625293
0.00048624374
0.000486238
0.00048623589
0.00048623759
0.00048624321
0.00048625282
0.00048626643
0.00048628402
0.00048630546
0.00048633064
0.00048632393
0.00048629735
0.00048627389
0.00048625383
0.00048623742
0.00048622484
0.00048621621
0.0004862116
0.00048621101
0.00048621438
0.00048622157
0.00048623244
0.00048624676
0.00048626426
0.00048628468
0.00048630771
0.00048633304
0.00048636038
0.00048638945
0.00048642
0.00048645185
0.00048648486
0.00048651901
0.00048655434
0.00048659098
0.00048662908
0.00048666878
0.0004867101
0.00048675287
0.00048679664
0.00048684068
0.00048688402
0.00048692564
0.00048696461
0.00048700026
0.00048703232
0.00048706088
0.00048708631
0.00048710912
0.0004871298
0.00048714879
0.0004871664
0.00048718282
0.00048719816
0.00048680729
0.00048761438
0.00048720717
0.00048720576
0.00048720424
0.00048720257
0.00048720083
0.00048719888
0.00048719687
0.00048719462
0.00048719228
0.00048718967
0.00048718696
0.00048718396
0.00048718081
0.00048717735
0.00048717371
0.00048716971
0.00048716551
0.00048716091
0.00048715606
0.00048715076
0.00048714518
0.0004871391
0.00048713268
0.00048712571
0.00048711835
0.00048711038
0.00048710196
0.00048709287
0.00048708326
0.00048707292
0.00048706195
0.00048705032
0.00048703785
0.0004870247
0.00048701066
0.00048699586
0.0004869801
0.00048696354
0.00048694597
0.00048692754
0.00048690807
0.00048688767
0.00048686627
0.0004868439
0.00048682054
0.00048679621
0.00048677096
0.0004867448
0.00048671778
0.00048668997
0.00048666144
0.00048663227
0.00048660258
0.00048657249
0.00048654214
0.00048651169
0.00048648133
0.00048645124
0.00048642166
0.00048639283
0.000486365
0.00048633846
0.00048631349
0.00048629041
0.00048626953
0.00048625118
0.00048623566
0.00048622329
0.00048621434
0.00048620907
0.00048620771
0.00048621043
0.00048621735
0.00048622856
0.00048624405
0.0004862638
0.00048628767
0.0004863155
0.00048630949
0.00048627977
0.00048625332
0.00048623047
0.0004862115
0.00048619662
0.00048618597
0.00048617964
0.00048617763
0.00048617987
0.00048618623
0.00048619654
0.00048621055
0.00048622797
0.00048624851
0.00048627184
0.00048629761
0.00048632549
0.0004863552
0.00048638645
0.00048641904
0.00048645285
0.00048648783
0.00048652405
0.00048656165
0.00048660083
0.00048664174
0.00048668445
0.00048672878
0.00048677427
0.00048682018
0.00048686547
0.00048690904
0.00048694989
0.00048698731
0.00048702098
0.00048705099
0.00048707773
0.00048710172
0.00048712352
0.00048714358
0.00048716223
0.00048717969
0.00048719608
0.00048680626
0.00048761409
0.00048720685
0.00048720542
0.00048720387
0.00048720217
0.00048720039
0.00048719842
0.00048719636
0.00048719407
0.00048719169
0.00048718903
0.00048718627
0.00048718321
0.00048718001
0.00048717647
0.00048717276
0.00048716869
0.0004871644
0.00048715971
0.00048715476
0.00048714936
0.00048714366
0.00048713746
0.0004871309
0.00048712379
0.00048711627
0.00048710813
0.00048709951
0.00048709022
0.00048708039
0.00048706981
0.00048705858
0.00048704666
0.0004870339
0.00048702042
0.00048700601
0.00048699083
0.00048697466
0.00048695765
0.00048693959
0.00048692064
0.00048690062
0.00048687962
0.00048685758
0.00048683451
0.00048681043
0.00048678532
0.00048675925
0.00048673221
0.00048670428
0.0004866755
0.00048664596
0.00048661574
0.00048658497
0.00048655376
0.00048652226
0.00048649065
0.00048645911
0.00048642785
0.00048639712
0.00048636716
0.00048633825
0.0004863107
0.00048628481
0.00048626092
0.00048623936
0.00048622049
0.00048620465
0.00048619215
0.00048618333
0.00048617845
0.00048617775
0.00048618143
0.00048618963
0.00048620242
0.00048621982
0.00048624177
0.00048626814
0.00048629875
0.00048629381
0.00048626078
0.0004862312
0.00048620544
0.00048618381
0.00048616656
0.00048615386
0.0004861458
0.00048614239
0.00048614356
0.00048614917
0.00048615903
0.00048617285
0.00048619034
0.00048621114
0.00048623491
0.00048626127
0.00048628986
0.00048632035
0.00048635244
0.00048638592
0.00048642063
0.00048645656
0.00048649376
0.00048653241
0.00048657272
0.00048661489
0.000486659
0.00048670491
0.00048675214
0.0004867999
0.00048684713
0.00048689264
0.00048693536
0.00048697453
0.00048700979
0.00048704124
0.00048706926
0.00048709443
0.00048711733
0.00048713844
0.00048715812
0.0004871766
0.00048719402
0.00048680524
0.00048761384
0.00048720658
0.00048720513
0.00048720355
0.00048720183
0.00048720002
0.00048719802
0.00048719593
0.0004871936
0.00048719118
0.00048718848
0.00048718567
0.00048718256
0.00048717931
0.00048717572
0.00048717194
0.0004871678
0.00048716344
0.00048715867
0.00048715363
0.00048714814
0.00048714233
0.00048713601
0.00048712934
0.00048712209
0.00048711442
0.00048710612
0.00048709733
0.00048708785
0.00048707782
0.00048706701
0.00048705554
0.00048704336
0.0004870303
0.00048701651
0.00048700177
0.00048698621
0.00048696964
0.0004869522
0.00048693367
0.00048691421
0.00048689363
0.00048687204
0.00048684936
0.00048682561
0.00048680078
0.0004867749
0.00048674798
0.00048672005
0.00048669117
0.0004866614
0.00048663081
0.00048659949
0.00048656757
0.00048653517
0.00048650246
0.00048646959
0.00048643678
0.00048640425
0.00048637225
0.00048634104
0.00048631093
0.00048628222
0.00048625527
0.00048623042
0.00048620803
0.0004861885
0.00048617219
0.00048615945
0.00048615062
0.00048614602
0.00048614589
0.00048615048
0.00048615991
0.00048617427
0.00048619359
0.0004862178
0.00048624675
0.00048628023
0.00048627681
0.00048624028
0.0004862074
0.00048617859
0.0004861542
0.00048613451
0.00048611972
0.00048610993
0.00048610515
0.00048610531
0.00048611026
0.00048611977
0.00048613355
0.00048615125
0.00048617249
0.00048619687
0.000486224
0.00048625345
0.00048628489
0.00048631798
0.00048635248
0.00048638823
0.00048642521
0.00048646349
0.00048650327
0.00048654478
0.00048658826
0.00048663381
0.00048668131
0.00048673028
0.0004867799
0.00048682904
0.00048687647
0.00048692104
0.00048696193
0.00048699876
0.00048703162
0.00048706092
0.00048708725
0.00048711123
0.00048713338
0.00048715407
0.00048717355
0.00048719198
0.00048680424
0.00048761364
0.00048720636
0.00048720489
0.00048720329
0.00048720155
0.00048719972
0.00048719768
0.00048719557
0.00048719321
0.00048719075
0.00048718803
0.00048718518
0.00048718202
0.00048717872
0.00048717508
0.00048717125
0.00048716705
0.00048716263
0.00048715778
0.00048715267
0.00048714709
0.00048714119
0.00048713477
0.00048712799
0.00048712062
0.00048711282
0.00048710437
0.00048709543
0.00048708578
0.00048707555
0.00048706454
0.00048705284
0.00048704041
0.00048702709
0.000487013
0.00048699793
0.00048698202
0.00048696507
0.0004869472
0.00048692821
0.00048690825
0.00048688714
0.00048686495
0.00048684164
0.0004868172
0.00048679164
0.00048676495
0.00048673718
0.00048670834
0.00048667849
0.00048664768
0.000486616
0.00048658353
0.00048655041
0.00048651676
0.00048648274
0.00048644853
0.00048641435
0.00048638043
0.00048634704
0.00048631445
0.00048628298
0.00048625298
0.0004862248
0.00048619883
0.00048617546
0.00048615511
0.00048613816
0.00048612503
0.00048611607
0.00048611163
0.00048611199
0.0004861174
0.00048612802
0.00048614396
0.00048616522
0.00048619175
0.00048622338
0.00048625988
0.00048625845
0.00048621822
0.00048618186
0.00048614985
0.00048612257
0.00048610036
0.00048608342
0.00048607188
0.00048606576
0.00048606498
0.00048606936
0.00048607866
0.00048609254
0.00048611062
0.00048613247
0.00048615766
0.00048618573
0.00048621624
0.0004862488
0.00048628305
0.00048631873
0.00048635567
0.00048639383
0.00048643329
0.00048647428
0.00048651706
0.0004865619
0.00048660893
0.00048665803
0.00048670873
0.0004867602
0.00048681124
0.00048686056
0.00048690696
0.00048694955
0.00048698793
0.00048702218
0.00048705273
0.0004870802
0.00048710525
0.00048712841
0.00048715009
0.00048717056
0.00048718999
0.00048680325
0.00048761347
0.00048720618
0.0004872047
0.00048720308
0.00048720132
0.00048719947
0.00048719742
0.00048719528
0.0004871929
0.00048719041
0.00048718766
0.00048718477
0.00048718159
0.00048717824
0.00048717456
0.00048717069
0.00048716644
0.00048716196
0.00048715705
0.00048715187
0.00048714622
0.00048714024
0.00048713374
0.00048712685
0.00048711938
0.00048711146
0.00048710289
0.0004870938
0.00048708399
0.0004870736
0.0004870624
0.00048705049
0.00048703783
0.00048702425
0.00048700988
0.00048699451
0.00048697827
0.00048696094
0.00048694267
0.00048692324
0.00048690279
0.00048688115
0.00048685838
0.00048683444
0.00048680932
0.00048678301
0.00048675552
0.00048672688
0.00048669711
0.00048666626
0.00048663439
0.00048660157
0.0004865679
0.00048653351
0.00048649853
0.00048646313
0.00048642749
0.00048639184
0.00048635641
0.00048632149
0.00048628738
0.00048625442
0.00048622296
0.00048619339
0.00048616613
0.00048614159
0.00048612025
0.00048610251
0.00048608882
0.00048607958
0.00048607517
0.00048607591
0.00048608207
0.00048609383
0.00048611132
0.00048613455
0.00048616345
0.00048619786
0.00048623752
0.00048623862
0.00048619446
0.00048615441
0.00048611901
0.00048608871
0.00048606387
0.00048604474
0.00048603145
0.00048602403
0.00048602238
0.00048602631
0.00048603554
0.00048604969
0.00048606833
0.000486091
0.0004861172
0.00048614642
0.00048617819
0.00048621207
0.00048624767
0.00048628469
0.00048632296
0.00048636243
0.0004864032
0.00048644549
0.00048648961
0.00048653585
0.00048658439
0.00048663511
0.00048668755
0.00048674085
0.00048679377
0.00048684496