/*--------------------------------*- C++ -*----------------------------------*\
| =========                 |                                                 |
| \\      /  F ield         | foam-extend: Open Source CFD                    |
|  \\    /   O peration     | Version:     4.1                                |
|   \\  /    A nd           | Web:         http://www.foam-extend.org         |
|    \\/     M anipulation  |                                                 |
\*---------------------------------------------------------------------------*/
FoamFile
{
    version     2.0;
    format      ascii;
    class       volVectorField;
    location    "0.3";
    object      U;
}
// * * * * * * * * * * * * * * * * * * * * * * * * * * * * * * * * * * * * * //

dimensions      [0 1 -1 0 0 0 0];

internalField   nonuniform List<vector> 
16796
(
(1.0009908 -2.5373538e-05 0)
(1.0011212 -2.7523686e-05 0)
(1.0011724 -2.9509398e-05 0)
(1.0012871 -3.1903436e-05 0)
(1.001371 -3.430568e-05 0)
(1.0014879 -3.7001406e-05 0)
(1.0015962 -3.9822052e-05 0)
(1.0017245 -4.2902922e-05 0)
(1.0018549 -4.6178126e-05 0)
(1.0020005 -4.9717352e-05 0)
(1.0021536 -5.350138e-05 0)
(1.0023208 -5.7571778e-05 0)
(1.0024991 -6.1931153e-05 0)
(1.002692 -6.6609643e-05 0)
(1.0028987 -7.1620643e-05 0)
(1.0031213 -7.6990269e-05 0)
(1.0033604 -8.2737756e-05 0)
(1.0036174 -8.8888419e-05 0)
(1.0038934 -9.5465009e-05 0)
(1.0041898 -0.00010249331 0)
(1.004508 -0.00010999833 0)
(1.0048494 -0.00011800663 0)
(1.0052156 -0.00012654461 0)
(1.0056082 -0.00013563931 0)
(1.0060289 -0.00014531767 0)
(1.0064796 -0.00015560656 0)
(1.006962 -0.00016653238 0)
(1.0074781 -0.00017812072 0)
(1.0080301 -0.00019039608 0)
(1.0086198 -0.00020338124 0)
(1.0092496 -0.00021709704 0)
(1.0099216 -0.00023156144 0)
(1.0106381 -0.00024678932 0)
(1.0114015 -0.00026279157 0)
(1.012214 -0.00027957422 0)
(1.013078 -0.00029713802 0)
(1.0139958 -0.00031547704 0)
(1.0149698 -0.00033457835 0)
(1.0160022 -0.00035442039 0)
(1.0170952 -0.00037497261 0)
(1.0182508 -0.00039619374 0)
(1.0194711 -0.00041803139 0)
(1.0207578 -0.00044042032 0)
(1.0221124 -0.00046328194 0)
(1.0235362 -0.00048652293 0)
(1.0250302 -0.00051003443 0)
(1.0265951 -0.00053369113 0)
(1.0282311 -0.00055735052 0)
(1.029938 -0.00058085228 0)
(1.031715 -0.00060401785 0)
(1.033561 -0.00062665017 0)
(1.0354739 -0.00064853379 0)
(1.0374512 -0.00066943513 0)
(1.0394897 -0.00068910318 0)
(1.0415852 -0.00070727054 0)
(1.0437328 -0.00072365478 0)
(1.0459268 -0.00073796019 0)
(1.0481605 -0.00074987991 0)
(1.0504263 -0.00075909815 0)
(1.0527155 -0.00076529275 0)
(1.0550187 -0.00076813763 0)
(1.0573253 -0.00076730576 0)
(1.0596238 -0.00076247221 0)
(1.0619017 -0.00075331883 0)
(1.0641456 -0.00073954016 0)
(1.0663411 -0.00072085279 0)
(1.0684731 -0.000697007 0)
(1.0705258 -0.0006678022 0)
(1.0724829 -0.00063310279 0)
(1.0743276 -0.0005928546 0)
(1.0760433 -0.00054709649 0)
(1.0776137 -0.00049596812 0)
(1.0790228 -0.00043970992 0)
(1.0802556 -0.00037865925 0)
(1.0812984 -0.0003132416 0)
(1.0821386 -0.00024396185 0)
(1.0827655 -0.00017139378 0)
(1.0831699 -9.617111e-05 0)
(1.083345 -1.8974716e-05 0)
(1.0832858 5.9477694e-05 0)
(1.0829897 0.00013844389 0)
(1.0824562 0.00021716497 0)
(1.0816873 0.00029488533 0)
(1.0806871 0.00037087294 0)
(1.079462 0.000444436 0)
(1.0780203 0.00051493851 0)
(1.076372 0.0005818126 0)
(1.0745288 0.0006445721 0)
(1.0725039 0.00070281838 0)
(1.0703114 0.00075624957 0)
(1.067966 0.00080465901 0)
(1.0654831 0.00084793858 0)
(1.0628782 0.00088606951 0)
(1.0601668 0.00091911819 0)
(1.0573638 0.00094721842 0)
(1.054484 0.00097055642 0)
(1.0515414 0.00098934033 0)
(1.0485492 0.001003768 0)
(1.0455203 0.0010139772 0)
(1.0424672 0.0010199921 0)
(1.0394025 0.0010216583 0)
(1.0363396 0.0010185884 0)
(1.0332936 0.0010101269 0)
(1.0302818 0.00099537005 0)
(1.0273244 0.00097325912 0)
(1.0244453 0.00094277124 0)
(1.0216708 0.00090319232 0)
(1.019029 0.00085442794 0)
(1.0165468 0.00079726082 0)
(1.0142476 0.00073345097 0)
(1.0121478 0.00066559362 0)
(1.0102554 0.0005967272 0)
(1.0085684 0.00052977848 0)
(1.0070774 0.00046701711 0)
(1.0057667 0.00040969757 0)
(1.0046196 0.00035800149 0)
(1.0036189 0.00031125805 0)
(1.0027525 0.00026832836 0)
(1.0020088 0.00022797861 0)
(1.0013853 0.00018914973 0)
(1.0008731 0.00015105331 0)
(1.0004804 0.0001131859 0)
(1.0001918 7.5231479e-05 0)
(1.0000319 3.7045842e-05 0)
(1.0009883 -7.6050162e-05 0)
(1.0011184 -8.2503911e-05 0)
(1.0011694 -8.8449744e-05 0)
(1.0012839 -9.5630567e-05 0)
(1.0013676 -0.00010282795 0)
(1.0014842 -0.00011091054 0)
(1.0015922 -0.00011936383 0)
(1.0017202 -0.00012859967 0)
(1.0018502 -0.00013841635 0)
(1.0019955 -0.00014902558 0)
(1.0021483 -0.00016036787 0)
(1.0023151 -0.00017256908 0)
(1.0024929 -0.00018563619 0)
(1.0026853 -0.00019966011 0)
(1.0028915 -0.00021468063 0)
(1.0031137 -0.00023077629 0)
(1.0033522 -0.00024800461 0)
(1.0036086 -0.00026644158 0)
(1.003884 -0.00028615535 0)
(1.0041797 -0.00030722327 0)
(1.0044972 -0.00032972034 0)
(1.0048378 -0.00035372616 0)
(1.0052032 -0.00037931995 0)
(1.005595 -0.0004065828 0)
(1.0060148 -0.00043559556 0)
(1.0064645 -0.00046643876 0)
(1.006946 -0.0004991917 0)
(1.0074611 -0.0005339311 0)
(1.008012 -0.00057073056 0)
(1.0086006 -0.00060965846 0)
(1.0092292 -0.00065077739 0)
(1.0099001 -0.00069414142 0)
(1.0106153 -0.00073979531 0)
(1.0113774 -0.000787772 0)
(1.0121886 -0.00083808979 0)
(1.0130513 -0.00089075125 0)
(1.0139678 -0.00094573902 0)
(1.0149405 -0.0010030147 0)
(1.0159716 -0.0010625141 0)
(1.0170633 -0.0011241462 0)
(1.0182178 -0.0011877878 0)
(1.0194369 -0.0012532825 0)
(1.0207225 -0.0013204353 0)
(1.0220762 -0.0013890115 0)
(1.0234992 -0.001458732 0)
(1.0249926 -0.0015292713 0)
(1.026557 -0.0016002545 0)
(1.0281928 -0.0016712553 0)
(1.0298997 -0.001741794 0)
(1.0316771 -0.0018113358 0)
(1.0335236 -0.0018792909 0)
(1.0354376 -0.0019450137 0)
(1.0374164 -0.0020078046 0)
(1.0394567 -0.002066911 0)
(1.0415544 -0.0021215312 0)
(1.0437049 -0.0021708177 0)
(1.0459021 -0.0022138829 0)
(1.0481396 -0.002249805 0)
(1.0504096 -0.0022776348 0)
(1.0527036 -0.0022964033 0)
(1.055012 -0.0023051291 0)
(1.0573242 -0.002302828 0)
(1.0596287 -0.0022885216 0)
(1.0619129 -0.0022612525 0)
(1.0641633 -0.0022201022 0)
(1.0663656 -0.002164219 0)
(1.0685044 -0.0020928525 0)
(1.070564 -0.0020053996 0)
(1.0725279 -0.0019014511 0)
(1.0743794 -0.0017808397 0)
(1.0761017 -0.0016436746 0)
(1.0776784 -0.0014903654 0)
(1.0790936 -0.0013216223 0)
(1.0803321 -0.0011384465 0)
(1.0813801 -0.00094210591 0)
(1.0822249 -0.00073410995 0)
(1.0828556 -0.00051618014 0)
(1.0832632 -0.0002902246 0)
(1.0834405 -5.8303881e-05 0)
(1.0833827 0.00017739627 0)
(1.0830869 0.00041461108 0)
(1.0825529 0.00065105593 0)
(1.0817825 0.00088446282 0)
(1.0807799 0.0011126327 0)
(1.0795516 0.0013334875 0)
(1.0781058 0.0015451172 0)
(1.0764528 0.0017458178 0)
(1.0746044 0.0019341313 0)
(1.0725737 0.0021088637 0)
(1.0703751 0.0022691121 0)
(1.0680234 0.0024142601 0)
(1.0655341 0.0025439876 0)
(1.0629228 0.0026582425 0)
(1.0602052 0.0027572288 0)
(1.0573963 0.0028413522 0)
(1.0545109 0.0029111757 0)
(1.051563 0.0029673278 0)
(1.0485661 0.0030104059 0)
(1.045533 0.0030408279 0)
(1.0424762 0.0030586711 0)
(1.0394084 0.0030634789 0)
(1.0363431 0.0030540973 0)
(1.0332952 0.0030285716 0)
(1.0302819 0.0029842036 0)
(1.0273236 0.002917832 0)
(1.0244439 0.0028264003 0)
(1.0216692 0.0027077725 0)
(1.0190272 0.0025616614 0)
(1.0165451 0.0023903988 0)
(1.0142459 0.0021992383 0)
(1.0121463 0.0019959334 0)
(1.0102538 0.0017895708 0)
(1.0085669 0.0015889117 0)
(1.0070759 0.0014007599 0)
(1.0057653 0.0012288851 0)
(1.0046183 0.0010738459 0)
(1.0036177 0.00093364404 0)
(1.0027515 0.00080487487 0)
(1.002008 0.00068384321 0)
(1.0013847 0.00056737562 0)
(1.0008727 0.00045310531 0)
(1.0004802 0.0003395231 0)
(1.0001918 0.00022567537 0)
(1.0000319 0.00011113312 0)
(1.0009833 -0.00012653848 0)
(1.0011127 -0.00013728287 0)
(1.0011635 -0.0001471722 0)
(1.0012774 -0.00015912454 0)
(1.0013607 -0.00017109904 0)
(1.0014767 -0.00018455062 0)
(1.0015842 -0.00019861672 0)
(1.0017116 -0.00021398705 0)
(1.001841 -0.00023032309 0)
(1.0019855 -0.00024797915 0)
(1.0021376 -0.00026685499 0)
(1.0023036 -0.00028716101 0)
(1.0024807 -0.00030890834 0)
(1.0026721 -0.00033224877 0)
(1.0028774 -0.00035724839 0)
(1.0030985 -0.00038403827 0)
(1.0033359 -0.00041271414 0)
(1.0035912 -0.0004434028 0)
(1.0038653 -0.00047621782 0)
(1.0041597 -0.00051128825 0)
(1.0044758 -0.00054873917 0)
(1.0048149 -0.00058870347 0)
(1.0051788 -0.00063131338 0)
(1.0055689 -0.00067670437 0)
(1.005987 -0.0007250115 0)
(1.0064349 -0.00077636946 0)
(1.0069144 -0.00083091088 0)
(1.0074275 -0.00088876426 0)
(1.0079762 -0.00095005295 0)
(1.0085627 -0.0010148917 0)
(1.0091891 -0.0010833859 0)
(1.0098576 -0.0011556267 0)
(1.0105705 -0.0012316899 0)
(1.0113301 -0.0013116318 0)
(1.0121388 -0.0013954847 0)
(1.0129989 -0.0014832544 0)
(1.0139129 -0.0015749141 0)
(1.0148831 -0.0016704017 0)
(1.0159117 -0.0017696125 0)
(1.017001 -0.001872397 0)
(1.0181531 -0.0019785525 0)
(1.0193701 -0.0020878206 0)
(1.0206537 -0.0021998789 0)
(1.0220055 -0.0023143385 0)
(1.023427 -0.0024307366 0)
(1.0249192 -0.0025485329 0)
(1.0264829 -0.0026671042 0)
(1.0281183 -0.0027857413 0)
(1.0298254 -0.0029036454 0)
(1.0316035 -0.0030199255 0)
(1.0334515 -0.0031335976 0)
(1.0353675 -0.0032435843 0)
(1.0373491 -0.0033487163 0)
(1.0393931 -0.0034477356 0)
(1.0414955 -0.0035393002 0)
(1.0436514 -0.0036219908 0)
(1.0458551 -0.0036943191 0)
(1.0480999 -0.0037547382 0)
(1.0503784 -0.0038016539 0)
(1.0526817 -0.0038334377 0)
(1.0550004 -0.0038484398 0)
(1.0573238 -0.0038450053 0)
(1.0596402 -0.0038214913 0)
(1.061937 -0.0037762922 0)
(1.0642005 -0.0037078708 0)
(1.0664163 -0.003614806 0)
(1.068569 -0.0034958498 0)
(1.0706425 -0.0033500019 0)
(1.0726203 -0.0031765856 0)
(1.0744855 -0.0029753256 0)
(1.0762213 -0.0027464039 0)
(1.077811 -0.002490499 0)
(1.0792386 -0.0022087886 0)
(1.0804886 -0.0019029358 0)
(1.0815471 -0.0015750501 0)
(1.0824012 -0.0012276488 0)
(1.0830398 -0.0008636073 0)
(1.0834537 -0.00048611552 0)
(1.0836355 -9.8621083e-05 0)
(1.0835804 0.00029522224 0)
(1.0832855 0.00069162746 0)
(1.0827503 0.0010867633 0)
(1.0819769 0.0014768252 0)
(1.0809694 0.001858123 0)
(1.0797344 0.0022271681 0)
(1.0782803 0.002580755 0)
(1.0766177 0.0029160228 0)
(1.0747584 0.0032305257 0)
(1.072716 0.003522261 0)
(1.0705049 0.0037897166 0)
(1.0681403 0.0040318616 0)
(1.0656379 0.0042481641 0)
(1.0630136 0.0044385426 0)
(1.0602832 0.0046033463 0)
(1.0574622 0.0047432632 0)
(1.0545652 0.0048592462 0)
(1.0516067 0.0049523582 0)
(1.0486001 0.0050236122 0)
(1.0455583 0.0050737216 0)
(1.0424941 0.0051028333 0)
(1.0394199 0.005110204 0)
(1.0363494 0.0050939286 0)
(1.0332973 0.005050767 0)
(1.0302809 0.0049762405 0)
(1.0273205 0.0048650963 0)
(1.0244393 0.0047122545 0)
(1.0216638 0.0045141633 0)
(1.0190216 0.0042703454 0)
(1.0165394 0.0039846808 0)
(1.0142404 0.0036659108 0)
(1.012141 0.0033269399 0)
(1.0102489 0.0029828941 0)
(1.0085623 0.0026483623 0)
(1.0070716 0.0023346782 0)
(1.0057614 0.0020481262 0)
(1.0046148 0.0017896431 0)
(1.0036147 0.0015559054 0)
(1.002749 0.0013412435 0)
(1.0020061 0.0011395006 0)
(1.0013833 0.0009453878 0)
(1.0008718 0.00075495691 0)
(1.0004797 0.00056569193 0)
(1.0001915 0.0003759967 0)
(1.0000318 0.00018515751 0)
(1.0009759 -0.0001767159 0)
(1.0011043 -0.00019172171 0)
(1.0011547 -0.00020553271 0)
(1.0012678 -0.00022222667 0)
(1.0013505 -0.00023895078 0)
(1.0014656 -0.00025773919 0)
(1.0015723 -0.00027738568 0)
(1.0016988 -0.00029885479 0)
(1.0018273 -0.00032167301 0)
(1.0019707 -0.00034633586 0)
(1.0021217 -0.00037270309 0)
(1.0022866 -0.00040106898 0)
(1.0024624 -0.0004314491 0)
(1.0026525 -0.0004640558 0)
(1.0028563 -0.00049898158 0)
(1.0030759 -0.00053640985 0)
(1.0033117 -0.00057647465 0)
(1.0035652 -0.00061935351 0)
(1.0038375 -0.00066520549 0)
(1.00413 -0.00071421138 0)
(1.004444 -0.0007665465 0)
(1.004781 -0.00082239717 0)
(1.0051425 -0.00088194889 0)
(1.0055302 -0.0009453918 0)
(1.0059457 -0.0010129156 0)
(1.0063909 -0.0010847095 0)
(1.0068676 -0.0011609602 0)
(1.0073778 -0.0012418487 0)
(1.0079235 -0.0013275487 0)
(1.0085068 -0.0014182227 0)
(1.0091299 -0.0015140196 0)
(1.0097949 -0.0016150693 0)
(1.0105044 -0.0017214801 0)
(1.0112604 -0.0018333336 0)
(1.0120655 -0.0019506777 0)
(1.012922 -0.002073524 0)
(1.0138323 -0.0022018384 0)
(1.0147989 -0.002335538 0)
(1.0158239 -0.0024744804 0)
(1.0169098 -0.0026184609 0)
(1.0180586 -0.0027672002 0)
(1.0192725 -0.0029203417 0)
(1.0205532 -0.003077439 0)
(1.0219026 -0.0032379526 0)
(1.023322 -0.0034012396 0)
(1.0248126 -0.003566548 0)
(1.0263752 -0.0037330101 0)
(1.0280102 -0.0038996363 0)
(1.0297176 -0.0040653111 0)
(1.0314969 -0.004228789 0)
(1.033347 -0.0043886929 0)
(1.0352662 -0.0045435131 0)
(1.0372521 -0.0046916099 0)
(1.0393015 -0.0048312168 0)
(1.0414106 -0.0049604472 0)
(1.0435745 -0.0050773036 0)
(1.0457877 -0.0051796885 0)
(1.0480435 -0.0052654194 0)
(1.0503342 -0.0053322441 0)
(1.0526513 -0.0053778597 0)
(1.0549851 -0.0053999312 0)
(1.0573249 -0.0053961159 0)
(1.059659 -0.0053640889 0)
(1.0619745 -0.0053015806 0)
(1.0642576 -0.0052064216 0)
(1.0664937 -0.0050766109 0)
(1.0686672 -0.0049103942 0)
(1.0707619 -0.0047063674 0)
(1.0727609 -0.0044635785 0)
(1.0746472 -0.0041816349 0)
(1.0764037 -0.0038607783 0)
(1.0780133 -0.0035019417 0)
(1.0794598 -0.0031067544 0)
(1.0807275 -0.0026775285 0)
(1.081802 -0.0022172087 0)
(1.0826703 -0.0017293222 0)
(1.0833208 -0.0012179106 0)
(1.0837442 -0.0006874693 0)
(1.0839329 -0.00014286738 0)
(1.0838817 0.00041073064 0)
(1.0835878 0.00096796573 0)
(1.0830508 0.0015234169 0)
(1.0822725 0.0020717033 0)
(1.0812573 0.0026076061 0)
(1.080012 0.0031261924 0)
(1.0785453 0.0036229311 0)
(1.0768678 0.0040937802 0)
(1.074992 0.004535288 0)
(1.0729315 0.004944631 0)
(1.0707014 0.0053196837 0)
(1.0683171 0.0056590017 0)
(1.0657948 0.0059618497 0)
(1.0631507 0.0062281291 0)
(1.060401 0.0064583521 0)
(1.0575614 0.0066535094 0)
(1.054647 0.0068149673 0)
(1.0516723 0.0069442481 0)
(1.048651 0.0070428066 0)
(1.0455961 0.0071116787 0)
(1.0425204 0.0071511087 0)
(1.0394367 0.0071600954 0)
(1.0363582 0.0071360128 0)
(1.0332999 0.0070743661 0)
(1.0302788 0.0069689265 0)
(1.027315 0.0068123778 0)
(1.0244317 0.0065976376 0)
(1.021655 0.0063197493 0)
(1.0190123 0.0059780421 0)
(1.0165302 0.005577924 0)
(1.0142315 0.0051315909 0)
(1.0121326 0.0046570571 0)
(1.010241 0.0041754476 0)
(1.008555 0.0037071486 0)
(1.007065 0.0032680073 0)
(1.0057554 0.0028668212 0)
(1.0046096 0.0025049147 0)
(1.0036102 0.0021776522 0)
(1.0027454 0.0018771125 0)
(1.0020032 0.0015946856 0)
(1.0013812 0.0013229718 0)
(1.0008705 0.001056442 0)
(1.0004789 0.00079157183 0)
(1.0001912 0.0005261191 0)
(1.0000318 0.00025908251 0)
(1.0009659 -0.00022646032 0)
(1.0010931 -0.00024569277 0)
(1.001143 -0.00026339212 0)
(1.001255 -0.0002847893 0)
(1.0013369 -0.0003062239 0)
(1.0014509 -0.00033030645 0)
(1.0015565 -0.00035548865 0)
(1.0016818 -0.00038300865 0)
(1.001809 -0.00041225853 0)
(1.0019511 -0.00044387447 0)
(1.0021007 -0.0004776764 0)
(1.002264 -0.0005140422 0)
(1.0024381 -0.00055299192 0)
(1.0026265 -0.00059479835 0)
(1.0028284 -0.00063958043 0)
(1.003046 -0.00068757388 0)
(1.0032796 -0.00073895113 0)
(1.0035309 -0.00079394047 0)
(1.0038007 -0.00085274664 0)
(1.0040907 -0.00091560235 0)
(1.0044019 -0.00098273348 0)
(1.0047361 -0.0010543801 0)
(1.0050946 -0.0011307816 0)
(1.0054791 -0.0012121832 0)
(1.0058912 -0.0012988301 0)
(1.0063329 -0.0013909669 0)
(1.0068059 -0.0014888353 0)
(1.0073122 -0.0015926698 0)
(1.0078539 -0.0017026964 0)
(1.008433 -0.0018191263 0)
(1.0090518 -0.0019421545 0)
(1.0097124 -0.0020719511 0)
(1.0104173 -0.0022086599 0)
(1.0111687 -0.0023523898 0)
(1.0119691 -0.0025032077 0)
(1.0128209 -0.002661134 0)
(1.0137264 -0.002826131 0)
(1.0146883 -0.0029980986 0)
(1.0157087 -0.0031768609 0)
(1.0167901 -0.0033621619 0)
(1.0179346 -0.0035536504 0)
(1.0191445 -0.0037508759 0)
(1.0204216 -0.0039532725 0)
(1.0217678 -0.0041601545 0)
(1.0231846 -0.004370703 0)
(1.0246731 -0.0045839584 0)
(1.0262344 -0.0047988113 0)
(1.027869 -0.0050139946 0)
(1.0295769 -0.0052280779 0)
(1.0313579 -0.0054394618 0)
(1.0332108 -0.0056463752 0)
(1.0351341 -0.0058468744 0)
(1.0371256 -0.0060388448 0)
(1.0391822 -0.0062200055 0)
(1.0413001 -0.0063879171 0)
(1.0434746 -0.0065399929 0)
(1.0457002 -0.0066735132 0)
(1.0479702 -0.0067856436 0)
(1.0502772 -0.0068734553 0)
(1.0526123 -0.0069339498 0)
(1.0549661 -0.0069640844 0)
(1.0573276 -0.006960805 0)
(1.059685 -0.006921081 0)
(1.0620254 -0.006841957 0)
(1.0643347 -0.006720612 0)
(1.0665981 -0.0065544487 0)
(1.0687996 -0.0063411934 0)
(1.0709228 -0.0060790276 0)
(1.0729506 -0.0057667152 0)
(1.0748655 -0.0054037374 0)
(1.07665 -0.0049903872 0)
(1.0782869 -0.0045278438 0)
(1.0797591 -0.0040181818 0)
(1.0810509 -0.0034643604 0)
(1.0821473 -0.0028701634 0)
(1.0830347 -0.0022401397 0)
(1.0837015 -0.0015795171 0)
(1.0841377 -0.00089412295 0)
(1.0843356 -0.00019028091 0)
(1.0842898 0.00052529735 0)
(1.0839973 0.0012456412 0)
(1.0834575 0.0019636913 0)
(1.0826725 0.0026724387 0)
(1.0816469 0.0033650834 0)
(1.0803875 0.0040351973 0)
(1.0789034 0.0046768782 0)
(1.0772057 0.005284863 0)
(1.0753072 0.0058546632 0)
(1.0732222 0.0063826113 0)
(1.0709662 0.0068659559 0)
(1.0685551 0.0073028355 0)
(1.0660058 0.0076923183 0)
(1.0633348 0.0080343022 0)
(1.0605589 0.0083294853 0)
(1.0576941 0.0085791876 0)
(1.0547561 0.0087852222 0)
(1.0517594 0.0089496049 0)
(1.0487182 0.0090742701 0)
(1.0456457 0.0091606135 0)
(1.0425546 0.0092090158 0)
(1.0394577 0.0092182554 0)
(1.0363685 0.0091850229 0)
(1.0333017 0.0091036053 0)
(1.0302741 0.008966058 0)
(1.0273058 0.0087630317 0)
(1.0244196 0.0084854657 0)
(1.0216413 0.008127013 0)
(1.018998 0.0076868116 0)
(1.0165159 0.0071717866 0)
(1.0142179 0.0065975656 0)
(1.0121198 0.0059872409 0)
(1.0102291 0.0053679045 0)
(1.0085441 0.0047657111 0)
(1.0070551 0.004201004 0)
(1.0057467 0.0036850866 0)
(1.004602 0.0032196731 0)
(1.0036038 0.0027988227 0)
(1.0027401 0.0024123702 0)
(1.0019992 0.0020492573 0)
(1.0013783 0.001699976 0)
(1.0008685 0.0013574145 0)
(1.0004778 0.0010170376 0)
(1.0001908 0.00067595023 0)
(1.0000317 0.00033286049 0)
(1.0009536 -0.00027564989 0)
(1.0010792 -0.00029906232 0)
(1.0011285 -0.00032060863 0)
(1.0012391 -0.00034665839 0)
(1.0013199 -0.00037275396 0)
(1.0014326 -0.000402075 0)
(1.0015369 -0.00043273568 0)
(1.0016607 -0.00046624445 0)
(1.0017864 -0.00050186089 0)
(1.0019268 -0.0005403603 0)
(1.0020746 -0.00058152358 0)
(1.0022359 -0.00062581146 0)
(1.002408 -0.00067324881 0)
(1.0025941 -0.00072416844 0)
(1.0027937 -0.00077871585 0)
(1.0030088 -0.00083717893 0)
(1.0032398 -0.00089976857 0)
(1.0034882 -0.00096676386 0)
(1.0037551 -0.0010384154 0)
(1.0040419 -0.001115008 0)
(1.0043497 -0.0011968183 0)
(1.0046803 -0.0012841408 0)
(1.0050351 -0.0013772689 0)
(1.0054156 -0.001476504 0)
(1.0058236 -0.0015821472 0)
(1.0062609 -0.0016944997 0)
(1.0067294 -0.0018138592 0)
(1.0072309 -0.0019405154 0)
(1.0077676 -0.0020747477 0)
(1.0083416 -0.0022168184 0)
(1.0089551 -0.0023669702 0)
(1.0096103 -0.0025254165 0)
(1.0103095 -0.0026923386 0)
(1.0110552 -0.0028678766 0)
(1.0118498 -0.0030521195 0)
(1.0126957 -0.0032451003 0)
(1.0135955 -0.0034467819 0)
(1.0145515 -0.0036570516 0)
(1.0155663 -0.0038757048 0)
(1.0166422 -0.0041024395 0)
(1.0177815 -0.0043368381 0)
(1.0189865 -0.0045783615 0)
(1.0202592 -0.0048263305 0)
(1.0216015 -0.0050799187 0)
(1.023015 -0.0053381371 0)
(1.024501 -0.0055998236 0)
(1.0260608 -0.0058636324 0)
(1.0276948 -0.0061280234 0)
(1.0294034 -0.0063912547 0)
(1.0311863 -0.0066513758 0)
(1.0330427 -0.0069062227 0)
(1.0349711 -0.0071534175 0)
(1.0369695 -0.0073903685 0)
(1.0390349 -0.007614276 0)
(1.0411637 -0.0078221409 0)
(1.0433513 -0.0080107778 0)
(1.0455921 -0.0081768316 0)
(1.0478798 -0.0083168003 0)
(1.0502067 -0.0084270588 0)
(1.0525643 -0.0085038907 0)
(1.0549428 -0.0085435198 0)
(1.0573313 -0.0085421527 0)
(1.0597178 -0.0084960241 0)
(1.0620893 -0.0084014624 0)
(1.0644314 -0.008254965 0)
(1.066729 -0.0080533094 0)
(1.0689659 -0.007793674 0)
(1.0711252 -0.0074737994 0)
(1.0731895 -0.0070921383 0)
(1.0751407 -0.0066480211 0)
(1.0769609 -0.0061417674 0)
(1.0786323 -0.0055747818 0)
(1.0801374 -0.0049495677 0)
(1.0814598 -0.0042697232 0)
(1.082584 -0.0035398731 0)
(1.0834959 -0.0027656028 0)
(1.0841832 -0.0019533545 0)
(1.0846357 -0.0011103299 0)
(1.0848452 -0.00024436279 0)
(1.084806 0.00063622309 0)
(1.084515 0.0015227686 0)
(1.0839717 0.0024064984 0)
(1.0831781 0.0032786999 0)
(1.082139 0.0041309193 0)
(1.0808615 0.0049551661 0)
(1.0793552 0.0057441091 0)
(1.0776317 0.0064912142 0)
(1.0757044 0.0071909204 0)
(1.0735882 0.0078386907 0)
(1.0712991 0.0084311383 0)
(1.0688541 0.0089659848 0)
(1.0662704 0.0094421165 0)
(1.0635653 0.0098594508 0)
(1.0607562 0.010218905 0)
(1.0578596 0.010522168 0)
(1.0548915 0.010771543 0)
(1.0518672 0.010969588 0)
(1.0488009 0.011118767 0)
(1.045706 0.011220886 0)
(1.0425955 0.011276513 0)
(1.0394822 0.011284256 0)
(1.0363795 0.011240175 0)
(1.0333019 0.011137387 0)
(1.0302664 0.01096628 0)
(1.0272924 0.010715514 0)
(1.0244026 0.010374081 0)
(1.0216224 0.0099342611 0)
(1.0189784 0.0093950009 0)
(1.0164967 0.0087647204 0)
(1.0141995 0.0080624389 0)
(1.0121026 0.0073162752 0)
(1.0102133 0.0065592339 0)
(1.0085298 0.0058231936 0)
(1.0070422 0.0051329634 0)
(1.0057353 0.0045023414 0)
(1.0045921 0.0039334348 0)
(1.0035955 0.0034190096 0)
(1.0027334 0.0029466709 0)
(1.001994 0.0025029233 0)
(1.0013745 0.0020761573 0)
(1.0008661 0.0016576793 0)
(1.0004764 0.0012419426 0)
(1.0001902 0.00082539231 0)
(1.0000316 0.00040644299 0)
(1.0009389 -0.00032416534 0)
(1.0010626 -0.00035170306 0)
(1.0011112 -0.00037704543 0)
(1.0012201 -0.00040768756 0)
(1.0012997 -0.0004383839 0)
(1.0014107 -0.00047287683 0)
(1.0015135 -0.0005089469 0)
(1.0016355 -0.00054836995 0)
(1.0017593 -0.00059027471 0)
(1.0018977 -0.00063557422 0)
(1.0020433 -0.000684011 0)
(1.0022023 -0.00073612797 0)
(1.002372 -0.00079195502 0)
(1.0025555 -0.00085188473 0)
(1.0027523 -0.00091608926 0)
(1.0029644 -0.00098490856 0)
(1.0031922 -0.0010585921 0)
(1.0034373 -0.0011374699 0)
(1.0037006 -0.0012218387 0)
(1.0039836 -0.0013120356 0)
(1.0042875 -0.0014083887 0)
(1.0046138 -0.0015112472 0)
(1.0049641 -0.0016209595 0)
(1.0053399 -0.0017378837 0)
(1.0057429 -0.0018623783 0)
(1.0061751 -0.0019948021 0)
(1.0066381 -0.0021355104 0)
(1.007134 -0.0022848498 0)
(1.0076648 -0.0024431556 0)
(1.0082326 -0.0026107431 0)
(1.0088397 -0.0027879057 0)
(1.0094884 -0.0029749031 0)
(1.010181 -0.0031719578 0)
(1.0109199 -0.0033792448 0)
(1.0117076 -0.0035968795 0)
(1.0125466 -0.0038249124 0)
(1.0134394 -0.0040633119 0)
(1.0143885 -0.0043119584 0)
(1.0153965 -0.0045706243 0)
(1.0164659 -0.0048389679 0)
(1.017599 -0.0051165114 0)
(1.0187981 -0.0054026341 0)
(1.0200655 -0.0056965497 0)
(1.0214031 -0.0059972979 0)
(1.0228127 -0.0063037257 0)
(1.0242958 -0.006614475 0)
(1.0258536 -0.0069279682 0)
(1.027487 -0.0072423969 0)
(1.0291963 -0.0075557113 0)
(1.0309815 -0.0078656111 0)
(1.0328419 -0.0081695403 0)
(1.0347764 -0.0084646843 0)
(1.0367828 -0.0087479704 0)
(1.0388587 -0.0090160734 0)
(1.0410003 -0.0092654244 0)
(1.0432033 -0.0094922259 0)
(1.0454623 -0.0096924709 0)
(1.0477709 -0.0098619688 0)
(1.0501217 -0.0099963743 0)
(1.0525059 -0.010091225 0)
(1.0549139 -0.01014198 0)
(1.0573347 -0.010144072 0)
(1.0597562 -0.010092966 0)
(1.0621651 -0.0099842363 0)
(1.0645467 -0.0098136628 0)
(1.0668858 -0.009577361 0)
(1.0691656 -0.0092719273 0)
(1.0713688 -0.0088946286 0)
(1.0734774 -0.0084435772 0)
(1.0754729 -0.0079179263 0)
(1.0773368 -0.0073180004 0)
(1.0790504 -0.0066454137 0)
(1.0805958 -0.0059030896 0)
(1.0819556 -0.0050952674 0)
(1.0831138 -0.0042274244 0)
(1.0840557 -0.0033062084 0)
(1.0847683 -0.0023393134 0)
(1.0852407 -0.0013353654 0)
(1.0854644 -0.00030376918 0)
(1.0854334 0.00074546938 0)
(1.0851443 0.0018019292 0)
(1.0845966 0.0028550391 0)
(1.0837923 0.003894298 0)
(1.0827366 0.0049095143 0)
(1.0814369 0.0058910538 0)
(1.0799033 0.0068300842 0)
(1.0781481 0.0077187378 0)
(1.0761854 0.0085503338 0)
(1.0740309 0.0093194312 0)
(1.0717014 0.010021992 0)
(1.0692147 0.010655318 0)
(1.066589 0.011218129 0)
(1.0638422 0.011710386 0)
(1.0609925 0.012133269 0)
(1.0580571 0.012488878 0)
(1.0550526 0.012780066 0)
(1.0519946 0.013009987 0)
(1.0488977 0.013181699 0)
(1.0457757 0.013297477 0)
(1.0426417 0.01335814 0)
(1.0395085 0.013362188 0)
(1.0363895 0.013305107 0)
(1.0332992 0.013178904 0)
(1.030254 0.012972353 0)
(1.0272733 0.012672169 0)
(1.0243792 0.012265436 0)
(1.0215968 0.011743084 0)
(1.0189523 0.011103869 0)
(1.0164711 0.010357689 0)
(1.0141752 0.0095269185 0)
(1.01208 0.0086446503 0)
(1.0101927 0.0077497474 0)
(1.0085111 0.0068797632 0)
(1.0070256 0.0060639391 0)
(1.0057206 0.0053185513 0)
(1.0045795 0.0046460998 0)
(1.003585 0.0040380666 0)
(1.0027249 0.0034798397 0)
(1.0019874 0.0029554963 0)
(1.0013698 0.0024513314 0)
(1.000863 0.0019570692 0)
(1.0004747 0.0014661494 0)
(1.0001895 0.00097434775 0)
(1.0000315 0.00047978068 0)
(1.0009218 -0.00037188715 0)
(1.0010433 -0.00040348497 0)
(1.001091 -0.00043256364 0)
(1.001198 -0.00046772668 0)
(1.0012763 -0.00050295295 0)
(1.0013854 -0.00054253891 0)
(1.0014864 -0.00058393686 0)
(1.0016062 -0.00062918604 0)
(1.0017279 -0.00067728659 0)
(1.0018639 -0.00072928743 0)
(1.0020071 -0.00078489357 0)
(1.0021634 -0.00084472923 0)
(1.0023302 -0.00090882966 0)
(1.0025107 -0.00097764676 0)
(1.0027043 -0.0010513795 0)
(1.0029129 -0.0011304198 0)
(1.0031371 -0.0012150558 0)
(1.0033783 -0.0013056685 0)
(1.0036374 -0.001402601 0)
(1.003916 -0.0015062432 0)
(1.0042152 -0.001616975 0)
(1.0045366 -0.0017352007 0)
(1.0048817 -0.0018613248 0)
(1.005252 -0.0019957629 0)
(1.0056494 -0.002138932 0)
(1.0060754 -0.00229125 0)
(1.0065321 -0.0024531315 0)
(1.0070214 -0.002624982 0)
(1.0075454 -0.0028071948 0)
(1.0081061 -0.0030001413 0)
(1.0087059 -0.0032041685 0)
(1.009347 -0.0034195857 0)
(1.0100318 -0.0036466609 0)
(1.0107628 -0.0038856081 0)
(1.0115425 -0.0041365741 0)
(1.0123734 -0.0043996323 0)
(1.0132581 -0.0046747627 0)
(1.0141993 -0.0049618448 0)
(1.0151994 -0.005260635 0)
(1.0162611 -0.0055707594 0)
(1.017387 -0.0058916872 0)
(1.0185793 -0.0062227244 0)
(1.0198404 -0.0065629853 0)
(1.0211725 -0.0069113841 0)
(1.0225775 -0.0072666119 0)
(1.024057 -0.0076271217 0)
(1.0256125 -0.0079911121 0)
(1.027245 -0.0083565124 0)
(1.028955 -0.00872097 0)
(1.0307428 -0.0090818393 0)
(1.0326078 -0.0094361743 0)
(1.034549 -0.0097807241 0)
(1.0365647 -0.010111933 0)
(1.0386525 -0.010425944 0)
(1.0408089 -0.010718612 0)
(1.0430297 -0.010985513 0)
(1.0453097 -0.011221974 0)
(1.0476425 -0.011423093 0)
(1.0500209 -0.011583781 0)
(1.0524361 -0.011698799 0)
(1.0548785 -0.011762807 0)
(1.0573371 -0.011770426 0)
(1.0597994 -0.011716306 0)
(1.0622521 -0.011595225 0)
(1.0646802 -0.011402194 0)
(1.067068 -0.011132619 0)
(1.0693983 -0.010782462 0)
(1.0716534 -0.010348468 0)
(1.0738146 -0.0098283608 0)
(1.0758626 -0.009221072 0)
(1.0777782 -0.0085268915 0)
(1.0795421 -0.0077476124 0)
(1.0811353 -0.006886557 0)
(1.0825398 -0.0059485979 0)
(1.0837385 -0.0049400733 0)
(1.084716 -0.003868719 0)
(1.0854585 -0.0027435249 0)
(1.0859546 -0.0015746043 0)
(1.0861952 -0.00037301335 0)
(1.0861739 0.00084946562 0)
(1.085887 0.0020805355 0)
(1.0853338 0.00330771 0)
(1.0845168 0.0045185833 0)
(1.0834412 0.0057011131 0)
(1.0821149 0.0068439167 0)
(1.0805488 0.0079365705 0)
(1.0787557 0.0089697956 0)
(1.0767507 0.0099357363 0)
(1.0745505 0.010828008 0)
(1.0721729 0.011641909 0)
(1.0696367 0.01237432 0)
(1.0669609 0.013023821 0)
(1.0641647 0.013590454 0)
(1.0612669 0.014075711 0)
(1.0582855 0.014482167 0)
(1.0552379 0.014813293 0)
(1.0521401 0.015072916 0)
(1.0490072 0.01526476 0)
(1.0458534 0.015391648 0)
(1.0426917 0.015454727 0)
(1.0395353 0.015452459 0)
(1.0363972 0.015379834 0)
(1.0332919 0.015227816 0)
(1.0302357 0.014983631 0)
(1.0272472 0.014632106 0)
(1.0243485 0.014158461 0)
(1.0215637 0.013552301 0)
(1.0189188 0.012812195 0)
(1.0164386 0.011949492 0)
(1.0141445 0.01098987 0)
(1.0120516 0.0099713321 0)
(1.0101668 0.0089385279 0)
(1.0084879 0.0079346222 0)
(1.007005 0.0069932437 0)
(1.0057026 0.0061331248 0)
(1.004564 0.0053571568 0)
(1.0035721 0.0046555492 0)
(1.0027145 0.0040114895 0)
(1.0019795 0.003406642 0)
(1.0013641 0.0028252158 0)
(1.0008593 0.0022553543 0)
(1.0004726 0.0016894828 0)
(1.0001886 0.0011226983 0)
(1.0000313 0.00055281468 0)
(1.0009024 -0.0004186991 0)
(1.0010214 -0.00045428306 0)
(1.0010682 -0.00048702948 0)
(1.001173 -0.00052663206 0)
(1.0012497 -0.00056630719 0)
(1.0013565 -0.00061089625 0)
(1.0014555 -0.00065752893 0)
(1.001573 -0.00070850368 0)
(1.0016923 -0.00076269442 0)
(1.0018256 -0.00082128393 0)
(1.0019659 -0.0008839407 0)
(1.0021192 -0.00095136926 0)
(1.0022828 -0.0010236106 0)
(1.0024598 -0.0011011755 0)
(1.0026497 -0.0011842898 0)
(1.0028544 -0.0012733974 0)
(1.0030744 -0.0013688252 0)
(1.0033111 -0.0014710055 0)
(1.0035656 -0.0015803279 0)
(1.0038391 -0.0016972354 0)
(1.0041331 -0.0018221604 0)
(1.0044489 -0.0019555633 0)
(1.0047881 -0.0020979049 0)
(1.0051522 -0.0022496602 0)
(1.005543 -0.0024113055 0)
(1.0059622 -0.0025833198 0)
(1.0064117 -0.0027661792 0)
(1.0068935 -0.00296035 0)
(1.0074096 -0.0031662864 0)
(1.0079623 -0.0033844191 0)
(1.0085536 -0.0036151522 0)
(1.0091861 -0.003858849 0)
(1.0098621 -0.004115827 0)
(1.010584 -0.0043863447 0)
(1.0113545 -0.004670586 0)
(1.0121762 -0.0049686534 0)
(1.0130516 -0.0052805448 0)
(1.0139836 -0.0056061468 0)
(1.0149747 -0.0059452073 0)
(1.0160277 -0.006297328 0)
(1.0171451 -0.0066619345 0)
(1.0183296 -0.0070382676 0)
(1.0195835 -0.0074253519 0)
(1.0209092 -0.0078219847 0)
(1.0223088 -0.00822671 0)
(1.0237841 -0.0086378005 0)
(1.0253367 -0.0090532384 0)
(1.0269679 -0.0094706974 0)
(1.0286786 -0.0098875277 0)
(1.0304689 -0.010300742 0)
(1.0323389 -0.010707006 0)
(1.0342877 -0.011102631 0)
(1.0363137 -0.011483575 0)
(1.0384148 -0.011845443 0)
(1.0405878 -0.0121835 0)
(1.0428286 -0.012492684 0)
(1.0451323 -0.01276763 0)
(1.0474926 -0.013002707 0)
(1.0499024 -0.013192046 0)
(1.0523529 -0.013329598 0)