/*--------------------------------*- C++ -*----------------------------------*\
| =========                 |                                                 |
| \\      /  F ield         | foam-extend: Open Source CFD                    |
|  \\    /   O peration     | Version:     4.1                                |
|   \\  /    A nd           | Web:         http://www.foam-extend.org         |
|    \\/     M anipulation  |                                                 |
\*---------------------------------------------------------------------------*/
FoamFile
{
    version     2.0;
    format      ascii;
    class       volScalarField;
    location    "0.2";
    object      p;
}
// * * * * * * * * * * * * * * * * * * * * * * * * * * * * * * * * * * * * * //

dimensions      [0 2 -2 0 0 0 0];

internalField   nonuniform List<scalar> 
16796
(
-1.7359638
-3.8551777
-6.0673266
-8.3026467
-10.575504
-12.895745
-15.273656
-17.719722
-20.244685
-22.859575
-25.575752
-28.40494
-31.359268
-34.451302
-37.694088
-41.101182
-44.686693
-48.465311
-52.452345
-56.663751
-61.116167
-65.826936
-70.814131
-76.096575
-81.693859
-87.626343
-93.915172
-100.58226
-107.65027
-115.14262
-123.0834
-131.49735
-140.4098
-149.84654
-159.83376
-170.39787
-181.56537
-193.36268
-205.81585
-218.95038
-232.79085
-247.36061
-262.68141
-278.77291
-295.65223
-313.33337
-331.82662
-351.13791
-371.26804
-392.21195
-413.95785
-436.48639
-459.76967
-483.77036
-508.44071
-533.72158
-559.54153
-585.81593
-612.44618
-639.31901
-666.30597
-693.26311
-720.03091
-746.43447
-772.28413
-797.37636
-821.49518
-844.41392
-865.89764
-885.70581
-903.5957
-919.32603
-932.6611
-943.37526
-951.2574
-956.11573
-957.7826
-956.1191
-951.0187
-942.41029
-930.26107
-914.57841
-895.41071
-872.84726
-847.01702
-818.08648
-786.2565
-751.75844
-714.84961
-675.80816
-634.92785
-592.51255
-548.87102
-504.3117
-459.13817
-413.64484
-368.11342
-322.80994
-277.98239
-233.85906
-190.64746
-148.53377
-107.68283
-68.238577
-30.324794
5.9537875
40.510204
73.273795
104.18863
133.21192
160.31231
185.46832
208.66677
229.90133
249.17124
266.47994
281.83312
295.23697
306.70034
316.24323
323.89476
329.63656
333.31316
334.79883
-1.73251
-3.8474839
-6.0552405
-8.2861311
-10.554496
-12.870167
-15.243413
-17.684702
-20.20476
-22.8146
-25.525566
-28.349366
-31.298112
-34.384354
-37.621121
-41.021957
-44.600952
-48.372783
-52.352745
-56.556783
-61.001523
-65.704297
-70.683172
-75.956963
-81.545257
-87.468418
-93.747592
-100.4047
-107.46243
-114.94419
-122.87412
-131.27699
-140.17817
-149.6035
-159.57922
-170.13183
-181.28791
-193.07399
-205.51623
-218.64026
-232.47082
-247.03146
-262.34409
-278.42861
-295.30239
-312.97969
-331.4711
-350.78285
-370.91611
-391.86617
-413.62163
-436.16351
-459.46435
-483.48722
-508.18478
-533.49827
-559.35662
-585.67554
-612.35669
-639.287
-666.33814
-693.36616
-720.21142
-746.69875
-772.63805
-797.82517
-822.04333
-845.06487
-866.6536
-886.56761
-904.56257
-920.39545
-933.82871
-944.63473
-952.60046
-957.53213
-959.26024
-957.64445
-952.57713
-943.98612
-931.83783
-916.13919
-896.93857
-874.32562
-848.43007
-819.41953
-787.49632
-752.89354
-715.87043
-676.70722
-635.69983
-593.15429
-549.38141
-504.69163
-459.39029
-413.7734
-368.12403
-322.70928
-277.77803
-233.55916
-190.26055
-148.06856
-107.14801
-67.642621
-29.675865
6.6479697
41.242446
74.03749
104.9778
134.02123
161.13709
186.30453
209.51099
230.75074
250.02357
267.33342
282.68645
296.08927
307.55108
317.0922
324.742
330.48233
334.15793
335.64318
-1.7257281
-3.8322754
-6.0312733
-8.2533301
-10.512739
-12.819298
-15.183244
-17.615014
-20.125299
-22.725081
-25.42567
-28.238742
-31.176376
-34.251092
-37.475887
-40.864273
-44.430312
-48.188652
-52.154562
-56.343962
-60.773455
-65.460355
-70.422714
-75.679336
-81.249804
-87.15448
-93.414521
-100.05186
-107.08922
-114.55005
-122.45853
-130.83949
-139.7184
-149.1212
-159.07425
-169.6042
-180.73782
-192.5018
-204.92258
-218.02605
-231.83726
-246.3801
-261.67687
-277.74793
-294.61112
-312.28124
-330.76945
-350.08264
-370.22262
-391.18542
-412.96039
-435.52933
-458.8656
-482.93305
-507.68516
-533.06395
-558.99906
-585.40684
-612.18948
-639.23433
-666.41327
-693.58235
-720.58169
-747.23561
-773.35314
-798.72893
-823.14459
-846.37048
-868.16803
-888.29256
-906.49658
-922.53361
-936.16239
-947.15144
-955.28375
-960.36163
-962.21177
-960.69071
-955.6883
-947.13022
-934.98128
-919.24762
-899.9776
-877.26168
-851.23124
-822.05627
-789.94213
-755.12553
-717.86971
-678.4592
-637.19433
-594.38551
-550.3478
-505.3956
-459.83784
-413.97369
-368.08889
-322.45272
-277.31569
-232.90784
-189.43774
-147.09198
-106.03526
-66.410854
-28.341494
8.0694722
42.736714
75.591382
106.57948
135.66017
162.80411
187.99175
211.2118
232.45971
251.73637
269.04676
284.39795
297.79739
309.25499
318.79167
326.43731
332.1742
335.84747
337.33174
-1.7155351
-3.8094517
-5.9953127
-8.2041201
-10.450093
-12.742984
-15.092978
-17.510463
-20.006082
-22.590768
-25.275781
-28.072748
-30.993701
-34.051109
-37.257924
-40.627612
-44.174189
-47.912262
-51.857058
-56.02446
-60.431039
-65.094079
-70.031608
-75.262414
-80.806073
-86.682946
-92.914202
-99.521803
-106.5285
-113.95781
-121.83399
-130.18197
-139.02734
-148.39619
-158.31507
-168.81085
-179.91056
-191.64122
-204.02959
-217.10199
-230.88392
-245.39981
-260.67255
-276.72316
-293.57019
-311.22927
-329.71244
-349.02752
-369.17735
-390.15904
-411.96309
-434.57248
-457.96176
-482.09605
-506.93001
-532.40683
-558.45726
-584.99862
-611.93392
-639.15111
-666.52242
-693.90393
-721.1354
-748.04038
-774.4266
-800.08692
-824.80055
-848.33488
-870.44775
-890.89027
-909.41025
-925.75598
-939.68062
-950.94685
-959.33171
-964.63158
-966.66749
-965.29108
-960.38829
-951.88139
-939.73276
-923.94727
-904.57323
-881.70234
-855.46844
-826.04512
-793.64239
-758.50243
-720.89459
-681.10995
-639.45553
-596.24845
-551.81019
-506.46118
-460.51582
-414.27807
-368.03772
-322.06731
-276.61984
-231.92708
-188.19859
-145.62133
-104.35978
-64.556505
-26.333111
10.2085
44.98469
77.928475
108.98783
138.12393
165.30947
190.52686
213.76672
235.02628
254.30814
271.61879
286.96672
300.3606
311.81144
321.34108
328.98016
334.71163
338.38122
339.86394
-1.7019468
-3.779068
-5.9474573
-8.1386447
-10.366751
-12.641464
-14.972905
-17.371395
-19.847512
-22.412122
-25.076422
-27.851973
-30.750741
-33.785132
-36.968035
-40.312852
-43.833543
-47.544655
-51.461362
-55.599497
-59.975585
-64.606872
-69.511353
-74.707795
-80.215759
-86.055608
-92.248526
-98.816504
-105.78235
-113.16965
-121.00275
-129.30674
-138.10734
-147.43087
-157.30411
-167.75422
-178.80859
-190.49462
-202.83958
-215.87028
-229.61288
-244.09247
-259.33276
-275.35562
-292.1806
-309.82437
-328.30015
-347.61702
-367.7792
-388.78524
-410.62715
-433.28952
-456.74853
-480.97093
-505.91303
-531.5196
-557.72286
-584.44148
-611.5796
-639.02599
-666.65341
-694.318
-721.8591
-749.09923
-775.84448
-801.88532
-826.99779
-850.9453
-873.4809
-894.35011
-913.29437
-930.05497
-944.37752
-956.01682
-964.74186
-970.341
-972.6276
-971.44658
-966.67844
-958.24087
-946.09293
-930.23772
-910.72353
-887.64373
-861.1355
-831.37737
-798.58566
-763.00999
-724.92805
-684.63977
-642.46129
-598.71878
-553.74245
-507.86085
-461.39572
-414.65748
-367.94132
-321.52414
-275.66221
-230.58957
-186.51707
-143.63207
-102.0987
-62.058492
-23.631504
13.082361
48.00178
81.062311
112.2146
141.42257
168.66161
193.91682
217.18134
238.45486
257.74218
275.05189
290.39431
303.7798
315.2208
324.74036
332.37014
338.09395
341.75837
343.23893
-1.6851095
-3.7413043
-5.8879001
-8.0571047
-10.262919
-12.51495
-14.823238
-17.198024
-19.649801
-22.189356
-24.827801
-27.576618
-30.447689
-33.453343
-36.606387
-39.920147
-43.408508
-47.085943
-50.967561
-55.069129
-59.407116
-63.998718
-68.86189
-74.015369
-79.478699
-85.272242
-91.417197
-97.935596
-104.85031
-112.185
-119.96417
-128.21303
-136.95753
-146.22422
-156.04019
-166.43298
-177.43038
-189.06032
-201.35062
-214.3288
-228.02176
-242.45547
-257.65462
-273.64217
-290.43887
-308.06275
-326.52849
-345.84677
-366.02349
-387.05903
-408.94732
-431.67496
-455.22019
-479.55183
-504.62827
-530.39629
-556.79002
-583.72983
-611.1213
-638.85436
-666.8024
-694.82175
-722.75126
-750.41224
-777.60876
-804.12832
-829.74306
-854.21143
-877.28045
-898.68861
-918.16933
-935.45503
-950.28177
-962.3943
-971.55138
-977.53114
-980.13711
-979.20553
-974.60984
-966.26179
-954.11615
-938.17376
-918.48282
-895.13881
-868.28321
-838.10086
-804.81617
-768.68831
-730.00563
-689.07943
-646.23751
-601.81758
-556.16097
-509.60657
-462.48546
-415.11619
-367.80076
-320.82155
-274.43891
-228.88963
-184.38614
-141.11621
-99.243431
-58.907971
-20.227829
16.699673
51.7962
85.000561
116.26682
145.56237
172.86606
198.16636
221.45965
242.74864
262.04099
279.34784
294.6819
308.05558
319.48313
328.98915
336.60653
342.32021
345.97779
347.4555
-1.6647559
-3.69588
-5.8163921
-7.9592927
-10.138432
-12.363322
-14.643904
-16.99032
-19.412967
-21.922531
-24.530027
-27.246836
-30.084746
-33.055986
-36.173269
-39.449827
-42.899454
-46.536536
-50.376097
-54.433829
-58.726131
-63.270136
-68.08375
-73.185671
-78.595421
-84.333357
-90.420696
-96.879509
-103.73274
-111.00416
-118.7184
-126.90087
-135.57775
-144.77589
-154.52274
-164.84625
-175.77474
-187.33672
-199.56072
-212.47504
-226.1075
-240.48512
-255.63374
-271.57763
-288.33902
-305.93752
-324.38958
-343.70777
-363.90009
-384.96908
-406.91103
-429.71493
-453.36154
-477.82222
-503.0579
-529.01783
-555.63847
-582.84231
-610.5368
-638.61324
-666.94598
-695.3916
-723.78847
-751.95656
-779.69756
-806.79551
-833.01786
-858.11713
-881.83311
-903.89577
-924.02881
-941.95385
-957.39525
-970.08549
-979.77075
-986.2166
-989.21445
-988.58966
-984.20688
-975.9705
-963.82992
-947.78313
-927.87816
-904.21311
-876.93472
-846.23564
-812.35026
-775.54958
-736.13509
-694.43214
-650.78286
-605.5392
-559.0561
-511.68513
-463.76875
-415.63539
-367.59532
-319.93745
-272.92702
-226.80408
-181.78277
-138.0513
-95.772442
-55.084585
-16.103126
21.077854
56.383722
89.757306
121.15686
150.55405
177.93193
203.28309
226.6078
247.91247
267.20819
284.50922
299.83109
313.18872
324.59854
334.08697
341.68841
347.3891
351.03798
352.51206
-1.6413896
-3.6434232
-5.733619
-7.845937
-9.9940594
-12.187389
-14.435752
-16.749177
-19.137944
-21.612625
-24.184119
-26.863693
-29.66302
-32.594215
-35.66988
-38.903137
-42.307671
-45.897767
-49.688352
-53.695024
-57.934099
-62.422638
-67.178484
-72.22029
-77.567546
-83.240603
-89.260693
-95.649933
-102.43134
-109.62881
-117.26712
-125.37191
-133.96962
-143.08744
-152.75322
-162.99541
-173.84291
-185.32492
-197.47075
-210.30966
-223.87049
-238.18149
-253.26984
-269.16134
-285.87991
-303.44703
-321.88122
-341.19727
-361.40559
-382.51132
-404.51346
-427.4039
-451.16633
-475.77515
-501.1943
-527.37598
-554.25949
-581.7699
-609.81687
-638.29352
-667.07537
-696.01946
-724.96373
-753.72669
-782.10738
-809.88589
-836.82427
-862.66812
-887.14876
-909.98614
-930.89247
-949.57654
-965.74878
-979.12699
-989.44226
-996.44506
-999.91218
-999.65571
-995.52961
-987.4293
-975.29763
-959.12907
-938.97141
-914.92581
-887.14541
-855.83224
-821.23277
-783.63229
-743.34816
-700.72264
-656.11515
-609.89472
-562.43262
-514.09553
-465.23946
-416.20456
-367.31083
-318.85482
-271.10742
-224.31235
-178.68566
-134.41582
-91.664504
-50.567813
-11.237908
26.235094
61.781055
95.34765
126.89817
156.40935
183.86929
209.27541
232.63266
253.95177
273.24786
290.53888
305.84364
319.18002
330.567
340.03311
347.61451
353.29898
356.93699
358.40657
-1.614394
-3.5832347
-5.6388939
-7.7163828
-9.8291817
-11.986566
-14.198231
-16.474074
-18.824243
-21.259177
-23.789646
-26.426782
-29.182127
-32.067667
-35.095874
-38.279742
-41.632834
-45.169316
-48.903999
-52.852376
-57.030665
-61.455839
-66.145668
-71.118748
-76.394532
-81.993355
-87.936462
-94.246015
-100.94511
-108.05778
-115.60897
-123.62455
-132.13127
-141.15667
-150.72908
-160.87749
-171.63146
-183.02095
-195.0762
-207.82748
-221.30485
-235.5379
-250.55536
-266.38479
-283.052
-300.58064
-318.99155
-338.30211
-358.5255
-379.66983
-401.73727
-424.72302
-448.6142
-473.38876
-499.01416
-525.4461
-552.62718
-580.48559
-608.9337
-637.86681
-667.16198
-696.67696
-726.24936
-755.6962
-784.81365
-813.37739
-841.14339
-867.84938
-893.21698
-916.95457
-938.76103
-958.33017
-975.35616
-989.53951
-1000.5935
-1008.2508
-1012.2708
-1012.4496
-1008.6285
-1000.692
-988.57503
-972.26789
-951.81793
-927.32995
-898.96459
-866.93505
-831.50218
-792.96822
-751.66944
-707.96813
-662.2442
-614.88687
-566.28662
-516.82789
-466.88252
-416.80426
-366.92434
-317.54811
-268.95277
-221.38613
-175.06618
-130.1815
-86.892208
-45.331539
-5.6076923
32.193995
68.008753
101.79
133.50696
163.14233
190.69007
216.15327
239.54226
260.8728
280.16465
297.44
312.72146
326.03027
337.38831
346.82658
354.3832
360.04773
363.67242
365.1365
-1.5846141
-3.5163716
-5.5333729
-7.5718613
-9.6451022
-11.76223
-13.932792
-16.166537
-18.473467
-20.863872
-23.348371
-25.937948
-28.643998
-31.478356
-34.453349
-37.581829
-40.877217
-44.353541
-48.025484
-51.908416
-56.018442
-60.372432
-64.988072
-69.883886
-75.079282
-80.594572
-86.451008
-92.670796
-99.277119
-106.29413
-113.74698
-121.66178
-130.0656
-138.9864
-148.45299
-158.49499
-169.14265
-180.42682
-192.3787
-205.02974
-218.41133
-232.55457
-247.48992
-263.24687
-279.85339
-297.33555
-315.71683
-335.01751
-355.25389
-376.43749
-398.57404
-421.66255
-445.69409
-470.65064
-496.50376
-523.2132
-550.72547
-578.97238
-607.86956
-637.315
-667.18769
-697.3464
-727.62864
-757.84994
-787.80346
-817.26008
-845.96907
-873.65935
-900.04157
-924.81097
-947.65118
-968.23882
-986.24921
-1001.3628
-1013.2722
-1021.6891
-1026.3525
-1027.0396
-1023.5764
-1015.8348
-1003.7402
-987.27773
-966.49414
-941.49842
-912.46002
-879.60528
-843.21194
-803.60221
-761.13456
-716.19482
-669.1869
-620.52355
-570.61767
-519.87424
-468.68337
-417.41442
-366.41137
-315.98944
-266.43287
-217.99385
-170.89228
-125.31652
-81.424627
-39.346241
0.81523094
38.980155
75.090096
109.1052
141.00158
170.76886
198.40774
223.92783
247.34558
268.68252
287.96367
305.21603
320.4665
333.74012
345.06206
354.46604
361.99243
367.63274
371.24132
372.69875
-1.5511757
-3.441831
-5.4160576
-7.4114062
-9.4408902
-11.513484
-13.638573
-15.82574
-18.084822
-20.425943
-22.859556
-25.39648
-28.047942
-30.825613
-33.741656
-36.808761
-40.04019
-43.449819
-47.052182
-50.86251
-54.896777
-59.171739
-63.704979
-68.514938
-73.620966
-79.043342
-84.803319
-90.923141
-97.426075
-104.33641
-111.6795
-119.4817
-127.77044
-136.57412
-145.92209
-155.8446
-166.37271
-177.53818
-189.37331
-201.9108
-215.18352
-229.22422
-244.06527
-259.73828
-276.27365
-293.70008
-312.04401
-331.32895
-351.57471
-372.79659
-395.00438
-418.20135
-442.38306
-467.53609
-493.63667
-520.64922
-548.52477
-577.19939
-606.59256
-636.60552
-667.1197
-697.9953
-729.07
-760.158
-791.04934
-821.50984
-851.28144
-880.08337
-907.61408
-933.55405
-957.56963
-979.31791
-998.45264
-1014.6312
-1027.5221
-1036.8131
-1042.2191
-1043.4951
-1040.4491
-1032.9381
-1020.8761
-1004.2421
-983.0821
-957.50972
-927.70469
-893.90867
-856.41914
-815.58162
-771.78051
-725.42907
-676.95904
-626.81048
-575.42211
-523.22253
-470.6227
-418.00966
-365.74174
-314.1451
-263.51165
-214.09815
-166.12629
-119.78375
-75.225869
-32.577836
8.0627002
46.62285
83.051591
117.31687
149.40275
179.30678
207.03736
232.61147
256.05254
277.38854
296.65044
313.87059
329.08072
342.31008
353.5875
362.94973
370.4396
376.05081
379.64009
381.08958
-1.5151141
-3.3609105
-5.2883697
-7.2365338
-9.2181529
-11.242029
-13.317366
-15.453567
-17.660286
-19.947465
-22.325375
-24.804649
-27.39633
-30.111909
-32.963363
-35.963205
-39.124519
-42.461011
-45.987047
-49.717702
-53.668802
-57.85697
-62.299671
-67.015249
-72.02298
-77.343099
-82.99685
-89.006508
-95.395419
-102.18801
-109.40982
-117.08751
-125.24885
-133.92269
-143.13897
-152.92863
-163.32356
-174.35652
-186.06099
-198.47104
-211.62109
-225.54574
-240.27939
-255.85601
-272.3086
-289.66881
-307.96631
-327.22816
-347.47809
-368.73556
-391.01491
-414.32417
-438.66393
-464.02597
-490.39183
-517.73125
-546.00046
-575.14051
-605.07537
-635.71019
-666.92946
-698.59531
-730.54598
-762.59457
-794.52808
-826.10699
-857.06545
-887.11212
-915.93201
-943.1892
-968.53072
-991.59155
-1012.0009
-1029.3899
-1043.3995
-1053.6894
-1059.947
-1061.901
-1059.3386
-1052.0988
-1040.0826
-1023.2614
-1001.68
-975.45751
-944.78551
-909.92336
-871.19151
-828.9626
-783.65111
-735.70205
-685.57937
-633.75456
-580.69591
-526.85897
-472.67829
-418.56082
-364.88082
-311.97646
-260.14786
-209.65643
-160.72536
-113.54108
-68.255337
-24.987883
16.170517
55.1549
91.922855
126.45131
158.73345
188.77579
216.59546
242.21775
265.67386
286.99901
306.23074
323.40738
338.56594
351.74036
362.96346
372.27534
379.7215
385.29807
388.86442
390.3045
-1.4754828
-3.272533
-5.1492475
-7.0462281
-8.9759247
-10.946948
-12.968306
-15.049203
-17.199095
-19.427724
-21.745158
-24.161833
-26.688587
-29.33671
-32.11798
-35.04471
-38.12979
-41.386733
-44.829723
-48.473657
-52.334197
-56.427811
-60.77183
-65.384485
-70.284961
-75.493435
-81.031129
-86.920338
-93.18448
-99.848114
-106.93698
-114.47802
-122.49936
-131.03036
-140.10152
-149.74454
-159.99218
-170.87827
-182.43752
-194.70547
-207.71823
-221.51235
-236.12446
-251.59104
-267.94795
-285.23
-303.47041
-322.70014
-342.94716
-364.2356
-386.58476
-410.008
-434.51149
-460.09286
-486.73963
-514.42755
-543.11884
-572.76023
-603.28103
-634.59103
-666.57846
-699.10804
-732.0191
-765.12399
-798.2068
-831.02261
-863.29733
-894.72829
-924.98584
-953.71599
-980.54425
-1005.0809
-1026.9274
-1045.6849
-1060.963
-1072.3891
-1079.6189
-1082.3506
-1080.3465
-1073.4248
-1061.4711
-1044.4477
-1022.398
-995.44711
-963.80011
-927.73699
-887.60478
-843.80755
-796.79456
-747.04753
-695.06746
-641.36183
-586.43272
-530.76619
-474.82339
-419.03343
-363.78818
-309.43881
-256.29407
-204.61997
-154.64077
-106.54082
-60.467267
-16.533234
25.178699
64.612835
101.73672
136.53757
169.01891
199.19742
227.10001
252.76126
276.22103
297.52252
316.71057
333.83004
348.92376
362.03077
373.18827
382.43995
389.83422
395.36985
398.90919
400.3382
-1.4333149
-3.178
-5.0001245
-6.8420249
-8.7158394
-10.629974
-12.593223
-14.614578
-16.703277
-18.868847
-21.121138
-23.470363
-25.927144
-28.502549
-31.208138
-34.056004
-37.058825
-40.229901
-43.583213
-47.133461
-50.896121
-54.887489
-59.124742
-63.625976
-68.410269
-73.497723
-78.909521
-84.667966
-90.796536
-97.319911
-104.26403
-111.6561
-119.52466
-127.89951
-136.81181
-146.29399
-156.37976
-167.10403
-178.50286
-190.61329
-203.47327
-217.12139
-231.59668
-246.93831
-263.18521
-280.37561
-298.54655
-317.73324
-337.96829
-359.2809
-381.69584
-405.23232
-429.90275
-455.71122
-482.65196
-510.70756
-539.84697
-570.02354
-601.17271
-633.2098
-666.02765
-699.49431
-733.45087
-767.70944
-802.05152
-836.22681
-869.95268
-902.91443
-934.76659
-965.13539
-993.6226
-1019.8109
-1043.2707
-1063.5692
-1080.28
-1092.9938
-1101.3297
-1104.9509
-1103.5897
-1097.0401
-1085.1698
-1067.9303
-1045.3628
-1017.5993
-984.86031
-947.44966
-905.74514
-860.18713
-811.2651
-759.50304
-705.44445
-649.63798
-592.62408
-534.92328
-477.02651
-419.38746
-362.41723
-306.48093
-251.89625
-198.93359
-147.81755
-98.729421
-51.810505
-7.1658627
35.131597
75.036967
112.52924
147.60738
180.28659
210.59495
238.57032
264.25756
287.70612
308.96799
328.09598
345.14207
360.15543
373.18062
384.25958
393.43987
400.77301
406.2606
409.76833
411.18439
-1.3877681
-3.0763756
-4.8401047
-6.6230966
-8.4371426
-10.290427
-12.191513
-14.149162
-16.17238
-18.270458
-20.45301
-22.730013
-25.11185
-27.60935
-30.233833
-32.997158
-35.911765
-38.990724
-42.24779
-45.697445
-49.354958
-53.236434
-57.35887
-61.740209
-66.399402
-71.356453
-76.63249
-82.249804
-88.231918
-94.603623
-101.39104
-108.62166
-116.32438
-124.52951
-133.26882
-142.57555
-152.48434
-163.03127
-174.25375
-186.19046
-198.88123
-212.36684
-226.68883
-241.88926
-258.0103
-275.09389
-293.18116
-312.31187
-332.52369
-353.85131
-376.32549
-399.97186
-424.80966
-450.8502
-478.09519
-506.53483
-536.14578
-566.88889
-598.70676
-631.52121
-665.23067
-699.70744
-734.79521
-770.30654
-806.02081
-841.68253
-877.00039
-911.64707
-945.26017
-977.44447
-1007.7757
-1035.8058
-1061.0706
-1083.0989
-1101.4235
-1115.5931
-1125.1846
-1129.8213
-1129.1994
-1123.0842
-1111.3233
-1093.8551
-1070.7176
-1042.0506
-1008.0924
-969.17419
-925.70935
-878.18023
-827.12271
-773.10935
-716.73243
-658.5875
-599.25851
-539.30479
-479.25045
-419.57629
-360.71428
-303.04429
-246.89308
-192.53497
-140.19397
-90.047062
-42.228158
3.1673888
46.078071
86.471494
124.33977
159.69518
192.56609
222.99335
251.02693
276.72307
300.14174
321.34454
340.39294
357.34668
372.26172
385.18859
396.1743
405.27055
412.53215
417.96376
421.43473
422.83576
-1.3397284
-2.9687909
-4.6704497
-6.3908097
-8.1413023
-9.9298749
-11.764845
-13.654726
-15.608275
-17.63453
-19.742853
-21.942963
-24.244986
-26.659494
-29.197549
-31.870749
-34.691282
-37.671964
-40.826301
-44.168537
-47.713711
-51.47771
-55.477332
-59.730343
-64.25554
-69.072811
-74.203203
-79.668977
-85.493678
-91.702191
-98.320809
-105.37728
-112.90086
-120.92238
-129.47422
-138.59041
-148.30657
-158.65998
-169.68945
-181.43536
-193.93948
-207.2449
-221.39582
-236.43733
-252.41505
-269.37482
-287.36218
-306.42177
-326.59668
-347.92755
-370.45163
-394.20158
-419.20412
-445.47852
-473.03477
-501.87165
-531.97445
-563.31258
-595.8369
-629.47688
-664.13763
-699.69687
-736.00186
-772.86651
-810.06877
-847.34836
-884.40529
-920.89919
-956.44973
-990.63859
-1023.013
-1053.0912
-1080.3702
-1104.3358
-1124.4746
-1140.2871
-1151.3017
-1157.0954
-1157.3223
-1151.7147
-1140.0955
-1122.3875
-1098.6249
-1068.9559
-1033.6393
-993.03795
-947.60619
-897.87499
-844.4337
-787.9108
-728.95434
-668.21335
-606.32096
-543.88001
-481.45148
-419.54591
-358.61771
-299.06221
-241.21515
-185.354
-131.701
-80.427184
-31.65727
14.525045
58.071636
98.964569
137.21095
172.83809
205.88916
236.41916
264.49149
290.17489
313.54082
334.66131
353.60722
370.44661
385.24277
398.05257
408.92843
417.92644
425.10487
430.47163
433.90012
435.2838
-1.2885609
-2.8545738
-4.490557
-6.144654
-7.8279046
-9.5480028
-11.313004
-13.131155
-15.010949
-16.961152
-18.990855
-21.109504
-23.326949
-25.653482
-28.099888
-30.677486
-33.398186
-36.274529
-39.319752
-42.547833
-45.973559
-49.612573
-53.481452
-57.597755
-61.980103
-66.648239
-71.623104
-76.926902
-82.58318
-88.616891
-95.054476
-101.92392
-109.25486
-117.07857
-125.42807
-134.3382
-143.84556
-153.98862
-164.80766
-176.34478
-188.64381
-201.75021
-215.71094
-230.57426
-246.38947
-263.20651
-281.07558
-300.04654
-320.16828
-341.48784
-364.04949
-387.89349
-413.05477
-439.5613
-467.43227
-496.67597
-527.28742
-559.24573
-592.51126
-627.02239
-662.69226
-699.40525
-737.01348
-775.33332
-814.14218
-853.17565
-892.12531
-930.63747
-968.31302
-1004.7089
-1039.3415
-1071.692
-1101.2142
-1127.3458
-1149.521
-1167.1854
-1179.812
-1186.9233
-1188.1243
-1183.1092
-1171.6712
-1153.7145
-1129.2685
-1098.4903
-1061.6625
-1019.1843
-971.55753
-919.36942
-863.27101
-803.95508
-742.13354
-678.51622
-613.79182
-548.6119
-483.57825
-419.23379
-356.05692
-294.45894
-234.78414
-177.31213
-122.26171
-69.796042
-20.028473
26.971232
71.170604
112.56837
151.18868
187.07584
220.28948
250.90035
278.98661
304.63066
327.91645
348.9273
367.74416
384.44399
399.0979
411.76949
422.51689
431.40082
438.48315
443.77525
447.15492
448.51867
-1.2349456
-2.7346158
-4.3014463
-5.8857586
-7.4981857
-9.1461532
-10.837438
-12.580006
-14.382065
-16.252097
-18.198901
-20.23163
-22.359839
-24.593523
-26.943167
-29.41979
-32.035001
-34.801044
-37.730862
-40.838144
-44.137396
-47.643996
-51.374265
-55.345533
-59.576213
-64.085874
-68.895324
-74.02668
-79.50346
-85.350656
-91.594832
-98.264195
-105.3887
-113.00009
-121.13201
-129.82006
-139.10185
-149.01707
-159.60746
-170.91688
-182.99126
-195.87853
-209.62851
-224.29278
-239.92442
-256.57774
-274.30783
-293.1701
-313.2196
-334.51023
-357.0938
-381.01879
-406.32905
-433.0621
-461.24721
-490.90326
-522.03612
-554.63593
-588.67384
-624.09865
-660.833
-698.76947
-737.76651
-777.64433
-818.18102
-859.10893
-900.11175
-940.82243
-980.82242
-1019.6425
-1056.7656
-1091.6324
-1123.6491
-1152.1993
-1176.6581
-1196.4087
-1210.8601
-1219.4719
-1221.7913
-1217.4677
-1206.2593
-1188.0479
-1162.8562
-1130.8518
-1092.3441
-1047.7743
-997.69977
-942.7724
-883.71466
-821.2933
-756.29335
-689.49379
-621.64602
-553.456
-485.57052
-418.56766
-352.95118
-289.14855
-227.51192
-168.32149
-111.79062
-58.072198
-7.2656207
40.575925
85.438224
127.33913
166.32216
202.45067
235.80264
266.46619
294.53567
320.10835
343.2817
364.15118
382.80851
399.34015
413.82545
426.33516
436.93338
445.68565
452.65761
457.8642
461.18807
462.52909
-1.1784754
-2.6085302
-4.1028278
-5.6139468
-7.152085
-8.7243836
-10.338324
-12.001576
-13.722044
-15.507907
-17.367656
-19.310133
-21.344577
-23.480664
-25.728559
-28.09896
-30.603153
-33.253059
-36.061302
-39.041257
-42.207122
-45.573978
-49.157865
-52.97585
-57.04611
-61.388006
-66.022178
-70.970623
-76.256795
-81.905694
-87.943972
-94.40002
-101.30409
-108.68837
-116.58708
-125.03659
-134.0755
-143.74469
-154.08739
-165.14926
-176.97834
-189.62509
-203.14228
-217.58491
-233.01003
-249.47646
-267.04446
-285.77527
-305.73048
-326.97129
-349.55756
-373.54667
-398.99208
-425.94171
-454.43594
-484.5053
-516.16782
-549.42598
-584.26332
-620.64061
-658.49176
-697.71929
-738.18974
-779.72886
-822.11692
-865.08429
-908.30761
-951.40677
-993.94331
-1035.4205
-1075.2856
-1112.935
-1147.7224
-1178.971
-1205.9892
-1228.0891
-1244.6065
-1254.9275
-1258.5315
-1255.0152
-1244.0955
-1225.6267
-1199.6233
-1166.2642
-1125.8896
-1078.9896
-1026.1855
-968.2047
-905.85214
-839.9798
-771.45646
-701.13975
-629.85172
-558.35899
-487.3578
-417.46411
-349.20826
-283.03377
-219.29943
-158.28404
-100.19299
-45.165986
6.7145944
55.415194
100.94281
143.3372
182.66378
219.00723
252.46591
283.14705
311.16264
336.62608
359.64941
380.34106
398.80422
415.13539
429.42262
441.7441
452.1702
460.77145
467.61732
472.72653
475.98696
477.30214
-1.1196347
-2.476985
-3.8954994
-5.330134
-6.7906343
-8.2838425
-9.8169288
-11.397249
-13.03239
-14.730208
-16.498868
-18.346881
-20.283151
-22.317018
-24.458302
-26.717358
-29.105123
-31.633175
-34.313789
-37.159999
-40.185668
-43.40555
-46.835372
-50.491904
-54.393052
-58.557934
-63.006986
-67.762045
-72.846465
-78.285209
-84.104978
-90.33431
-97.003716
-104.14578
-111.79527
-119.98931
-128.76743
-138.17172
-148.24687
-159.04034
-170.60232
-182.98582
-196.24662
-210.44326
-225.63686
-241.89095
-259.27117
-277.84487
-297.68053
-318.8471
-341.41302
-365.44517
-391.00743
-418.15899
-446.95235
-477.4309
-509.62614
-543.55445
-579.21338
-616.57754
-655.59401
-696.1773
-738.20412
-781.50776
-825.8726
-871.02866
-916.64674
-962.33435
-1007.633
-1052.0174
-1094.8967
-1135.6195
-1173.4816
-1207.7391
-1237.6253
-1262.3711
-1281.2282
-1293.4975
-1298.5782
-1296.0053
-1285.4459
-1266.7217
-1239.8362
-1204.9807
-1162.5311
-1113.034
-1057.1854
-995.80009
-929.77887
-860.07197
-787.6442
-713.44263
-638.3689
-563.25708
-488.85759
-415.82693
-344.72294
-276.00459
-210.03556
-147.09067
-87.364128
-30.978975
22.002999
71.571408
117.75781
160.62699
200.26904
236.79245
270.3181
300.97414
328.89178
354.20183
377.03189
397.50424
415.7342
431.8288
445.8852
457.98934
468.21807
476.64705
483.34966
488.34854
491.53721
492.8232
-1.05821
-2.3398356
-3.6794357
-5.0344246
-6.4140704
-7.8249007
-9.2737584
-10.767668
-12.313884
-13.919921
-15.593599
-17.343081
-19.176917
-21.104084
-23.134042
-25.276775
-27.542852
-29.943475
-32.49055
-35.196739
-38.075538
-41.141343
-44.409534
-47.89655
-51.619987
-55.598683
-59.852825
-64.404051
-69.275566
-74.492255
-80.080819
-86.069892
-92.490199
-99.37467
-106.75859
-114.67977
-123.17864
-132.29846
-142.08538
-152.58862
-163.86052
-175.95668
-188.93593
-202.8604
-217.79539
-233.8093
-250.97334
-269.36124
-289.04872
-310.11286
-332.63125
-356.6809
-382.33685
-409.6705
-438.74753
-469.62547
-502.35071
-536.95517
-573.45225
-611.83241
-652.05809
-694.05814
-737.72182
-782.89242
-829.3607
-876.85846
-925.05237
-973.53867
-1021.8392
-1069.3991
-1115.5877
-1159.7017
-1200.9739
-1238.5855
-1271.6852
-1299.4119
-1320.9203
-1335.4126
-1342.193
-1340.7233
-1330.6115
-1311.6396
-1283.7969
-1247.2884
-1202.5309
-1150.1373
-1090.8902
-1025.7067
-955.59862
-881.62992
-804.87556
-726.38438
-647.14757
-568.07412
-489.97348
-413.54527
-339.3753
-267.9368
-199.59593
-134.62014
-73.188567
-15.40343
38.698283
89.13341
135.96187
179.27691
219.19638
255.85526
289.39922
319.97927
347.74742
372.85315
395.4407
415.64696
433.60003
449.41797
463.20736
475.06217
485.06592
493.29947
499.84016
504.71464
507.82253
509.07567
-0.9945391
-2.1975864
-3.4552775
-4.7275888
-6.0232928
-7.3485877
-8.7099738
-10.114129
-11.567955
-13.078611
-14.653555
-16.300579
-18.027858
-19.843991
-21.75805
-23.779629
-25.918899
-28.186666
-30.594433
-33.154462
-35.879852
-38.784606
-41.883721
-45.193268
-48.730492
-52.513907
-56.563409
-60.900386
-65.547847
-70.530544
-75.875126
-81.610268
-87.76685
-94.378091
-101.47973
-109.11021
-117.31082
-126.12593
-135.6031
-145.79328
-156.75096
-168.5343
-181.20519
-194.82942
-209.47655
-225.21994
-242.13658
-260.30679
-279.81385
-300.74341
-323.18268
-347.21944
-372.94066
-400.4309
-429.77014
-461.03135
-494.27737
-529.5574
-566.9027
-606.32181
-647.795
-691.26809
-736.6457
-783.78393
-832.48281
-882.47848
-933.43578
-984.94135
-1036.4981
-1087.5215
-1137.339
-1185.192
-1230.2442
-1271.5942
-1308.2955
-1339.3822
-1363.8978
-1380.9295
-1389.6689
-1389.4911
-1379.9329
-1360.728
-1331.848
-1293.5127
-1246.1861
-1190.5583
-1127.5134
-1058.0883
-983.42399
-904.71602
-823.166
-739.93859
-656.12571
-572.71931
-490.5929
-410.49149
-333.02877
-258.69034
-187.84147
-120.73802
-57.539305
1.6782463
56.907335
108.19667
155.6388
199.35925
239.50701
276.24639
309.75026
340.19451
367.75355
392.59684
414.88624
434.77407