/*--------------------------------*- C++ -*----------------------------------*\
| =========                 |                                                 |
| \\      /  F ield         | foam-extend: Open Source CFD                    |
|  \\    /   O peration     | Version:     4.1                                |
|   \\  /    A nd           | Web:         http://www.foam-extend.org         |
|    \\/     M anipulation  |                                                 |
\*---------------------------------------------------------------------------*/
FoamFile
{
    version     2.0;
    format      ascii;
    class       surfaceScalarField;
    location    "0.2";
    object      phi;
}
// * * * * * * * * * * * * * * * * * * * * * * * * * * * * * * * * * * * * * //

dimensions      [0 3 -1 0 0 0 0];

internalField   nonuniform List<scalar> 
32976
(
-0.24552728
2.3153373e-05
-0.24555052
2.3235927e-05
-0.24557394
2.3419168e-05
-0.24559764
2.3707139e-05
-0.24562174
2.4100325e-05
-0.24564634
2.4600576e-05
-0.24567155
2.5209339e-05
-0.24569748
2.5929259e-05
-0.24572425
2.6762548e-05
-0.24575196
2.7712655e-05
-0.24578074
2.8782546e-05
-0.24581072
2.9976476e-05
-0.24584202
3.1298156e-05
-0.24587477
3.2752649e-05
-0.24590911
3.4344387e-05
-0.24594519
3.6079233e-05
-0.24598315
3.7962303e-05
-0.24602315
4.0000232e-05
-0.24606535
4.2198765e-05
-0.24610992
4.4565253e-05
-0.24615702
4.7105981e-05
-0.24620685
4.9828929e-05
-0.24625959
5.2740785e-05
-0.24631544
5.5850021e-05
-0.24637461
5.9163537e-05
-0.2464373
6.2690093e-05
-0.24650373
6.6436532e-05
-0.24657415
7.0411612e-05
-0.24664877
7.4621752e-05
-0.24672784
7.9075312e-05
-0.24681162
8.3777795e-05
-0.24690036
8.8736265e-05
-0.24699431
9.3956133e-05
-0.24709375
9.9440595e-05
-0.24719895
0.00010519432
-0.24731017
0.00011121731
-0.24742768
0.00011751117
-0.24755175
0.00012407189
-0.24768264
0.0001308968
-0.24782062
0.00013797645
-0.24796592
0.00014530238
-0.24811878
0.00015285824
-0.24827941
0.00016062715
-0.24844799
0.00016858544
-0.2486247
0.00017670505
-0.24880965
0.00018495212
-0.24900294
0.00019328641
-0.2492046
0.00020166123
-0.24941462
0.00021002203
-0.24963293
0.00021830668
-0.24985937
0.00022644464
-0.25009373
0.00023435659
-0.25033568
0.00024195403
-0.25058482
0.0002491396
-0.25084063
0.00025580599
-0.25110247
0.00026183713
-0.25136957
0.00026710803
-0.25164106
0.00027148551
-0.25191589
0.00027482905
-0.25219288
0.00027699258
-0.25247071
0.00027782504
-0.25274788
0.00027717354
-0.25302277
0.00027488529
-0.25329358
0.00027081058
-0.25355838
0.00026480617
-0.25381512
0.00025673885
-0.25406161
0.0002464901
-0.25429557
0.00023395929
-0.25451464
0.00021906935
-0.25471641
0.00020177069
-0.25489846
0.00018204574
-0.25505837
0.000159913
-0.2551938
0.00013543086
-0.2553025
0.00010869976
-0.25538236
7.986454e-05
-0.25543148
4.9114895e-05
-0.25544816
1.6685383e-05
-0.25543102
-1.7145307e-05
-0.25537896
-5.2063103e-05
-0.25529123
-8.7722056e-05
-0.25516748
-0.00012374941
-0.25500773
-0.00015975369
-0.2548124
-0.00019533365
-0.25458231
-0.00023008774
-0.25431869
-0.00026362365
-0.25402312
-0.00029556786
-0.25369754
-0.0003255744
-0.25334421
-0.00035333267
-0.25296564
-0.00037857396
-0.25256456
-0.00040107637
-0.25214389
-0.00042066882
-0.25170666
-0.00043723106
-0.25125597
-0.00045069506
-0.25079492
-0.00046104258
-0.25032662
-0.00046830217
-0.24985408
-0.00047254497
-0.2493802
-0.00047387938
-0.24890775
-0.00047244638
-0.24843934
-0.00046841151
-0.24797738
-0.00046196081
-0.24752408
-0.00045329388
-0.24708147
-0.0004426185
-0.24665132
-0.00043014532
-0.24623524
-0.00041608424
-0.2458346
-0.00040063866
-0.24545059
-0.00038400404
-0.24508423
-0.00036636438
-0.24473634
-0.00034789041
-0.2444076
-0.00032873804
-0.24409855
-0.00030904817
-0.24380961
-0.00028894489
-0.24354107
-0.00026853682
-0.24329315
-0.00024791675
-0.24306599
-0.00022716231
-0.24285965
-0.00020633671
-0.24267416
-0.00018549013
-0.2425095
-0.00016465987
-0.24236563
-0.00014387245
-0.24224249
-0.0001231443
-0.24214
-0.00010248318
-0.24205812
-8.1889526e-05
-0.24199676
-6.135779e-05
-0.24195588
-4.0876779e-05
-2.0430573e-05
-0.24553733
4.6259843e-05
-0.24556052
4.6425553e-05
-0.2455839
4.6791818e-05
-0.24560756
4.7367305e-05
-0.24563161
4.8153027e-05
-0.24565616
4.9152698e-05
-0.24568132
5.0369219e-05
-0.2457072
5.180788e-05
-0.24573391
5.3473105e-05
-0.24576157
5.5371791e-05
-0.2457903
5.7509871e-05
-0.24582022
5.9895858e-05
-0.24585145
6.2537172e-05
-0.24588415
6.5443943e-05
-0.24591843
6.8625037e-05
-0.24595444
7.2092184e-05
-0.24599233
7.5855622e-05
-0.24603226
7.9928627e-05
-0.24607438
8.4322698e-05
-0.24611887
8.905255e-05
-0.2461659
9.4130762e-05
-0.24621564
9.9573314e-05
-0.24626829
0.0001053936
-0.24632405
0.00011160859
-0.24638312
0.00011823211
-0.24644571
0.00012528172
-0.24651205
0.00013277114
-0.24658235
0.00014071792
-0.24665687
0.00014913497
-0.24673583
0.00015803907
-0.24681949
0.00016744128
-0.24690811
0.00017735582
-0.24700195
0.0001877936
-0.24710127
0.00019876111
-0.24720635
0.00021026781
-0.24731744
0.00022231381
-0.24743483
0.0002349025
-0.24755879
0.00024802597
-0.24768957
0.00026167907
-0.24782744
0.00027584308
-0.24797263
0.00029050128
-0.2481254
0.00030562119
-0.24828594
0.00032116927
-0.24845445
0.00033709841
-0.2486311
0.00035335275
-0.24881601
0.00036986478
-0.24900928
0.00038655433
-0.24921095
0.00040332821
-0.249421
0.00042007755
-0.24963938
0.00043667835
-0.24986592
0.00045298967
-0.25010042
0.00046885303
-0.25034255
0.00048409151
-0.25059193
0.00049851038
-0.25084801
0.00051189499
-0.25111019
0.00052401301
-0.2513777
0.00053461418
-0.25164964
0.00054343172
-0.251925
0.00055018399
-0.25220258
0.00055457813
-0.25248107
0.0005563111
-0.25275897
0.00055507601
-0.25303465
0.00055056595
-0.25330632
0.00054248005
-0.25357205
0.00053053014
-0.25382975
0.00051444801
-0.25407726
0.00049399466
-0.25431227
0.00046896688
-0.25453241
0.00043920849
-0.25473525
0.0004046184
-0.25491837
0.00036515971
-0.25507932
0.00032086783
-0.25521575
0.00027185842
-0.25532538
0.00021833156
-0.25540609
0.00016057682
-0.25545595
9.8974074e-05
-0.25547326
3.3993618e-05
-0.2554566
-3.3806772e-05
-0.25540487
-0.0001037964
-0.25531731
-0.00017528018
-0.25519355
-0.00024750909
-0.25503361
-0.00031969635
-0.2548379
-0.00039103531
-0.25460727
-0.00046071866
-0.25434294
-0.00052795766
-0.25404651
-0.00059200138
-0.25371993
-0.00065215439
-0.25336547
-0.00070779257
-0.25298566
-0.00075837629
-0.25258328
-0.00080346021
-0.25216125
-0.00084270142
-0.25172262
-0.00087585937
-0.25127052
-0.00090279871
-0.25080807
-0.00092348422
-0.2503384
-0.00093797481
-0.24986453
-0.00094641494
-0.24938939
-0.00094902388
-0.24891575
-0.00094608619
-0.24844622
-0.00093793563
-0.24798324
-0.00092494688
-0.24752901
-0.00090752161
-0.24708555
-0.00088607766
-0.24665466
-0.00086103837
-0.24623792
-0.00083282529
-0.24583671
-0.0008018467
-0.24545222
-0.00076849472
-0.24508544
-0.00073313827
-0.24473721
-0.00069611947
-0.2444082
-0.00065775059
-0.24409894
-0.00061831365
-0.24380982
-0.00057805686
-0.24354116
-0.00053719739
-0.24329316
-0.00049592054
-0.24306594
-0.00045438128
-0.24285957
-0.00041270563
-0.24267407
-0.00037099347
-0.24250941
-0.00032931892
-0.24236555
-0.00028773447
-0.24224242
-0.00024627246
-0.24213995
-0.00020494787
-0.24205808
-0.00016376097
-0.24199674
-0.0001227001
-0.24195588
-8.1742441e-05
-4.0855797e-05
-0.24555674
6.9275541e-05
-0.24557984
6.9523972e-05
-0.24560312
7.0072627e-05
-0.24562669
7.0934692e-05
-0.24565065
7.211167e-05
-0.2456751
7.3609139e-05
-0.24570016
7.5431453e-05
-0.24572594
7.7586546e-05
-0.24575255
8.0081059e-05
-0.2457801
8.2925334e-05
-0.24580872
8.6128273e-05
-0.24583853
8.9702648e-05
-0.24586965
9.3659591e-05
-0.24590222
9.8014305e-05
-0.24593638
0.0001027801
-0.24597226
0.00010797456
-0.24601002
0.00011361309
-0.2460498
0.0001197156
-0.24609178
0.00012629936
-0.24613611
0.00013338647
-0.24618298
0.00014099585
-0.24623256
0.00014915149
-0.24628504
0.00015787355
-0.24634062
0.00016718752
-0.2463995
0.00017711424
-0.2464619
0.00018768011
-0.24652803
0.00019890582
-0.24659813
0.00021081782
-0.24667243
0.00022343559
-0.24675118
0.00023678444
-0.24683462
0.00025088117
-0.24692301
0.00026574728
-0.24701661
0.00028139936
-0.2471157
0.00029784742
-0.24722054
0.0003151059
-0.2473314
0.00033317531
-0.24744856
0.00035206106
-0.24757228
0.0003717517
-0.24770285
0.00039223989
-0.2478405
0.00041349801
-0.2479855
0.0004355015
-0.24813808
0.00045820214
-0.24829846
0.00048155018
-0.24846684
0.00050547555
-0.24864338
0.00052989506
-0.24882823
0.00055470805
-0.24902147
0.00057979487
-0.24922315
0.00060501636
-0.24943329
0.00063020979
-0.2496518
0.00065518964
-0.24987855
0.00067974499
-0.25011334
0.00070363845
-0.25035585
0.00072660485
-0.25060569
0.00074835214
-0.25086236
0.00076855816
-0.25112522
0.00078687401
-0.25139353
0.00080292358
-0.2516664
0.00081630567
-0.25194281
0.0008265964
-0.25222159
0.00083335463
-0.2525014
0.00083612352
-0.25278077
0.00083443998
-0.25305804
0.00082784043
-0.25333143
0.00081586987
-0.25359899
0.00079809189
-0.25385864
0.00077409969
-0.25410818
0.00074352996
-0.25434529
0.0007060729
-0.25456757
0.00066148924
-0.25477257
0.00060962248
-0.25495782
0.00055041275
-0.25512086
0.00048390927
-0.25525929
0.00041028242
-0.25537079
0.00032983031
-0.2554532
0.00024298662
-0.25550455
0.00015032205
-0.2555231
5.2544303e-05
-0.2555074
-4.9507064e-05
-0.25545631
-0.00015487958
-0.25536907
-0.00026252282
-0.25524527
-0.00037130441
-0.25508494
-0.00048003435
-0.25488848
-0.00058749225
-0.25465674
-0.00069245644
-0.25439097
-0.00079373335
-0.25409278
-0.00089018681
-0.25376417
-0.00098076497
-0.25340744
-0.0010645244
-0.25302516
-0.00114065
-0.25262015
-0.0012084701
-0.25219539
-0.0012674686
-0.25175396
-0.0013172847
-0.25129904
-0.0013577172
-0.25083381
-0.0013887167
-0.25036141
-0.0014103761
-0.24988491
-0.0014229179
-0.24940725
-0.0014266771
-0.24893125
-0.0014220874
-0.24845953
-0.001409656
-0.24799453
-0.0013899515
-0.24753847
-0.0013635827
-0.24709336
-0.001331182
-0.24666101
-0.0012933895
-0.24624299
-0.001250842
-0.24584069
-0.0012041555
-0.24545526
-0.0011539211
-0.2450877
-0.0011006944
-0.24473883
-0.0010449903
-0.2444093
-0.00098727818
-0.24409964
-0.00092798156
-0.24381022
-0.00086747282
-0.24354134
-0.00080607738
-0.24329319
-0.00074407263
-0.24306588
-0.00068169014
-0.24285947
-0.00061911791
-0.24267396
-0.00055650456
-0.24250932
-0.00049396002
-0.24236549
-0.00043156168
-0.2422424
-0.00036935666
-0.24213999
-0.00030736605
-0.24205816
-0.00024558881
-0.24199685
-0.00018400608
-0.24195601
-0.00012258237
-6.1267911e-05
-0.245585
9.2155208e-05
-0.24560796
9.248596e-05
-0.24563111
9.3216104e-05
-0.24565453
9.436333e-05
-0.24567835
9.5929633e-05
-0.24570267
9.7922456e-05
-0.24572758
0.00010034761
-0.24575321
0.00010321566
-0.24577967
0.00010653548
-0.24580706
0.00011032085
-0.24583552
0.00011458365
-0.24586515
0.00011934089
-0.2458961
0.00012460745
-0.24592849
0.00013040359
-0.24596246
0.00013674708
-0.24599815
0.00014366139
-0.2460357
0.00015116707
-0.24607527
0.0001592907
-0.24611703
0.00016805536
-0.24616114
0.00017749057
-0.24620776
0.0001876216
-0.24625709
0.00019848054
-0.24630931
0.00021009434
-0.24636462
0.00022249712
-0.24642322
0.00023571679
-0.24648533
0.00024978869
-0.24655117
0.00026474062
-0.24662096
0.00028060804
-0.24669494
0.00029741717
-0.24677336
0.00031520205
-0.24685646
0.00033398541
-0.24694451
0.00035379626
-0.24703777
0.00037465717
-0.2471365
0.00039658193
-0.24724099
0.00041959034
-0.24735149
0.00044368365
-0.2474683
0.00046886975
-0.24759168
0.00049513407
-0.24772191
0.00052246761
-0.24785925
0.00055083442
-0.24800395
0.00058020263
-0.24815626
0.00061050896
-0.24831639
0.00064168812
-0.24848457
0.00067364776
-0.24866095
0.00070627809
-0.24884569
0.00073944607
-0.24903889
0.00077299331
-0.24924061
0.00080673538
-0.24945085
0.0008404564
-0.24966957
0.00087390999
-0.24989664
0.00090681576
-0.25013186
0.00093885783
-0.25037494
0.00096968307
-0.25062549
0.00099890215
-0.25088302
0.0010260852
-0.25114691
0.0010507663
-0.25141643
0.0010724427
-0.2516907
0.0010905774
-0.25196871
0.0011046026
-0.25224928
0.0011139268
-0.25253109
0.0011179365
-0.25281266
0.0011160092
-0.25309234
0.0011075207
-0.25336833
0.0010918573
-0.25363867
0.0010684296
-0.25390125
0.0010366866
-0.25415386
0.00099613495
-0.25439414
0.00094635216
-0.25461966
0.0008870098
-0.25482793
0.00081789003
-0.25501642
0.00073890454
-0.25518262
0.00065011156
-0.25532407
0.00055173242
-0.2554384
0.00044416074
-0.25552339
0.0003279734
-0.255577
0.00020393278
-0.25559744
7.2986522e-05
-0.25558321
-6.3739341e-05
-0.25553313
-0.00020496322
-0.25544638
-0.00034927045
-0.25532255
-0.00049513465
-0.25516163
-0.0006409507
-0.25496405
-0.00078507168
-0.25473066
-0.00092584855
-0.25446272
-0.0010616701
-0.25416191
-0.0011910031
-0.25383024
-0.0013124284
-0.25347009
-0.0014246745
-0.2530841
-0.0015266441
-0.25267513
-0.0016174346
-0.25224625
-0.0016963545
-0.25180061
-0.001762923
-0.25134145
-0.0018168755
-0.25087202
-0.0018581523
-0.25039551
-0.0018868864
-0.24991504
-0.0019033847
-0.24943361
-0.0019081061
-0.24895406
-0.0019016411
-0.24847903
-0.0018846789
-0.24801099
-0.00185799
-0.24755218
-0.0018223978
-0.24710461
-0.0017787562
-0.24667007
-0.0017279282
-0.24625014
-0.0016707709
-0.24584618
-0.0016081126
-0.24545935
-0.0015407471
-0.24509063
-0.0014694191
-0.2447408
-0.0013948183
-0.24441051
-0.0013175722
-0.24410024
-0.0012382466
-0.24381038
-0.001157338
-0.24354118
-0.0010752797
-0.24329281
-0.00099244036
-0.24306537
-0.00090912715
-0.2428589
-0.00082558875
-0.24267338
-0.00074202112
-0.24250878
-0.00065856841
-0.24236501
-0.0005753313
-0.24224199
-0.00049237007
-0.24213965
-0.00040971019
-0.24205789
-0.00032734765
-0.24199664
-0.00024525474
-0.24195584
-0.00016338165
-8.1659179e-05
-0.2456226
0.0001148538
-0.24564539
0.00011526676
-0.24566835
0.00011617728
-0.24569159
0.0001176078
-0.24571522
0.00011956087
-0.24573935
0.0001220458
-0.24576407
0.00012506986
-0.2457895
0.00012864628
-0.24581575
0.00013278612
-0.24584293
0.00013750662
-0.24587117
0.00014282262
-0.24590059
0.00014875543
-0.2459313
0.00015532361
-0.24596345
0.00016255252
-0.24599717
0.0001704644
-0.2460326
0.00017908862
-0.24606988
0.00018845089
-0.24610918
0.0001985845
-0.24615064
0.00020951837
-0.24619444
0.00022128947
-0.24624075
0.0002339295
-0.24628974
0.00024747868
-0.24634162
0.00026197088
-0.24639657
0.00027744889
-0.2464548
0.00029394783
-0.24651653
0.00031151212
-0.24658196
0.0003301768
-0.24665134
0.00034998653
-0.2467249
0.0003709745
-0.24680288
0.0003931837
-0.24688554
0.00041664305
-0.24697313
0.00044138943
-0.24706593
0.00046745169
-0.24716419
0.00049484785
-0.2472682
0.00052360349
-0.24737824
0.00055372113
-0.24749458
0.00058521165
-0.24761751
0.00061805802
-0.24774729
0.00065225023
-0.2478842
0.00068774472
-0.2480285
0.00072450313
-0.24818044
0.00076244795
-0.24834025
0.00080149923
-0.24850815
0.00084154332
-0.24868431
0.00088244477
-0.24886891
0.00092403917
-0.24906204
0.0009661304
-0.2492638
0.0010084897
-0.24947419
0.0010508491
-0.24969318
0.0010929021
-0.24992067
0.0011342997
-0.25015646
0.001174648
-0.25040028
0.0012135064
-0.25065177
0.0012503883
-0.25091044
0.0012847561
-0.2511757
0.0013160261
-0.25144682
0.0013435676
-0.25172295
0.0013667067
-0.25200308
0.0013847291
-0.25228604
0.0013968901
-0.25257052
0.001402416
-0.25285503
0.0014005202
-0.25313792
0.001390413
-0.25341738
0.0013713161
-0.25369143
0.00134248
-0.25395795
0.0013032025
-0.25421467
0.0012528522
-0.2544592
0.0011908858
-0.25468907
0.0011168774
-0.25490172
0.0010305398
-0.25509456
0.00093174864
-0.25526501
0.00082056459
-0.25541054
0.00069725465
-0.25552868
0.00056230447
-0.25561714
0.00041643275
-0.2556738
0.00026059451
-0.2556968
9.5980933e-05
-0.25568455
-7.5988976e-05
-0.25563581
-0.00025369468
-0.25554974
-0.00043534533
-0.25542587
-0.0006190061
-0.25526418
-0.00080264058
-0.25506509
-0.00098415802
-0.25482948
-0.0011614643
-0.25455863
-0.0013325131
-0.25425428
-0.0014953578
-0.25391851
-0.0016481977
-0.25355376
-0.0017894211
-0.25316277
-0.0019176393
-0.25274849
-0.0020317128
-0.25231407
-0.0021307719
-0.25186278
-0.0022142162
-0.25139793
-0.0022817206
-0.25092286
-0.0023332213
-0.25044085
-0.0023688989
-0.24995508
-0.0023891547
-0.24946861
-0.0023945814
-0.24898431
-0.0023859379
-0.24850488
-0.0023641063
-0.2480328
-0.0023300697
-0.24757032
-0.0022848763
-0.24711947
-0.0022296108
-0.24668203
-0.0021653674
-0.24625957
-0.0020932308
-0.24585344
-0.0020142472
-0.24546477
-0.0019294174
-0.24509451
-0.0018396794
-0.24474342
-0.0017458995
-0.24441213
-0.0016488655
-0.24410109
-0.0015492857
-0.24381065
-0.001447781
-0.24354104
-0.0013448918
-0.2432924
-0.001241077
-0.24306481
-0.0011367179
-0.24285828
-0.0010321222
-0.24267277
-0.00092753107
-0.24250821
-0.00082312095
-0.24236453
-0.00071901357
-0.24224162
-0.00061528013
-0.24213938
-0.00051194824
-0.24205772
-0.00040900865
-0.24199655
-0.00030642262
-0.24195581
-0.00020412381
-0.00010202116
-0.24566935
0.00013732866
-0.24569191
0.00013782216
-0.24571464
0.00013891133
-0.24573766
0.00014062274
-0.24576106
0.00014295936
-0.24578494
0.00014593234
-0.24580942
0.00014955042
-0.24583461
0.00015382943
-0.2458606
0.00015878269
-0.24588753
0.00016443086
-0.2459155
0.00017079177
-0.24594463
0.00017789098
-0.24597506
0.00018575079
-0.24600691
0.00019440166
-0.24604032
0.00020387029
-0.24607542
0.00021419197
-0.24611237
0.00022539764
-0.24615131
0.00023752728
-0.24619241
0.00025061573
-0.24623582
0.00026470744
-0.24628173
0.00027984062
-0.24633032
0.00029606369
-0.24638177
0.00031341753
-0.24643627
0.00033195375
-0.24649404
0.00035171478
-0.24655528
0.00037275431
-0.24662022
0.0003951148
-0.24668908
0.00041885035
-0.24676211
0.00044400136
-0.24683955
0.00047062005
-0.24692164
0.00049874193
-0.24700867
0.00052841209
-0.24710088
0.00055966613
-0.24719856
0.00059252679
-0.24730198
0.00062702597
-0.24741143
0.00066316812
-0.24752719
0.00070096779
-0.24764953
0.00074040625
-0.24777876
0.00078147334
-0.24791513
0.00082411877
-0.24805893
0.00086829872
-0.2482104
0.00091392247
-0.2483698
0.00096089657
-0.24853734
0.0010090872
-0.24871323
0.0010583346
-0.24889764
0.0011084441
-0.24909069
0.0011591832
-0.24929248
0.0012102802
-0.24950305
0.0012614159
-0.24972237
0.0013122252
-0.24995036
0.001362291
-0.25018686
0.0014111426
-0.2504316
0.0014582523
-0.25068425
0.0015030364
-0.25094434
0.0015448492
-0.25121131
0.0015829886
-0.25148443
0.0016166951
-0.25176288
0.0016451551
-0.25204566
0.0016675058
-0.25233161
0.0016828452
-0.25261943
0.0016902351
-0.25290763
0.0016887195
-0.25319456
0.0016773363
-0.25347837
0.0016551353
-0.25375709
0.0016211987
-0.25402855
0.0015746634
-0.25429045
0.0015147501
-0.25454035
0.0014407843
-0.25477571
0.001352232
-0.25499389
0.0012487263
-0.25519224
0.0011300971
-0.25536807
0.00099639896
-0.25551876
0.00084793759
-0.25564174
0.00068528595
-0.25573461
0.00050930255
-0.25579515
0.00032113613
-0.2558214
0.00012222583
-0.25581168
-8.5708126e-05
-0.25576468
-0.00030069372
-0.25567947
-0.00052054884
-0.25555557
-0.00074291189
-0.25539291
-0.00096529441
-0.25519193
-0.0011851396
-0.25495351
-0.0013998854
-0.254679
-0.0016070283
-0.25437017
-0.001804187
-0.2540292
-0.001989161
-0.25365864
-0.0021599828
-0.25326132
-0.0023149606
-0.25284032
-0.0024527105
-0.25239891
-0.0025721811
-0.25194048
-0.0026726528
-0.25146845
-0.0027537447
-0.25098628
-0.0028153964
-0.25049733
-0.0028578463
-0.25000488
-0.002881602
-0.24951206
-0.0028874043
-0.2490218
-0.0028761939
-0.24853685
-0.0028490604
-0.24805971
-0.0028072134
-0.24759264
-0.0027519388
-0.24713769
-0.002684564
-0.24669663
-0.0026064245
-0.24627102
-0.0025188413
-0.24586218
-0.0024230861
-0.24547123
-0.0023203727
-0.24509907
-0.0022118363
-0.24474645
-0.0020985233
-0.24441393
-0.0019813831
-0.24410195
-0.0018612676
-0.24381081
-0.0017389216
-0.24354071
-0.0016149922
-0.24329176
-0.001490027
-0.243064
-0.0013644795
-0.2428574
-0.001238714
-0.24267192
-0.0011130147
-0.24250745
-0.0009875875
-0.24236389
-0.00086257242
-0.24224113
-0.00073804876
-0.24213903
-0.00061404343
-0.2420575
-0.00049053916
-0.24199644
-0.00036748337
-0.24195577
-0.00024479044
-0.00012234444
-0.24572542
0.00015953271
-0.2457477
0.00016010744
-0.24577017
0.00016137376
-0.24579291
0.00016336328
-0.24581603
0.00016607961
-0.24583963
0.00016953578
-0.24586382
0.00017374199
-0.24588871
0.00017871671
-0.2459144
0.00018447546
-0.24594101
0.00019104235
-0.24596866
0.00019843821
-0.24599746
0.00020669283
-0.24602754
0.00021583229
-0.24605903
0.00022589211
-0.24609207
0.00023690353
-0.24612678
0.00024890774
-0.24616333
0.00026194092
-0.24620185
0.00027604984
-0.24624251
0.00029127525
-0.24628547
0.00030766917
-0.24633091
0.0003252764
-0.246379
0.00034415365
-0.24642993
0.00036434892
-0.2464839
0.00038592277
-0.24654111
0.00040892513
-0.24660177
0.00043341912
-0.24666611
0.00045945488
-0.24673436
0.00048709618
-0.24680675
0.00051639096
-0.24688353
0.00054740104
-0.24696496
0.00058016888
-0.24705129
0.00061474828
-0.24714281
0.0006511821
-0.24723978
0.00068949839
-0.24734249
0.00072973607
-0.24745122
0.00077190224
-0.24756627
0.00081601595
-0.24768792
0.0008620577
-0.24781647
0.00091001816
-0.24795219
0.00095984147
-0.24809537
0.0010114795
-0.24824628
0.0010648295
-0.24840517
0.0011197861
-0.24857228
0.0011761966
-0.24874782
0.0012338784
-0.24893199
0.0012926082
-0.24912492
0.0013521187
-0.24932674
0.0014120966
-0.24953749
0.0014721731
-0.2497572
0.0015319257
-0.24998578
0.001590871
-0.25022309
0.0016484619
-0.25046893
0.0017040843
-0.25072295
0.001757058
-0.25098473
0.001806629
-0.25125372
0.0018519761
-0.25152923
0.001892209
-0.25181045
0.0019263728
-0.25209639
0.0019534525
-0.25238593
0.0019723849
-0.25267776
0.0019820616
-0.25297039
0.0019813508
-0.25326217
0.0019691103
-0.25355124
0.0019442088
-0.25383559
0.0019055498
-0.25411302
0.0018520982
-0.25438119
0.0017829147
-0.25463759
0.0016971806
-0.25487959
0.0015942408
-0.2551045
0.0014736358
-0.25530954
0.0013351377
-0.25549193
0.0011787841
-0.2556489
0.0010049108
-0.25577779
0.00081417182
-0.25587605
0.00060756278
-0.25594134
0.00038642708
-0.25597157
0.00015245703
-0.25596496
-9.2316025e-05
-0.2559201
-0.00034555343
-0.25583599
-0.00060466333
-0.25571207
-0.00086683464
-0.25554826
-0.0011291013
-0.25534499
-0.0013884129
-0.25510316
-0.0016417111
-0.25482418
-0.0018860075
-0.25450991
-0.0021184603
-0.25416262
-0.002336446
-0.25378498
-0.0025376223
-0.25337996
-0.0027199803
-0.25295079
-0.0028818819
-0.25250088
-0.0030220901
-0.25203377
-0.0031397674
-0.25155303
-0.0032344825
-0.25106224
-0.003306188
-0.25056489
-0.0033551931
-0.25006437
-0.0033821273
-0.24956388
-0.0033878956
-0.24906643
-0.0033736391
-0.24857482
-0.0033406718
-0.24809159
-0.003290447
-0.24761902
-0.003224504
-0.24715916
-0.0031444272
-0.24671378
-0.0030518062
-0.24628441
-0.002948209
-0.24587235
-0.0028351414
-0.24547869
-0.002714037
-0.24510429
-0.0025862334
-0.24474985
-0.0024529605
-0.24441591
-0.0023153314
-0.24410283
-0.0021743424
-0.24381089
-0.0020308623
-0.24354024
-0.0018856431
-0.24329095
-0.0017393195
-0.24306301
-0.0015924148
-0.24285638
-0.0014453473
-0.24267095
-0.0012984409
-0.24250661
-0.0011519278
-0.24236322
-0.001005963
-0.24224064
-0.00086063038
-0.24213873
-0.00071595284
-0.24205737
-0.00057190161
-0.24199644
-0.00042840699
-0.24195587
-0.00028536073
-0.00014261843
-0.2457903
0.000181427
-0.24581227
0.00018207982
-0.24583442
0.00018352072
-0.24585684
0.00018578497
-0.24587964
0.00018887652
-0.24590291
0.0001928102
-0.24592677
0.00019759769
-0.24595131
0.00020326006
-0.24597665
0.00020981508
-0.2460029
0.00021729027
-0.24603017
0.00022570945
-0.24605858
0.00023510668
-0.24608826
0.00024551179
-0.24611933
0.00025696541
-0.24615193
0.00026950329
-0.2461862
0.00028317258
-0.24622227
0.00029801474
-0.24626031
0.00031408333
-0.24630046
0.00033142511
-0.24634289
0.00035009972
-0.24638777
0.00037015864
-0.24643528
0.00039166697
-0.24648561
0.00041467997
-0.24653896
0.00043926729
-0.24659552
0.00046548659
-0.24665551
0.00049341058
-0.24671915
0.00052309739
-0.24678668
0.00055462073
-0.24685832
0.00058803646
-0.24693434
0.00062341636
-0.24701498
0.00066081039
-0.24710051
0.00070028153
-0.24719121
0.00074188051
-0.24728735
0.00078564144
-0.24738923
0.00083161095
-0.24749713
0.00087979971
-0.24761134
0.00093023222
-0.24773217
0.0009828893
-0.24785992
0.0010377636
-0.24799487
0.0010947949
-0.24813733
0.0011539322
-0.24828756
0.0012150626
-0.24844584
0.0012780696
-0.24861243
0.001342784
-0.24878755
0.0014090018
-0.24897142
0.0014764731
-0.2491642
0.0015448974
-0.24936602
0.0016139217
-0.24957698
0.0016831297
-0.2497971
0.0017520429
-0.25002634
0.0018201129
-0.25026459
0.0018867177
-0.25051167
0.0019511579
-0.25076727
0.002012657
-0.25103099
0.0020703526
-0.25130232
0.0021233036
-0.2515806
0.0021704876
-0.25186503
0.0022108055
-0.25215466
0.0022430866
-0.25244838
0.0022661016
-0.25274488
0.002278566
-0.2530427
0.0022791642
-0.25334015
0.0022665648
-0.25363539
0.0022394447
-0.25392636
0.002196517
-0.25421082
0.0021365609
-0.25448637
0.0020584624
-0.25475043
0.0019612436
-0.2550003
0.0018441123
-0.25523317
0.001706501
-0.25544614
0.0015481091
-0.2556363
0.001368944
-0.25580075
0.0011693605
-0.25593666
0.00095008624
-0.25604135
0.00071224988
-0.25611231
0.00045739036
-0.25614731
0.00018745899
-0.25614444
-9.5190229e-05
-0.25610216
-0.00038783387
-0.25601937
-0.00068744829
-0.25589546
-0.00099074567
-0.25573031
-0.0012942513
-0.25552434
-0.0015943879
-0.25527848
-0.0018875666
-0.25499421
-0.0021702801
-0.25467347
-0.002439195
-0.25431868
-0.0026912369
-0.25393264
-0.0029236657
-0.25351848
-0.0031341378
-0.25307961
-0.0033207503
-0.25261963
-0.0034820761
-0.25214223
-0.003617161
-0.25165119
-0.0037255308
-0.25115021
-0.003807163
-0.25064295
-0.0038624538
-0.2501329
-0.0038921731
-0.24962339
-0.0038974111
-0.2491175
-0.0038795299
-0.24861808
-0.0038400897
-0.24812772
-0.0037808075
-0.24764873
-0.0037034953
-0.24718314
-0.0036100112
-0.24673274
-0.0035022137
-0.24629902
-0.0033819304
-0.24588325
-0.0032509114
-0.24548646
-0.0031108181
-0.2451095
-0.0029631962
-0.244753
-0.0028094631
-0.24441743
-0.0026508977
-0.24410313
-0.0024886414
-0.24381031
-0.0023236862
-0.24353907
-0.002156888
-0.24328942
-0.001988966
-0.24306132
-0.0018205103
-0.24285468
-0.0016519898
-0.24266936
-0.0014837647
-0.2425052
-0.0013160893
-0.24236203
-0.0011491296
-0.24223969
-0.00098297033
-0.24213802
-0.00081762597
-0.24205686
-0.00065305242
-0.24199611
-0.00048915898
-0.24195566
-0.00032581084
-0.00016283103
-0.24586444
0.00020296247
-0.24588606
0.00020369489
-0.24590785
0.00020530848
-0.2459299
0.00020784375
-0.24595233
0.00021130541
-0.24597523
0.00021571014
-0.24599871
0.00022107107
-0.24602286
0.0002274119
-0.2460478
0.00023475263
-0.24607363
0.00024312419
-0.24610047
0.00025255341
-0.24612845
0.00026307859
-0.24615767
0.00027473335
-0.24618827
0.00028756339
-0.24622037
0.00030160905
-0.24625412
0.00031692343
-0.24628966
0.00033355332
-0.24632714
0.0003515591
-0.2463667
0.00037099362
-0.24640853
0.00039192419
-0.24645278
0.00041440909
-0.24649963
0.00043852191
-0.24654928
0.00046432535
-0.24660191
0.00049189829
-0.24665773
0.00052130632
-0.24671695
0.00055263202
-0.2467798
0.00058594178
-0.2468465
0.0006213196
-0.24691729
0.00065882965
-0.24699243
0.00069855415
-0.24707217
0.00074055105
-0.24715678
0.00078489312
-0.24724654
0.00083163969
-0.24734173
0.00088083166
-0.24744264
0.00093252427
-0.24754957
0.00098673276
-0.24766283
0.0010434881
-0.24778271
0.0011027728
-0.24790953
0.0011645826
-0.24804359
0.0012288548
-0.2481852
0.0012955367
-0.24833464
0.0013645068
-0.24849221
0.0014356401
-0.24865818
0.0015087522
-0.2488328
0.0015836199
-0.24901629
0.0016599688
-0.24920886
0.0017374674
-0.24941067
0.0018157254
-0.24962182
0.0018942807
-0.24984238
0.0019726009
-0.25007234
0.0020500746
-0.25031163
0.0021260065
-0.25056008
0.0021996126
-0.25081745
0.0022700213
-0.25108335
0.0023362615
-0.25135732
0.0023972716
-0.25163873
0.0024518954
-0.25192681
0.002498887
-0.25222064
0.0025369158
-0.25251912
0.0025645813
-0.25282097
0.0025804153
-0.25312472
0.0025829103
-0.25342869
0.002570535
-0.253731
0.0025417625
-0.25402959
0.0024951011
-0.25432216
0.0024291289
-0.25460623
0.0023425403
-0.25487917
0.0022341797
-0.25513816
0.0021030998
-0.25538026
0.0019486058
-0.25560246
0.0017703072
-0.25580168
0.0015681648
-0.25597486
0.0013425392
-0.256119
0.0010942214
-0.25623121
0.00082446845
-0.25630884
0.0005350149
-0.25634946
0.00022807752
-0.25635099
-9.3654071e-05
-0.25631178
-0.0004270506
-0.25623059
-0.00076863066
-0.25610674
-0.0011145972
-0.25594006
-0.0014609302
-0.25573097
-0.0018034853
-0.25548043
-0.0021381025
-0.25519
-0.0024607151
-0.25486173
-0.0027674604
-0.25449819
-0.0030547799
-0.25410234
-0.0033195084
-0.25367754
-0.0035589472
-0.25322737
-0.0037709159
-0.25275565
-0.0039537923
-0.25226631
-0.0041065079
-0.25176328
-0.0042285548
-0.2512505
-0.0043199502
-0.25073175
-0.0043811966
-0.2502107
-0.0044132272
-0.24969077
-0.0044173417
-0.24917515
-0.0043951492
-0.24866676
-0.0043484808
-0.24816822
-0.0042793416
-0.24768188
-0.004189838
-0.24720977
-0.0040821219
-0.24675365
-0.0039583378
-0.24631499
-0.0038205874
-0.24589502
-0.0036708765
-0.24549474
-0.0035111033
-0.24511491
-0.0033430281
-0.24475611
-0.0031682598
-0.24441876
-0.0029882455
-0.24410313
-0.0028042722
-0.24380936
-0.0026174541
-0.2435375
-0.002428749
-0.24328751
-0.0022389578
-0.24305929
-0.0020487338
-0.24285268
-0.0018585925
-0.24266752
-0.0016689258
-0.24250361
-0.0014800059
-0.24236073
-0.001292005
-0.2422387
-0.0011050037
-0.24213732
-0.00091900389
-0.24205643
-0.0007339413
-0.24199589
-0.0005496998
-0.24195559
-0.00036611365
-0.0001829685
-0.24594766
0.0002241038
-0.24596887
0.00022491151
-0.24599026
0.00022669443
-0.24601191
0.0002294964
-0.24603393
0.00023332238
-0.24605641
0.00023819087
-0.24607945
0.00024411645
-0.24610317
0.00025112541
-0.24612765
0.00025923998
-0.24615302
0.00026849451
-0.24617939
0.00027891882
-0.24620687
0.00029055546
-0.24623558
0.00030344185
-0.24626564
0.00031762879
-0.24629719
0.00033316119
-0.24633037
0.00035009813
-0.24636531
0.00036849178