/*--------------------------------*- C++ -*----------------------------------*\
| =========                 |                                                 |
| \\      /  F ield         | foam-extend: Open Source CFD                    |
|  \\    /   O peration     | Version:     4.1                                |
|   \\  /    A nd           | Web:         http://www.foam-extend.org         |
|    \\/     M anipulation  |                                                 |
\*---------------------------------------------------------------------------*/
FoamFile
{
    version     2.0;
    format      ascii;
    class       volVectorField;
    location    "0.2";
    object      U;
}
// * * * * * * * * * * * * * * * * * * * * * * * * * * * * * * * * * * * * * //

dimensions      [0 1 -1 0 0 0 0];

internalField   nonuniform List<vector> 
16796
(
(152.21595 -0.0047372735 0)
(152.23432 -0.004754293 0)
(152.24854 -0.0047921998 0)
(152.26315 -0.0048517393 0)
(152.27795 -0.0049330913 0)
(152.29303 -0.0050365565 0)
(152.30845 -0.005162518 0)
(152.32429 -0.0053114384 0)
(152.34061 -0.0054838633 0)
(152.35747 -0.0056804163 0)
(152.37497 -0.0059018049 0)
(152.39316 -0.0061488132 0)
(152.41214 -0.0064223096 0)
(152.43197 -0.0067232372 0)
(152.45275 -0.0070526225 0)
(152.47456 -0.0074115637 0)
(152.49749 -0.0078012399 0)
(152.52163 -0.0082228964 0)
(152.54708 -0.0086778548 0)
(152.57395 -0.0091674943 0)
(152.60234 -0.0096932624 0)
(152.63236 -0.010256652 0)
(152.66413 -0.010859209 0)
(152.69776 -0.011502509 0)
(152.73338 -0.012188163 0)
(152.77112 -0.012917779 0)
(152.81112 -0.013692979 0)
(152.8535 -0.014515345 0)
(152.89842 -0.015386434 0)
(152.94603 -0.016307716 0)
(152.99648 -0.017280582 0)
(153.04991 -0.018306279 0)
(153.10651 -0.019385897 0)
(153.16642 -0.020520322 0)
(153.22981 -0.021710169 0)
(153.29686 -0.022955763 0)
(153.36772 -0.024257043 0)
(153.44257 -0.025613539 0)
(153.52157 -0.02702425 0)
(153.60489 -0.028487619 0)
(153.69267 -0.030001395 0)
(153.78507 -0.031562595 0)
(153.88222 -0.033167349 0)
(153.98425 -0.034810847 0)
(154.09127 -0.036487198 0)
(154.20337 -0.038189328 0)
(154.32062 -0.039908868 0)
(154.44306 -0.041636033 0)
(154.5707 -0.043359517 0)
(154.70351 -0.045066381 0)
(154.84142 -0.04674196 0)
(154.98432 -0.048369778 0)
(155.13204 -0.049931491 0)
(155.28437 -0.051406842 0)
(155.441 -0.05277366 0)
(155.6016 -0.054007893 0)
(155.76571 -0.055083686 0)
(155.93284 -0.055973518 0)
(156.10239 -0.056648398 0)
(156.27367 -0.057078134 0)
(156.4459 -0.057231676 0)
(156.61821 -0.057077544 0)
(156.78963 -0.05658434 0)
(156.9591 -0.055721351 0)
(157.12547 -0.054459236 0)
(157.28749 -0.052770789 0)
(157.44385 -0.050631776 0)
(157.59316 -0.048021816 0)
(157.73397 -0.044925306 0)
(157.86481 -0.041332335 0)
(157.98416 -0.037239574 0)
(158.09053 -0.032651093 0)
(158.18243 -0.027579075 0)
(158.25843 -0.022044339 0)
(158.31717 -0.01607668 0)
(158.35741 -0.0097149815 0)
(158.37801 -0.0030071746 0)
(158.37802 0.0039902272 0)
(158.35666 0.0112136 0)
(158.31337 0.018591374 0)
(158.24779 0.026046203 0)
(158.15982 0.033496819 0)
(158.0496 0.040859873 0)
(157.91751 0.048051911 0)
(157.7642 0.05499138 0)
(157.59053 0.061600598 0)
(157.39762 0.067807606 0)
(157.18676 0.073547799 0)
(156.95944 0.078765299 0)
(156.71729 0.083414001 0)
(156.46207 0.087458263 0)
(156.19565 0.090873241 0)
(155.91991 0.093644852 0)
(155.63679 0.09576942 0)
(155.34823 0.097253027 0)
(155.05613 0.09811063 0)
(154.76232 0.098364987 0)
(154.46856 0.098045467 0)
(154.17653 0.097186794 0)
(153.88778 0.095827772 0)
(153.60375 0.094010051 0)
(153.32575 0.091776959 0)
(153.05495 0.089172431 0)
(152.79242 0.086240066 0)
(152.53905 0.083022304 0)
(152.29567 0.07955976 0)
(152.06293 0.075890673 0)
(151.84141 0.072050498 0)
(151.63158 0.068071617 0)
(151.43381 0.063983161 0)
(151.24838 0.059810915 0)
(151.07553 0.055577331 0)
(150.91542 0.051301584 0)
(150.76813 0.046999698 0)
(150.63374 0.042684714 0)
(150.51228 0.038366888 0)
(150.40374 0.034053912 0)
(150.30811 0.029751162 0)
(150.22537 0.025461938 0)
(150.15543 0.021187743 0)
(150.09817 0.016928554 0)
(150.05355 0.012683072 0)
(150.02216 0.0084488628 0)
(150.00495 0.0042224948 0)
(152.22221 -0.014403357 0)
(152.24053 -0.014454705 0)
(152.25473 -0.014568455 0)
(152.26931 -0.014746988 0)
(152.28408 -0.014990853 0)
(152.29913 -0.015300956 0)
(152.31452 -0.015678443 0)
(152.33033 -0.0161247 0)
(152.34661 -0.01664136 0)
(152.36345 -0.017230292 0)
(152.38091 -0.017893612 0)
(152.39907 -0.018633671 0)
(152.41801 -0.01945307 0)
(152.43781 -0.020354634 0)
(152.45854 -0.021341441 0)
(152.48031 -0.02241678 0)
(152.5032 -0.023584188 0)
(152.5273 -0.024847398 0)
(152.55271 -0.026210375 0)
(152.57953 -0.027677255 0)
(152.60787 -0.029252383 0)
(152.63784 -0.03094024 0)
(152.66955 -0.032745472 0)
(152.70313 -0.034672811 0)
(152.73869 -0.036727096 0)
(152.77637 -0.038913175 0)
(152.8163 -0.041235923 0)
(152.85862 -0.043700116 0)
(152.90348 -0.046310445 0)
(152.95102 -0.049071361 0)
(153.00139 -0.051987077 0)
(153.05476 -0.05506138 0)
(153.11128 -0.058297604 0)
(153.17112 -0.061698471 0)
(153.23444 -0.065265907 0)
(153.30141 -0.069000982 0)
(153.3722 -0.072903621 0)
(153.44697 -0.076972529 0)
(153.5259 -0.081204847 0)
(153.60915 -0.085596058 0)
(153.69686 -0.090139584 0)
(153.7892 -0.094826661 0)
(153.88629 -0.0996459 0)
(153.98827 -0.1045831 0)
(154.09526 -0.10962083 0)
(154.20733 -0.11473814 0)
(154.32456 -0.1199102 0)
(154.44699 -0.12510796 0)
(154.57464 -0.1302978 0)
(154.70748 -0.1354412 0)
(154.84544 -0.14049447 0)
(154.98841 -0.14540849 0)
(155.13624 -0.15012846 0)
(155.28869 -0.15459387 0)
(155.44549 -0.15873838 0)
(155.60627 -0.16248996 0)
(155.77062 -0.1657711 0)
(155.93801 -0.1684992 0)
(156.10786 -0.17058712 0)
(156.27949 -0.17194402 0)
(156.45211 -0.17247635 0)
(156.62485 -0.1720891 0)
(156.79674 -0.17068739 0)
(156.96673 -0.16817822 0)
(157.13365 -0.16447258 0)
(157.29626 -0.15948774 0)
(157.45323 -0.15314978 0)
(157.60318 -0.1453963 0)
(157.74466 -0.13617922 0)
(157.87616 -0.12546761 0)
(157.99618 -0.11325043 0)
(158.10321 -0.099539045 0)
(158.19574 -0.084369497 0)
(158.27234 -0.067804168 0)
(158.33164 -0.04993292 0)
(158.37237 -0.03087355 0)
(158.3934 -0.010771766 0)
(158.39375 0.010200067 0)
(158.37265 0.031847218 0)
(158.32951 0.053954972 0)
(158.26398 0.076292408 0)
(158.17595 0.098617017 0)
(158.06555 0.12068019 0)
(157.93318 0.14223307 0)
(157.77948 0.16303251 0)
(157.60532 0.18284693 0)
(157.41183 0.20146177 0)
(157.2003 0.2186844 0)
(156.97225 0.23434808 0)
(156.72931 0.24831517 0)
(156.47326 0.26047911 0)
(156.20597 0.27076541 0)
(155.92936 0.27913157 0)
(155.64538 0.28556606 0)
(155.35596 0.29008634 0)
(155.06301 0.2927363 0)
(154.76839 0.29358305 0)
(154.47388 0.29271345 0)
(154.18113 0.29023033 0)
(153.89172 0.28624877 0)
(153.60708 0.28089239 0)
(153.32853 0.27428991 0)
(153.05724 0.26657197 0)
(152.79427 0.25786831 0)
(152.54053 0.24830534 0)
(152.29681 0.2380041 0)
(152.0638 0.22707867 0)
(151.84205 0.21563491 0)
(151.63203 0.20376959 0)
(151.4341 0.19156985 0)
(151.24856 0.17911291 0)
(151.07562 0.16646609 0)
(150.91544 0.15368696 0)
(150.76811 0.14082371 0)
(150.6337 0.12791565 0)
(150.51222 0.1149938 0)
(150.40368 0.10208151 0)
(150.30805 0.089195233 0)
(150.22532 0.07634524 0)
(150.1554 0.063536427 0)
(150.09814 0.05076915 0)
(150.05353 0.038039982 0)
(150.02215 0.025342159 0)
(150.00495 0.012665964 0)
(152.23419 -0.023837885 0)
(152.25244 -0.023923301 0)
(152.26658 -0.024112448 0)
(152.2811 -0.02440945 0)
(152.29582 -0.024815229 0)
(152.31081 -0.025331296 0)
(152.32614 -0.025959567 0)
(152.34189 -0.026702348 0)
(152.35811 -0.027562361 0)
(152.37488 -0.028542719 0)
(152.39227 -0.029646951 0)
(152.41037 -0.030878972 0)
(152.42923 -0.032243116 0)
(152.44896 -0.033744094 0)
(152.46962 -0.03538703 0)
(152.49131 -0.037177412 0)
(152.51411 -0.039121129 0)
(152.53813 -0.041224407 0)
(152.56345 -0.043493852 0)
(152.59017 -0.045936363 0)
(152.61842 -0.04855918 0)
(152.64829 -0.051369775 0)
(152.67989 -0.054375898 0)
(152.71336 -0.057585437 0)
(152.74881 -0.061006467 0)
(152.78637 -0.064647073 0)
(152.82618 -0.068515391 0)
(152.86838 -0.072619391 0)
(152.9131 -0.076966908 0)
(152.96051 -0.081565375 0)
(153.01074 -0.086421834 0)
(153.06397 -0.091542617 0)
(153.12035 -0.096933309 0)
(153.18004 -0.10259847 0)
(153.24322 -0.10854136 0)
(153.31004 -0.11476378 0)
(153.38068 -0.12126566 0)
(153.45532 -0.12804489 0)
(153.53411 -0.13509676 0)
(153.61721 -0.14241379 0)
(153.7048 -0.14998509 0)
(153.79702 -0.15779612 0)
(153.89401 -0.16582797 0)
(153.9959 -0.17405705 0)
(154.1028 -0.18245441 0)
(154.21482 -0.1909852 0)
(154.33202 -0.19960814 0)
(154.45445 -0.20827488 0)
(154.58213 -0.21692948 0)
(154.71503 -0.22550783 0)
(154.8531 -0.23393718 0)
(154.99623 -0.24213568 0)
(155.14425 -0.25001208 0)
(155.29697 -0.25746549 0)
(155.45409 -0.26438536 0)
(155.61526 -0.27065154 0)
(155.78007 -0.27613474 0)
(155.948 -0.28069708 0)
(156.11847 -0.28419313 0)
(156.29079 -0.28647112 0)
(156.46419 -0.28737472 0)
(156.63779 -0.28674507 0)
(156.81063 -0.28442339 0)
(156.98165 -0.28025397 0)
(157.14967 -0.27408761 0)
(157.31346 -0.26578547 0)
(157.47167 -0.25522332 0)
(157.6229 -0.24229605 0)
(157.76569 -0.22692238 0)
(157.89853 -0.20904956 0)
(158.01989 -0.18865802 0)
(158.12824 -0.16576565 0)
(158.22204 -0.14043156 0)
(158.29985 -0.112759 0)
(158.36025 -0.0828973 0)
(158.40198 -0.051042722 0)
(158.42386 -0.017438426 0)
(158.4249 0.01762751 0)
(158.4043 0.053828691 0)
(158.36146 0.090804964 0)
(158.29602 0.12816825 0)
(158.20785 0.16551091 0)
(158.0971 0.20241496 0)
(157.96415 0.23846203 0)
(157.80965 0.2732434 0)
(157.6345 0.30636993 0)
(157.43983 0.33748129 0)
(157.22696 0.36625419 0)
(156.99743 0.39240918 0)
(156.7529 0.41571591 0)
(156.49519 0.4359965 0)
(156.22618 0.45312722 0)
(155.94782 0.46703824 0)
(155.66209 0.47771178 0)
(155.37096 0.48517889 0)
(155.07635 0.48951493 0)
(154.78013 0.4908342 0)
(154.4841 0.48928397 0)
(154.18994 0.48503816 0)
(153.89922 0.478291 0)
(153.61339 0.46925081 0)
(153.33376 0.45813422 0)
(153.06151 0.4451608 0)
(152.79769 0.43054836 0)
(152.54322 0.41450888 0)
(152.29887 0.39724513 0)
(152.06533 0.37894803 0)
(151.84314 0.35979453 0)
(151.63276 0.33994624 0)
(151.43455 0.3195485 0)
(151.2488 0.29872997 0)
(151.0757 0.27760265 0)
(150.9154 0.25626219 0)
(150.768 0.23478852 0)
(150.63355 0.21324668 0)
(150.51206 0.19168784 0)
(150.40352 0.17015035 0)
(150.30791 0.14866105 0)
(150.2252 0.12723643 0)
(150.15531 0.10588404 0)
(150.09808 0.084603829 0)
(150.0535 0.06338946 0)
(150.02214 0.042229095 0)
(150.00495 0.021105893 0)
(152.25187 -0.033430069 0)
(152.27002 -0.033549935 0)
(152.28407 -0.033814744 0)
(152.29851 -0.034230313 0)
(152.31314 -0.034797926 0)
(152.32804 -0.035519704 0)
(152.34328 -0.03639833 0)
(152.35893 -0.037437036 0)
(152.37506 -0.038639637 0)
(152.39174 -0.040010492 0)
(152.40903 -0.041554547 0)
(152.42702 -0.043277288 0)
(152.44578 -0.045184788 0)
(152.4654 -0.047283649 0)
(152.48594 -0.049581057 0)
(152.50751 -0.052084704 0)
(152.53019 -0.054802851 0)
(152.55408 -0.05774423 0)
(152.57927 -0.060918111 0)
(152.60585 -0.064334177 0)
(152.63395 -0.068002596 0)
(152.66367 -0.071933861 0)
(152.69512 -0.076138863 0)
(152.72842 -0.080628695 0)
(152.7637 -0.085414718 0)
(152.80109 -0.090508315 0)
(152.84071 -0.095920949 0)
(152.88272 -0.10166387 0)
(152.92725 -0.10774814 0)
(152.97446 -0.11418427 0)
(153.02449 -0.12098225 0)
(153.0775 -0.1281511 0)
(153.13367 -0.13569877 0)
(153.19314 -0.14363185 0)
(153.2561 -0.15195506 0)
(153.3227 -0.16067118 0)
(153.39313 -0.16978034 0)
(153.46755 -0.17927982 0)
(153.54612 -0.18916332 0)
(153.62903 -0.19942068 0)
(153.71642 -0.21003698 0)
(153.80846 -0.22099219 0)
(153.90529 -0.23226021 0)
(154.00704 -0.24380837 0)
(154.11383 -0.25559653 0)
(154.22576 -0.26757629 0)
(154.34292 -0.27969023 0)
(154.46534 -0.29187103 0)
(154.59306 -0.3040407 0)
(154.72606 -0.3161098 0)
(154.86429 -0.32797671 0)
(155.00765 -0.33952704 0)
(155.15599 -0.3506331 0)
(155.30909 -0.36115364 0)
(155.4667 -0.3709337 0)
(155.62846 -0.37980476 0)
(155.79396 -0.3875853 0)
(155.9627 -0.39408159 0)
(156.13409 -0.39908903 0)
(156.30746 -0.40239399 0)
(156.48204 -0.40377608 0)
(156.65695 -0.40301119 0)
(156.83122 -0.39987499 0)
(157.00379 -0.39414718 0)
(157.17348 -0.38561633 0)
(157.33904 -0.37408534 0)
(157.49912 -0.35937739 0)
(157.65229 -0.34134233 0)
(157.79708 -0.3198634 0)
(157.93195 -0.2948639 0)
(158.05533 -0.26631382 0)
(158.16567 -0.23423595 0)
(158.2614 -0.19871128 0)
(158.34103 -0.15988319 0)
(158.40312 -0.11796036 0)
(158.44635 -0.073217937 0)
(158.46953 -0.025997396 0)
(158.47162 0.023296246 0)
(158.45179 0.074202354 0)
(158.40942 0.12621225 0)
(158.34412 0.17877784 0)
(158.25577 0.23132305 0)
(158.14448 0.2832569 0)
(158.01067 0.33398763 0)
(157.85498 0.3829371 0)
(157.67834 0.42955486 0)
(157.48189 0.47333134 0)
(157.26701 0.5138096 0)
(157.03525 0.550595 0)
(156.78834 0.58336263 0)
(156.52811 0.61186215 0)
(156.25651 0.63592006 0)
(155.97552 0.65543927 0)
(155.68716 0.67039653 0)
(155.39344 0.68083759 0)
(155.09632 0.68687086 0)
(154.7977 0.68865966 0)
(154.4994 0.6864137 0)
(154.20311 0.68038008 0)
(153.91042 0.67083427 0)
(153.62279 0.65807133 0)
(153.34154 0.64239766 0)
(153.06785 0.62412346 0)
(152.80277 0.60355611 0)
(152.54719 0.58099444 0)
(152.3019 0.55672404 0)
(152.06757 0.53101345 0)
(151.84472 0.50411139 0)
(151.63381 0.47624476 0)
(151.43519 0.44761741 0)
(151.24911 0.41840959 0)
(151.07577 0.38877802 0)
(150.91531 0.35885637 0)
(150.76781 0.32875618 0)
(150.6333 0.29856804 0)
(150.51179 0.268363 0)
(150.40326 0.2381942 0)
(150.30768 0.20809854 0)
(150.22502 0.17809847 0)
(150.15517 0.14820385 0)
(150.09799 0.11841391 0)
(150.05344 0.088719112 0)
(150.02212 0.059102203 0)
(150.00494 0.029538793 0)
(152.27527 -0.042752271 0)
(152.29327 -0.04290564 0)
(152.30722 -0.043244786 0)
(152.32154 -0.043777302 0)
(152.33605 -0.044504849 0)
(152.35084 -0.045430157 0)
(152.36597 -0.046556675 0)
(152.3815 -0.047888554 0)
(152.3975 -0.049430697 0)
(152.41405 -0.051188704 0)
(152.43121 -0.053168933 0)
(152.44906 -0.055378432 0)
(152.46768 -0.057825011 0)
(152.48715 -0.060517156 0)
(152.50754 -0.063464108 0)
(152.52896 -0.066675761 0)
(152.55147 -0.070162743 0)
(152.57519 -0.07393629 0)
(152.60019 -0.078008336 0)
(152.6266 -0.082391348 0)
(152.6545 -0.087098423 0)
(152.68402 -0.092143084 0)
(152.71526 -0.097539372 0)
(152.74834 -0.1033016 0)
(152.7834 -0.10944442 0)
(152.82055 -0.11598256 0)
(152.85993 -0.12293082 0)
(152.90169 -0.13030377 0)
(152.94596 -0.13811575 0)
(152.9929 -0.14638041 0)
(153.04265 -0.15511074 0)
(153.09539 -0.16431851 0)
(153.15127 -0.17401417 0)
(153.21046 -0.1842064 0)
(153.27312 -0.19490155 0)
(153.33943 -0.20610348 0)
(153.40956 -0.21781266 0)
(153.48369 -0.23002599 0)
(153.56199 -0.24273576 0)
(153.64463 -0.25592934 0)
(153.73176 -0.26958801 0)
(153.82356 -0.28368656 0)
(153.92017 -0.29819196 0)
(154.02173 -0.31306278 0)
(154.12837 -0.32824801 0)
(154.24019 -0.34368604 0)
(154.35728 -0.35930367 0)
(154.47969 -0.37501496 0)
(154.60747 -0.39072024 0)
(154.74059 -0.40630505 0)
(154.87903 -0.42163924 0)
(155.0227 -0.43657612 0)
(155.17144 -0.45095181 0)
(155.32506 -0.46458478 0)
(155.48331 -0.47727571 0)
(155.64584 -0.48880763 0)
(155.81226 -0.49894651 0)
(155.98207 -0.50744234 0)
(156.1547 -0.51403076 0)
(156.32947 -0.51843536 0)
(156.50561 -0.52037063 0)
(156.68226 -0.51954576 0)
(156.85845 -0.51566921 0)
(157.03309 -0.50845415 0)
(157.20501 -0.49762469 0)
(157.37295 -0.48292297 0)
(157.53552 -0.46411689 0)
(157.6913 -0.44100847 0)
(157.83876 -0.41344258 0)
(157.97635 -0.38131577 0)
(158.10245 -0.34458494 0)
(158.21546 -0.30327547 0)
(158.31379 -0.25748842 0)
(158.39588 -0.20740616 0)
(158.46024 -0.15329633 0)
(158.50551 -0.095513593 0)
(158.53043 -0.034499339 0)
(158.53393 0.02922171 0)
(158.51514 0.095051485 0)
(158.47341 0.16232896 0)
(158.40831 0.23034058 0)
(158.3197 0.29833575 0)
(158.2077 0.36554413 0)
(158.07273 0.43119415 0)
(157.91544 0.49453199 0)
(157.73679 0.55484014 0)
(157.53796 0.6114548 0)
(157.32037 0.66378127 0)
(157.08562 0.71130672 0)
(156.83549 0.75360989 0)
(156.57189 0.79036731 0)
(156.29681 0.82135625 0)
(156.01229 0.84645397 0)
(155.72041 0.86563418 0)
(155.42323 0.87896064 0)
(155.12275 0.88657856 0)
(154.82092 0.88870442 0)
(154.51957 0.88561469 0)
(154.22044 0.87763394 0)
(153.92514 0.86512304 0)
(153.63512 0.84846766 0)
(153.35172 0.82806746 0)
(153.07611 0.80432639 0)
(152.80934 0.77764401 0)
(152.55231 0.74840814 0)
(152.30578 0.71698884 0)
(152.0704 0.68373358 0)
(151.8467 0.64896365 0)
(151.63509 0.6129717 0)
(151.43592 0.57602023 0)
(151.24943 0.53834093 0)
(151.07579 0.50013492 0)
(150.91513 0.46157334 0)
(150.7675 0.42279863 0)
(150.63292 0.38392612 0)
(150.5114 0.34504594 0)
(150.40289 0.30622501 0)
(150.30736 0.26750939 0)
(150.22475 0.22892649 0)
(150.15497 0.19048755 0)
(150.09786 0.15219012 0)
(150.05337 0.11402053 0)
(150.02208 0.075955239 0)
(150.00494 0.037961356 0)
(152.30436 -0.05219273 0)
(152.32219 -0.052380305 0)
(152.33599 -0.05279437 0)
(152.35017 -0.053444175 0)
(152.36454 -0.054331736 0)
(152.37919 -0.055460394 0)
(152.39416 -0.056834365 0)
(152.40954 -0.058458728 0)
(152.42539 -0.060339475 0)
(152.44178 -0.062483459 0)
(152.45877 -0.064898453 0)
(152.47646 -0.06759308 0)
(152.4949 -0.070576895 0)
(152.51418 -0.073860282 0)
(152.53439 -0.077454553 0)
(152.55561 -0.081371819 0)
(152.57792 -0.085625099 0)
(152.60142 -0.090228156 0)
(152.62621 -0.095195615 0)
(152.65238 -0.10054276 0)
(152.68004 -0.10628567 0)
(152.70931 -0.11244092 0)
(152.74029 -0.11902577 0)
(152.7731 -0.12605781 0)
(152.80787 -0.13355507 0)
(152.84473 -0.14153566 0)
(152.88381 -0.15001786 0)
(152.92525 -0.15901963 0)
(152.9692 -0.16855871 0)
(153.0158 -0.17865204 0)
(153.06522 -0.18931576 0)
(153.1176 -0.20056455 0)
(153.17312 -0.21241154 0)
(153.23195 -0.22486772 0)
(153.29424 -0.23794129 0)
(153.36019 -0.25163744 0)
(153.42996 -0.26595729 0)
(153.50373 -0.28089764 0)
(153.58167 -0.2964497 0)
(153.66396 -0.31259873 0)
(153.75078 -0.32932259 0)
(153.84227 -0.34659126 0)
(153.93861 -0.36436522 0)
(154.03993 -0.38259472 0)
(154.14637 -0.4012183 0)
(154.25804 -0.42016163 0)
(154.37504 -0.43933613 0)
(154.49744 -0.45863768 0)
(154.62528 -0.47794533 0)
(154.75856 -0.49711996 0)
(154.89726 -0.51600317 0)
(155.04129 -0.53441619 0)
(155.19053 -0.55215902 0)
(155.3448 -0.56900986 0)
(155.50384 -0.58472483 0)
(155.66735 -0.5990381 0)
(155.83491 -0.61166256 0)
(156.00606 -0.62229103 0)
(156.18023 -0.63059824 0)
(156.35674 -0.63624353 0)
(156.53485 -0.63887446 0)
(156.71368 -0.63813138 0)
(156.89226 -0.63365301 0)
(157.06951 -0.62508308 0)
(157.24424 -0.61207804 0)
(157.41515 -0.59431573 0)
(157.58088 -0.57150505 0)
(157.73994 -0.54339626 0)
(157.89077 -0.50979193 0)
(158.03179 -0.47055796 0)
(158.16133 -0.42563455 0)
(158.27773 -0.37504647 0)
(158.37934 -0.31891222 0)
(158.46454 -0.25745132 0)
(158.53179 -0.19098953 0)
(158.57964 -0.1199612 0)
(158.60679 -0.044909074 0)
(158.61209 0.033519593 0)
(158.59464 0.11458419 0)
(158.55371 0.19746498 0)
(158.48887 0.28127623 0)
(158.39996 0.36508529 0)
(158.28707 0.44793426 0)
(158.15063 0.52886334 0)
(157.99133 0.60693475 0)
(157.81014 0.68125611 0)
(157.60829 0.75100238 0)
(157.38727 0.81543526 0)
(157.14874 0.87391919 0)
(156.89455 0.92593345 0)
(156.62668 0.97107992 0)
(156.34719 1.0090865 0)
(156.05822 1.0398062 0)
(155.7619 1.0632122 0)
(155.46035 1.0793897 0)
(155.15564 1.088525 0)
(154.84976 1.0908925 0)
(154.5446 1.0868406 0)
(154.2419 1.0767763 0)
(153.94331 1.061151 0)
(153.6503 1.0404456 0)
(153.36421 1.0151574 0)
(153.08622 0.98578786 0)
(152.81735 0.9528321 0)
(152.55851 0.91676968 0)
(152.31044 0.87805736 0)
(152.07377 0.83712322 0)
(151.849 0.79436235 0)
(151.63655 0.75013394 0)
(151.43671 0.70475956 0)
(151.24971 0.65852245 0)
(151.07572 0.61166791 0)
(150.91481 0.56440417 0)
(150.76703 0.51690399 0)
(150.63239 0.46930676 0)
(150.51086 0.42172081 0)
(150.40239 0.37422603 0)
(150.30693 0.32687668 0)
(150.2244 0.27970417 0)
(150.15471 0.23272012 0)
(150.09769 0.18591944 0)
(150.05327 0.13928335 0)
(150.02204 0.092780999 0)
(150.00493 0.046369896 0)
(152.33915 -0.061334414 0)
(152.35677 -0.06155479 0)
(152.37041 -0.062041797 0)
(152.38442 -0.062806444 0)
(152.39862 -0.063851129 0)
(152.41309 -0.065179799 0)
(152.42789 -0.066797433 0)
(152.44308 -0.068710031 0)
(152.45875 -0.070924673 0)
(152.47494 -0.073449452 0)
(152.49174 -0.076293553 0)
(152.50922 -0.079467171 0)
(152.52746 -0.082981598 0)
(152.54652 -0.086849116 0)
(152.5665 -0.091083102 0)
(152.58748 -0.095697889 0)
(152.60955 -0.10070888 0)
(152.63279 -0.10613239 0)
(152.65731 -0.11198572 0)
(152.68321 -0.11828701 0)
(152.71059 -0.12505531 0)
(152.73955 -0.13231031 0)
(152.77021 -0.1400725 0)
(152.8027 -0.14836278 0)
(152.83713 -0.15720261 0)
(152.87364 -0.16661358 0)
(152.91236 -0.17661747 0)
(152.95342 -0.18723577 0)
(152.99698 -0.19848971 0)
(153.04318 -0.21039962 0)
(153.09218 -0.22298496 0)
(153.14415 -0.23626348 0)
(153.19924 -0.25025117 0)
(153.25763 -0.26496157 0)
(153.31948 -0.28040497 0)
(153.38499 -0.29658818 0)
(153.45431 -0.31351328 0)
(153.52765 -0.33117729 0)
(153.60516 -0.34957075 0)
(153.68704 -0.36867722 0)
(153.77346 -0.3884716 0)
(153.86459 -0.40891958 0)
(153.96059 -0.42997565 0)
(154.06162 -0.45158231 0)
(154.16781 -0.47366827 0)
(154.2793 -0.49614703 0)
(154.39619 -0.51891528 0)
(154.51855 -0.54185135 0)
(154.64645 -0.56481357 0)
(154.77991 -0.58763876 0)
(154.9189 -0.61014076 0)
(155.06336 -0.63210912 0)
(155.2132 -0.65330808 0)
(155.36822 -0.6734757 0)
(155.52821 -0.69232353 0)
(155.69286 -0.70953664 0)
(155.86179 -0.72477433 0)
(156.03453 -0.73767145 0)
(156.21054 -0.74784065 0)
(156.38915 -0.75487548 0)
(156.56961 -0.75835459 0)
(156.75106 -0.75784705 0)
(156.93251 -0.75291894 0)
(157.1129 -0.74314124 0)
(157.29101 -0.7280989 0)
(157.46553 -0.70740131 0)
(157.63506 -0.68069385 0)
(157.79809 -0.6476703 0)
(157.95302 -0.60808612 0)
(158.09819 -0.5617719 0)
(158.23191 -0.50864674 0)
(158.35244 -0.44873092 0)
(158.45805 -0.38215727 0)
(158.54705 -0.30918038 0)
(158.61782 -0.23018327 0)
(158.66883 -0.14568052 0)
(158.6987 -0.0563183 0)
(158.70622 0.037129814 0)
(158.6904 0.1337756 0)
(158.65049 0.23263451 0)
(158.58599 0.33264025 0)
(158.4967 0.43266862 0)
(158.38275 0.53156405 0)
(158.24453 0.6281681 0)
(158.08277 0.72134883 0)
(157.8985 0.81002947 0)
(157.69299 0.89321536 0)
(157.46779 0.9700176 0)
(157.22466 1.0396727 0)
(156.96552 1.101557 0)
(156.69246 1.1551964 0)
(156.40763 1.2002699 0)
(156.11325 1.2366083 0)
(155.81153 1.2641878 0)
(155.5047 1.28312 0)
(155.19487 1.293638 0)
(154.8841 1.2960805 0)
(154.57431 1.2908742 0)
(154.26732 1.2785153 0)
(153.96478 1.2595519 0)
(153.66818 1.2345662 0)
(153.37886 1.2041584 0)
(153.098 1.1689323 0)
(152.82664 1.1294824 0)
(152.56564 1.0863834 0)
(152.31574 1.0401813 0)
(152.07754 0.99138669 0)
(151.85152 0.94046969 0)
(151.63807 0.8878568 0)
(151.43746 0.8339289 0)
(151.24988 0.77902066 0)
(151.07547 0.72342107 0)
(150.91429 0.66737469 0)
(150.76636 0.6110837 0)
(150.63166 0.55471039 0)
(150.51014 0.49838017 0)
(150.40173 0.44218455 0)
(150.30636 0.38618473 0)
(150.22395 0.33041479 0)
(150.15438 0.27488541 0)
(150.09746 0.21958753 0)
(150.05315 0.164496 0)
(150.02199 0.10957141 0)
(150.00491 0.054760285 0)
(152.37962 -0.070543919 0)
(152.39698 -0.070797803 0)
(152.41044 -0.071358222 0)
(152.42425 -0.072237811 0)
(152.43825 -0.073439325 0)
(152.45252 -0.074967315 0)
(152.46711 -0.076827527 0)
(152.4821 -0.079026885 0)
(152.49754 -0.081573555 0)
(152.51352 -0.08447688 0)
(152.53009 -0.087747463 0)
(152.54733 -0.091397072 0)
(152.56532 -0.095438747 0)
(152.58413 -0.099886676 0)
(152.60385 -0.10475632 0)
(152.62456 -0.11006424 0)
(152.64634 -0.11582825 0)
(152.66929 -0.12206722 0)
(152.6935 -0.12880119 0)
(152.71907 -0.13605115 0)
(152.74611 -0.14383919 0)
(152.77472 -0.15218814 0)
(152.80502 -0.16112179 0)
(152.83713 -0.17066442 0)
(152.87117 -0.180841 0)
(152.90727 -0.19167666 0)
(152.94556 -0.20319683 0)
(152.98618 -0.21542661 0)
(153.02928 -0.22839088 0)
(153.07502 -0.24211352 0)
(153.12354 -0.25661747 0)
(153.17501 -0.27192379 0)
(153.2296 -0.28805157 0)
(153.28748 -0.30501713 0)
(153.34882 -0.32283316 0)
(153.4138 -0.34150841 0)
(153.48261 -0.36104627 0)
(153.55543 -0.38144443 0)
(153.63244 -0.40269315 0)
(153.71383 -0.4247748 0)
(153.79979 -0.44766184 0)
(153.89048 -0.47131619 0)
(153.98608 -0.49568698 0)
(154.08675 -0.52070956 0)
(154.19265 -0.54630345 0)
(154.30391 -0.57237065 0)
(154.42065 -0.59879383 0)
(154.54297 -0.62543436 0)
(154.67093 -0.65213057 0)
(154.80457 -0.67869575 0)
(154.94389 -0.70491652 0)
(155.08885 -0.73055122 0)
(155.23935 -0.75532854 0)
(155.39525 -0.77894656 0)
(155.55632 -0.80107215 0)
(155.7223 -0.82134092 0)
(155.8928 -0.83935789 0)
(156.0674 -0.85469891 0)
(156.24554 -0.86691308 0)
(156.42659 -0.87552624 0)
(156.60979 -0.88004567 0)
(156.7943 -0.87996622 0)
(156.97913 -0.87477778 0)
(157.16319 -0.86397444 0)
(157.34527 -0.84706503 0)
(157.52403 -0.82358533 0)
(157.69804 -0.79311161 0)
(157.86574 -0.75527534 0)
(158.0255 -0.70977889 0)
(158.1756 -0.65641162 0)
(158.31427 -0.59506591 0)
(158.43968 -0.52575257 0)
(158.55005 -0.44861465 0)
(158.64357 -0.36393893 0)
(158.71854 -0.2721643 0)
(158.77332 -0.17388595 0)
(158.80645 -0.069855796 0)
(158.81662 0.039021782 0)
(158.80277 0.15170362 0)
(158.76408 0.26703127 0)
(158.7 0.38374752 0)
(158.6103 0.50052495 0)
(158.49508 0.6159977 0)
(158.35477 0.72879577 0)
(158.19011 0.83758035 0)
(158.00216 0.94107841 0)
(157.7923 1.0381151 0)
(157.56215 1.1276423 0)
(157.31355 1.2087618 0)
(157.04855 1.280743 0)
(156.76933 1.3430339 0)
(156.47816 1.3952651 0)
(156.17737 1.4372476 0)
(155.86929 1.4689653 0)
(155.5562 1.4905621 0)
(155.24033 1.5023248 0)
(154.9238 1.504664 0)
(154.60859 1.4980928 0)
(154.29655 1.4832047 0)
(153.98938 1.4606522 0)
(153.68857 1.4311259 0)
(153.39549 1.3953354 0)
(153.11131 1.3539926 0)
(152.83704 1.3077963 0)
(152.57355 1.2574202 0)
(152.32154 1.2035025 0)
(152.08158 1.1466388 0)
(151.85414 1.0873758 0)
(151.63955 1.0262082 0)
(151.43807 0.96357663 0)
(151.24985 0.89986699 0)
(151.07499 0.83541148 0)
(150.91352 0.77049019 0)
(150.76543 0.70533362 0)
(150.63069 0.64012577 0)
(150.5092 0.5750077 0)
(150.40088 0.51008117 0)
(150.30564 0.44541274 0)
(150.22338 0.38103768 0)
(150.15396 0.31696416 0)
(150.09719 0.25317769 0)
(150.05299 0.18964521 0)
(150.02192 0.12631728 0)
(150.0049 0.063127841 0)
(152.42576 -0.079439188 0)
(152.44284 -0.079725146 0)
(152.45607 -0.080356872 0)
(152.46966 -0.081348712 0)
(152.48344 -0.082703795 0)
(152.49747 -0.084427279 0)
(152.51183 -0.086525669 0)
(152.52658 -0.08900681 0)
(152.54178 -0.091879954 0)
(152.5575 -0.095155687 0)
(152.57381 -0.098846026 0)
(152.59079 -0.10296431 0)
(152.6085 -0.10752534 0)
(152.62702 -0.11254519 0)
(152.64644 -0.11804142 0)
(152.66683 -0.12403283 0)
(152.68829 -0.13053966 0)
(152.7109 -0.13758334 0)
(152.73476 -0.14518668 0)
(152.75996 -0.15337355 0)
(152.78662 -0.1621691 0)
(152.81483 -0.17159937 0)
(152.84471 -0.18169149 0)
(152.87639 -0.19247319 0)
(152.90997 -0.20397302 0)
(152.9456 -0.21621978 0)
(152.98341 -0.22924263 0)
(153.02353 -0.24307043 0)
(153.06611 -0.25773187 0)
(153.11131 -0.27325457 0)
(153.15928 -0.28966516 0)
(153.21019 -0.30698823 0)
(153.2642 -0.32524623 0)
(153.32148 -0.34445862 0)
(153.38223 -0.36464079 0)
(153.44662 -0.38580386 0)
(153.51483 -0.40795296 0)
(153.58705 -0.43108691 0)
(153.66348 -0.45519626 0)
(153.74431 -0.48026273 0)
(153.82972 -0.50625699 0)
(153.9199 -0.53313788 0)
(154.01503 -0.56084988 0)
(154.11529 -0.58932197 0)
(154.22084 -0.61846527 0)
(154.33182 -0.64817115 0)
(154.44838 -0.67830904 0)
(154.57062 -0.70872427 0)
(154.69863 -0.73923592 0)
(154.83246 -0.76963458 0)
(154.97214 -0.79968033 0)
(155.11764 -0.82910088 0)
(155.26888 -0.85758985 0)
(155.42575 -0.88480556 0)
(155.58804 -0.91037022 0)
(155.7555 -0.93386969 0)
(155.9278 -0.95485403 0)
(156.10449 -0.97283902 0)
(156.28506 -0.98730865 0)
(156.46888 -0.99771893 0)
(156.65522 -1.0035031 0)
(156.84322 -1.0040784 0)
(157.03191 -0.99885456 0)
(157.22019 -0.98724406 0)
(157.40684 -0.96867427 0)
(157.59049 -0.9426014 0)
(157.76966 -0.90852616 0)
(157.94278 -0.86601086 0)
(158.10814 -0.81469773 0)
(158.26395 -0.75432793 0)
(158.40836 -0.68476048 0)
(158.53947 -0.6059907 0)
(158.65538 -0.5181669 0)
(158.75418 -0.42160443 0)
(158.83406 -0.31679622 0)
(158.89327 -0.20441828 0)
(158.93023 -0.085330734 0)
(158.94353 0.039426202 0)
(158.93202 0.16864682 0)
(158.89478 0.30098942 0)
(158.83122 0.43499365 0)
(158.74107 0.56911492 0)
(158.6244 0.70176208 0)
(158.48165 0.83133809 0)
(158.31361 0.9562821 0)
(158.1214 1.0751106 0)
(157.90646 1.186456 0)
(157.67053 1.2891005 0)
(157.41556 1.3820037 0)
(157.14372 1.464323 0)
(156.85733 1.5354264 0)
(156.55879 1.5948968 0)
(156.25055 1.6425291 0)
(155.93507 1.6783203 0)
(155.61474 1.7024535 0)
(155.29188 1.715278 0)
(154.96869 1.7172856 0)
(154.64723 1.7090853 0)
(154.32939 1.6913775 0)
(154.01689 1.6649281 0)
(153.71128 1.6305446 0)
(153.4139 1.5890538 0)
(153.12593 1.5412819 0)
(152.84836 1.4880377 0)
(152.58205 1.4300983 0)
(152.32766 1.3681979 0)
(152.08574 1.3030192 0)
(151.8567 1.2351874 0)
(151.64086 1.1652661 0)
(151.43842 1.0937561 0)
(151.2495 1.021094 0)
(151.07417 0.94765471 0)
(150.91241 0.87375262 0)
(150.76419 0.79964523 0)
(150.62942 0.72553671 0)
(150.508 0.65158211 0)
(150.39982 0.57789164 0)
(150.30475 0.50453549 0)
(150.22267 0.43154827 0)
(150.15344 0.35893389 0)
(150.09684 0.28667058 0)
(150.0528 0.21471573 0)
(150.02184 0.1430081 0)
(150.00488 0.071467228 0)
(152.47754 -0.088340195 0)
(152.49431 -0.088658535 0)
(152.5073 -0.089361429 0)
(152.52063 -0.090464837 0)
(152.53416 -0.091972244 0)
(152.54793 -0.093889409 0)
(152.56203 -0.096223601 0)
(152.57651 -0.098983579 0)
(152.59143 -0.10217968 0)
(152.60687 -0.10582374 0)
(152.62289 -0.10992918 0)
(152.63957 -0.11451093 0)
(152.65696 -0.11958552 0)
(152.67516 -0.12517096 0)
(152.69424 -0.13128689 0)
(152.71429 -0.13795437 0)
(152.73538 -0.14519607 0)
(152.75761 -0.15303602 0)
(152.78107 -0.16149979 0)