/*--------------------------------*- C++ -*----------------------------------*\
| =========                 |                                                 |
| \\      /  F ield         | foam-extend: Open Source CFD                    |
|  \\    /   O peration     | Version:     4.1                                |
|   \\  /    A nd           | Web:         http://www.foam-extend.org         |
|    \\/     M anipulation  |                                                 |
\*---------------------------------------------------------------------------*/
FoamFile
{
    version     2.0;
    format      ascii;
    class       surfaceScalarField;
    location    "0.4";
    object      phi;
}
// * * * * * * * * * * * * * * * * * * * * * * * * * * * * * * * * * * * * * //

dimensions      [0 3 -1 0 0 0 0];

internalField   nonuniform List<scalar> 
31929
(
-7.9973441e-05
8.1258569e-09
-7.9976654e-05
3.2132599e-09
-7.9979952e-05
3.297493e-09
-7.998291e-05
2.9577261e-09
-7.9985443e-05
2.5332456e-09
-7.9988218e-05
2.7750489e-09
-7.999069e-05
2.4718743e-09
-7.9993422e-05
2.7319942e-09
-7.9996033e-05
2.6113433e-09
-7.9998872e-05
2.8385984e-09
-8.0001731e-05
2.8590552e-09
-8.000481e-05
3.0794736e-09
-8.0008014e-05
3.2042192e-09
-8.0011461e-05
3.4463997e-09
-8.0015117e-05
3.6561494e-09
-8.0019059e-05
3.9421636e-09
-8.002329e-05
4.2313071e-09
-8.0027869e-05
4.5789227e-09
-8.003282e-05
4.9510531e-09
-8.0038197e-05
5.376771e-09
-8.0044039e-05
5.8419528e-09
-8.0050402e-05
6.3632526e-09
-8.0057339e-05
6.9367521e-09
-8.0064913e-05
7.5736579e-09
-8.0073188e-05
8.2756084e-09
-8.008224e-05
9.0518755e-09
-8.0092148e-05
9.9075011e-09
-8.0102999e-05
1.085164e-08
-8.0114891e-05
1.1891804e-08
-8.0127929e-05
1.3038063e-08
-8.0142229e-05
1.4299956e-08
-8.0157919e-05
1.5689285e-08
-8.0175136e-05
1.7217549e-08
-8.0194034e-05
1.8898122e-08
-8.0214779e-05
2.0745145e-08
-8.0237553e-05
2.2773725e-08
-8.0262553e-05
2.5000341e-08
-8.0289996e-05
2.7442118e-08
-8.0320113e-05
3.0117697e-08
-8.0353159e-05
3.3046045e-08
-8.0389407e-05
3.6247694e-08
-8.042915e-05
3.9742768e-08
-8.0472703e-05
4.3553003e-08
-8.0520402e-05
4.7699104e-08
-8.0572604e-05
5.2202082e-08
-8.0629686e-05
5.7081822e-08
-8.0692043e-05
6.2356883e-08
-8.0760086e-05
6.8043656e-08
-8.0834242e-05
7.4155364e-08
-8.0914943e-05
8.0701431e-08
-8.1002629e-05
8.7686105e-08
-8.1097737e-05
9.5107347e-08
-8.1200692e-05
1.0295554e-07
-8.1311904e-05
1.1121213e-07
-8.1431752e-05
1.1984781e-07
-8.1560574e-05
1.2882162e-07
-8.1698653e-05
1.380791e-07
-8.1846204e-05
1.4755108e-07
-8.2003357e-05
1.5715262e-07
-8.2170139e-05
1.6678228e-07
-8.234646e-05
1.7632116e-07
-8.2532094e-05
1.8563385e-07
-8.2726663e-05
1.9456868e-07
-8.2929622e-05
2.0295966e-07
-8.3140251e-05
2.1062891e-07
-8.3357642e-05
2.1739043e-07
-8.3580696e-05
2.2305476e-07
-8.380813e-05
2.2743384e-07
-8.4038478e-05
2.30348e-07
-8.427011e-05
2.3163216e-07
-8.4501253e-05
2.3114246e-07
-8.4730016e-05
2.2876313e-07
-8.4954428e-05
2.2441235e-07
-8.5172475e-05
2.1804703e-07
-8.5382143e-05
2.0966712e-07
-8.5581461e-05
1.9931846e-07
-8.5768553e-05
1.8709235e-07
-8.594168e-05
1.7312617e-07
-8.6099275e-05
1.5759534e-07
-8.6239986e-05
1.4071059e-07
-8.6362681e-05
1.2269556e-07
-8.6466481e-05
1.0380004e-07
-8.6550743e-05
8.4261941e-08
-8.6615156e-05
6.4412915e-08
-8.6660062e-05
4.4906402e-08
-8.6686375e-05
2.6312106e-08
-8.6695746e-05
9.3716654e-09
-8.668924e-05
-6.5060411e-09
-8.6665025e-05
-2.4214939e-08
-8.6621369e-05
-4.3656495e-08
-8.6558512e-05
-6.2856312e-08
-8.6477196e-05
-8.1316925e-08
-8.6378535e-05
-9.8660211e-08
-8.6263773e-05
-1.1476202e-07
-8.6134138e-05
-1.2963559e-07
-8.599069e-05
-1.4344787e-07
-8.5834109e-05
-1.5658092e-07
-8.5664457e-05
-1.696524e-07
-8.5480814e-05
-1.836425e-07
-8.5280987e-05
-1.9982747e-07
-8.5061184e-05
-2.1980303e-07
-8.4816354e-05
-2.4482941e-07
-8.4541207e-05
-2.751476e-07
-8.4233843e-05
-3.0736327e-07
-8.3901885e-05
-3.3195791e-07
-8.3580013e-05
-3.2187247e-07
-8.3342408e-05
-2.3760538e-07
-8.3359866e-05
1.7458143e-08
-8.3849666e-05
4.8980062e-07
-8.5011777e-05
1.1621107e-06
-8.7076785e-05
2.0650081e-06
-9.0330025e-05
3.2532403e-06
-9.5066314e-05
4.7362887e-06
-0.00010161736
6.5510414e-06
-0.00011029934
8.6819842e-06
-0.00012149104
1.1191699e-05
-0.00013550731
1.401627e-05
-0.00015276271
1.7255406e-05
-0.00017341649
2.0653777e-05
-0.00019784977
2.4433279e-05
-0.00022548165
2.7631884e-05
-0.0002569228
3.1441146e-05
-0.00028732545
3.0402649e-05
3.525515e-05
-0.00020883774
1.8266629e-08
-0.0002088467
1.2165816e-08
-0.00020885581
1.2413744e-08
-0.00020886478
1.1922484e-08
-0.000208874
1.1757249e-08
-0.00020888356
1.2331121e-08
-0.00020889356
1.2471148e-08
-0.00020890412
1.3298423e-08
-0.00020891531
1.379738e-08
-0.00020892723
1.4763186e-08
-0.00020893995
1.5578428e-08
-0.00020895358
1.6704039e-08
-0.00020896818
1.7806726e-08
-0.00020898387
1.9135684e-08
-0.00020900074
2.0522951e-08
-0.00020901889
2.2100993e-08
-0.00020903845
2.3791008e-08
-0.00020905954
2.5665452e-08
-0.00020908228
2.769219e-08
-0.00020910682
2.9914496e-08
-0.0002091333
3.2324706e-08
-0.00020916189
3.4952957e-08
-0.00020919276
3.7804929e-08
-0.00020922609
4.090583e-08
-0.00020926209
4.4269299e-08
-0.00020930095
4.7919813e-08
-0.00020934292
5.1876478e-08
-0.00020938824
5.6165239e-08
-0.00020943715
6.080955e-08
-0.00020948995
6.5838061e-08
-0.00020954693
7.1277956e-08
-0.0002096084
7.7161236e-08
-0.00020967471
8.3519507e-08
-0.00020974619
9.0386399e-08
-0.00020982325
9.7798604e-08
-0.00020990627
1.057921e-07
-0.00020999567
1.1440686e-07
-0.00021009191
1.2368097e-07
-0.00021019545
1.3365658e-07
-0.00021030678
1.443725e-07
-0.0002104264
1.5587132e-07
-0.00021055485
1.6819019e-07
-0.00021069266
1.8136864e-07
-0.0002108404
1.9544028e-07
-0.00021099864
2.1043593e-07
-0.00021116794
2.2638026e-07
-0.00021134887
2.432906e-07
-0.000211542
2.6117517e-07
-0.00021174788
2.8002997e-07
-0.00021196701
2.9983737e-07
-0.00021219989
3.205628e-07
-0.00021244693
3.4215198e-07
-0.00021270851
3.6452791e-07
-0.00021298488
3.8758826e-07
-0.00021327624
4.11201e-07
-0.00021358262
4.3520306e-07
-0.00021390394
4.593968e-07
-0.00021423993
4.8354812e-07
-0.00021459016
5.073849e-07
-0.00021495398
5.3059734e-07
-0.0002153305
5.5283669e-07
-0.00021571858
5.7371972e-07
-0.00021611684
5.9283144e-07
-0.00021652362
6.0973174e-07
-0.00021693695
6.2396348e-07
-0.00021735462
6.3506332e-07
-0.00021777414
6.4257544e-07
-0.00021819277
6.46064e-07
-0.00021860756
6.4513158e-07
-0.00021901536
6.3943465e-07
-0.00021941292
6.2869976e-07
-0.00021979689
6.1273927e-07
-0.00022016395
5.9146489e-07
-0.0002205108
5.6489691e-07
-0.0002208343
5.3317272e-07
-0.00022113153
4.965509e-07
-0.00022139985
4.5540824e-07
-0.00022163696
4.1023738e-07
-0.000221841
3.6163089e-07
-0.00022201055
3.1026616e-07
-0.00022214473
2.5687688e-07
-0.00022224317
2.0223568e-07
-0.00022230605
1.4714734e-07
-0.0002223342
9.2562295e-08
-0.00022232868
3.9386041e-08
-0.00022229014
-1.2229823e-08
-0.00022221631
-6.4460493e-08
-0.00022210607
-1.1674287e-07
-0.00022196327
-1.6702253e-07
-0.00022179203
-2.1488708e-07
-0.00022159566
-2.5923143e-07
-0.00022137751
-2.9946806e-07
-0.000221141
-3.3516819e-07
-0.00022088959
-3.6617031e-07
-0.00022062666
-3.9257131e-07
-0.00022035534
-4.147661e-07
-0.00022007838
-4.335439e-07
-0.00021979795
-4.5008179e-07
-0.00021951563
-4.6595979e-07
-0.00021923275
-4.8270592e-07
-0.00021895152
-5.0103288e-07
-0.00021867775
-5.1860038e-07
-0.00021842632
-5.2657547e-07
-0.0002182298
-5.0388946e-07
-0.00021814894
-4.1281228e-07
-0.00021828304
-1.8777294e-07
-0.0002187741
2.5345375e-07
-0.00021973784
9.811974e-07
-0.00022132309
2.0750507e-06
-0.00022376579
3.604811e-06
-0.00022728257
5.5817845e-06
-0.00023204309
8.0137616e-06
-0.00023815033
1.0843532e-05
-0.00024563199
1.4032696e-05
-0.00025442161
1.7471613e-05
-0.00026437365
2.1143734e-05
-0.00027522732
2.4869944e-05
-0.00028664552
2.86736e-05
-0.00029809059
3.2098853e-05
-0.0003089506
3.529328e-05
-0.00031818982
3.6871108e-05
-0.00032472422
3.7975551e-05
-0.00032741254
3.3090966e-05
3.042321e-05
-0.00028259836
3.0146159e-08
-0.00028261117
2.4976358e-08
-0.00028262464
2.5881934e-08
-0.00028263851
2.5794152e-08
-0.00028265323
2.6482523e-08
-0.00028266868
2.7778715e-08
-0.00028268516
2.8951467e-08
-0.00028270267
3.0804966e-08
-0.00028272141
3.2536458e-08
-0.00028274145
3.4800542e-08
-0.00028276295
3.7078351e-08
-0.00028278602
3.9774055e-08
-0.00028281081
4.260232e-08
-0.00028283747
4.5793327e-08
-0.00028286615
4.9205752e-08
-0.00028289702
5.2970336e-08
-0.00028293026
5.7026429e-08
-0.00028296604
6.1453196e-08
-0.00028300459
6.6233754e-08
-0.00028304609
7.1422694e-08
-0.0002830908
7.7027128e-08
-0.00028313893
8.3091452e-08
-0.00028319077
8.9636675e-08
-0.00028324657
9.670444e-08
-0.00028330662
1.0432465e-07
-0.00028337124
1.1253999e-07
-0.00028344075
1.2138679e-07
-0.0002835155
1.3091064e-07
-0.00028359584
1.4115301e-07
-0.00028368217
1.5216323e-07
-0.00028377487
1.6398688e-07
-0.00028387439
1.7667671e-07
-0.00028398115
1.9028414e-07
-0.00028409563
2.0486074e-07
-0.00028421829
2.2046366e-07
-0.00028434965
2.3714465e-07
-0.0002844902
2.5496211e-07
-0.00028464049
2.7396653e-07
-0.00028480105
2.942147e-07
-0.00028497243
3.1575237e-07
-0.00028515518
3.3863076e-07
-0.00028534988
3.6288608e-07
-0.00028555707
3.8855634e-07
-0.00028577729
4.1566491e-07
-0.00028601108
4.4422629e-07
-0.00028625894
4.7424058e-07
-0.00028652134
5.0569112e-07
-0.00028679871
5.38542e-07
-0.00028709141
5.7273262e-07
-0.00028739975
6.0817602e-07
-0.00028772394
6.4475368e-07
-0.0002880641
6.8231171e-07
-0.00028842023
7.2065643e-07
-0.00028879219
7.5955161e-07
-0.00028917971
7.9871188e-07
-0.0002895823
8.3780237e-07
-0.00028999934
8.7643454e-07
-0.00029042996
9.1416489e-07
-0.00029087307
9.5049431e-07
-0.00029132734
9.8487126e-07
-0.0002917912
1.0166912e-06
-0.00029226278
1.0453067e-06
-0.00029273999
1.0700335e-06
-0.00029322042
1.0901632e-06
-0.00029370143
1.1049779e-06
-0.00029418014
1.1137682e-06
-0.00029465342
1.1158562e-06
-0.00029511797
1.110615e-06
-0.00029557033
1.0974973e-06
-0.00029600696
1.0760596e-06
-0.00029642425
1.0459852e-06
-0.00029681861
1.007108e-06
-0.00029718658
9.5943052e-07
-0.00029752482
9.0313648e-07
-0.00029783025
8.3860024e-07
-0.00029810009
7.6639035e-07
-0.00029833194
6.8726121e-07
-0.00029852385
6.0214693e-07
-0.00029867435
5.1213318e-07
-0.00029878252
4.1843844e-07
-0.00029884799
3.22348e-07
-0.00029887099
2.2522654e-07
-0.00029885215
1.2831315e-07
-0.00029879266
3.306868e-08
-0.00029869257
-6.0703443e-08
-0.00029855193
-1.5286538e-07
-0.00029837521
-2.4118045e-07
-0.00029816818
-3.2377512e-07
-0.00029793566
-3.9954623e-07
-0.00029768279
-4.6775285e-07
-0.0002974145
-5.2751907e-07
-0.00029713597
-5.780034e-07
-0.00029685266
-6.1847756e-07
-0.00029657044
-6.4839306e-07
-0.00029629563
-6.6738048e-07
-0.00029603515
-6.7524088e-07
-0.00029579672
-6.7197881e-07
-0.00029558911
-6.5768815e-07
-0.00029542269
-6.3238165e-07
-0.00029531012
-5.9527486e-07
-0.00029526757
-5.4358184e-07
-0.00029531639
-4.6978612e-07
-0.00029548464
-3.5831571e-07
-0.00029580794
-1.805965e-07
-0.00029632895
1.081977e-07
-0.00029708291
5.6618863e-07
-0.00029810257
1.2731178e-06
-0.00029945186
2.3304889e-06
-0.00030121207
3.8352521e-06
-0.00030346031
5.8530574e-06
-0.00030625826
8.3797302e-06
-0.0003096284
1.1383904e-05
-0.00031354592
1.4761047e-05
-0.00031792424
1.841102e-05
-0.00032260969
2.2157065e-05
-0.00032737619
2.5910235e-05
-0.00033192948
2.9423231e-05
-0.00033591392
3.2658044e-05
-0.00033891342
3.5098345e-05
-0.00034047349
3.6853357e-05
-0.00034012418
3.6521797e-05
-0.00033726609
3.5117463e-05
-0.00033229888
2.8123749e-05
2.0705132e-05
-0.00031460538
4.3366571e-08
-0.00031462053
4.0126991e-08
-0.00031463676
4.2105794e-08
-0.00031465393
4.2972168e-08
-0.00031467235
4.4898965e-08
-0.00031469188
4.7310134e-08
-0.00031471283
4.98971e-08
-0.00031473518
5.3161896e-08
-0.00031475918
5.6536401e-08
-0.00031478491
6.0522399e-08
-0.00031481255
6.4719713e-08
-0.00031484224
6.9465216e-08
-0.00031487417
7.4534836e-08
-0.00031490851
8.013419e-08
-0.00031494546
8.6156823e-08
-0.00031498522
9.2729812e-08
-0.00031502801
9.9815906e-08
-0.00031507406
1.0750113e-07
-0.00031512361
1.1578744e-07
-0.00031517693
1.2474196e-07
-0.00031523429
1.3438923e-07
-0.00031529599
1.4478954e-07
-0.00031536234
1.5598122e-07
-0.00031543366
1.6802398e-07
-0.0003155103
1.8096537e-07
-0.00031559262
1.9486759e-07
-0.00031568102
2.0978483e-07
-0.0003157759
2.25783e-07
-0.00031587766
2.4292123e-07
-0.00031598677
2.6126922e-07
-0.00031610367
2.8088929e-07
-0.00031622885
3.0185311e-07
-0.00031636279
3.24229e-07
-0.00031650601
3.4808213e-07
-0.00031665904
3.7348541e-07
-0.00031682239
4.0049951e-07
-0.00031699662
4.2919387e-07
-0.00031718228
4.5962145e-07
-0.00031737991
4.9184315e-07
-0.00031759005
5.258981e-07
-0.00031781325
5.6183178e-07
-0.00031805003
5.9966189e-07
-0.00031830088
6.3940603e-07
-0.00031856627
6.8105577e-07
-0.00031884663
7.2458558e-07
-0.00031914233
7.6994502e-07
-0.0003194537
8.1705533e-07
-0.00031978096
8.6580649e-07
-0.00032012428
9.1604948e-07
-0.0003204837
9.6759482e-07
-0.00032085915
1.020206e-06
-0.00032125043
1.0735951e-06
-0.00032165719
1.1274176e-06
-0.00032207891
1.1812704e-06
-0.00032251489
1.234684e-06
-0.00032296421
1.287124e-06
-0.00032342576
1.3379875e-06
-0.0003238982
1.386604e-06
-0.00032437994
1.4322362e-06
-0.00032486916
1.4740882e-06
-0.00032536377
1.5113064e-06
-0.00032586146
1.542996e-06
-0.00032635966
1.5682317e-06
-0.00032685557
1.5860767e-06
-0.0003273462
1.5956036e-06
-0.00032782835
1.5959191e-06
-0.00032829869
1.5861955e-06
-0.00032875377
1.565695e-06
-0.00032919008
1.5338068e-06
-0.0003296041
1.490077e-06
-0.00032999235
1.4342368e-06
-0.00033035147
1.3662303e-06
-0.00033067828
1.2862361e-06
-0.00033096982
1.194679e-06
-0.00033122346
1.0922392e-06
-0.00033143692
9.7985317e-07
-0.00033160836
8.5869813e-07
-0.00033173639
7.3017995e-07
-0.00033182016
5.9589735e-07
-0.00033185932
4.5760552e-07
-0.00033185414
3.171676e-07
-0.00033180536
1.764404e-07
-0.00033171443
3.7384383e-08
-0.00033158248
-9.8880338e-08
-0.00033141225
-2.3092737e-07
-0.00033120908
-3.5603698e-07
-0.00033097843
-4.7183413e-07
-0.00033072546
-5.7674252e-07
-0.00033045521
-6.6979252e-07
-0.00033017327
-7.4969915e-07
-0.00032988576
-8.1503128e-07
-0.00032959938
-8.6438457e-07
-0.00032932152
-8.9633062e-07
-0.00032906052
-9.0939862e-07
-0.00032882587
-9.0202628e-07
-0.00032862864
-8.7247377e-07
-0.00032848181
-8.188116e-07
-0.00032840071
-7.3878188e-07
-0.0003284034
-6.2969221e-07
-0.00032851081
-4.8786503e-07
-0.00032874644
-3.0795597e-07
-0.00032913532
-8.0898249e-08
-0.00032970037
2.0672941e-07
-0.00033045818
5.7721707e-07
-0.00033141803
1.0680456e-06
-0.00033258661
1.7347685e-06
-0.00033396392
2.6504252e-06
-0.00033553878
3.9053537e-06
-0.00033728141
5.5778745e-06
-0.00033914355
7.7151983e-06
-0.00034107224
1.0308424e-05
-0.00034300198
1.3313639e-05
-0.00034485208
1.6611148e-05
-0.00034651684
2.0075781e-05
-0.00034786554
2.3505771e-05
-0.00034873066
2.6775357e-05
-0.00034892366
2.9616225e-05
-0.00034822987
3.1964259e-05
-0.00034646595
3.3334421e-05
-0.0003434547
3.3842109e-05
-0.00033926009
3.2327187e-05
-0.0003338246
2.9681973e-05
-0.00032846124
2.2760391e-05
1.4824489e-05
-0.00032568279
5.7678836e-08
-0.00032569934
5.6682845e-08
-0.00032571704
5.9801197e-08
-0.00032573605
6.1982852e-08
-0.00032575647
6.531984e-08
-0.00032577828
6.9114193e-08
-0.0003258017
7.3318372e-08
-0.00032582677
7.8235119e-08
-0.00032585371
8.3479974e-08
-0.00032588263
8.9437368e-08
-0.00032591372
9.5809782e-08
-0.00032594713
1.0287973e-07
-0.00032598308
1.1047965e-07
-0.00032602174
1.1879598e-07
-0.00032606334
1.2775613e-07
-0.0003261081
1.3748629e-07
-0.00032615625
1.4797291e-07
-0.00032620806
1.5931065e-07
-0.0003262638
1.7152104e-07
-0.00032632374
1.8468511e-07
-0.0003263882
1.988456e-07
-0.00032645749
2.140798e-07
-0.00032653195
2.3044402e-07
-0.00032661194
2.4801689e-07
-0.00032669784
2.6686397e-07
-0.00032679004
2.8706745e-07
-0.00032688895
3.0869936e-07
-0.00032699502
3.3184589e-07
-0.00032710868
3.5658315e-07
-0.00032723041
3.8300053e-07
-0.0003273607
4.1117561e-07
-0.00032750004
4.4119724e-07
-0.00032764896
4.7314833e-07
-0.00032780798
5.0710441e-07
-0.00032797765
5.4315071e-07
-0.0003281585
5.8135193e-07
-0.00032835109
6.2178351e-07
-0.00032855596
6.6449416e-07
-0.00032877366
7.095418e-07
-0.00032900471
7.5695009e-07
-0.00032924963
8.0674947e-07
-0.0003295089
8.5892788e-07
-0.00032978296
9.134706e-07
-0.00033007223
9.7032386e-07
-0.00033037705
1.0294074e-06
-0.00033069771
1.0906045e-06
-0.00033103441
1.1537572e-06
-0.00033138727
1.2186634e-06
-0.00033175629
1.285067e-06
-0.00033214135
1.3526567e-06
-0.0003325422
1.4210584e-06
-0.00033295844
1.4898309e-06
-0.00033338948
1.5584601e-06
-0.00033383457
1.6263588e-06
-0.00033429274
1.6928574e-06
-0.00033476283
1.7572088e-06
-0.00033524342
1.8185859e-06
-0.00033573291
1.8760846e-06
-0.0003362294
1.9287287e-06
-0.00033673079
1.9754819e-06
-0.00033723474
2.0152518e-06
-0.00033773865
2.0469134e-06
-0.00033823975
2.0693249e-06
-0.00033873502
2.0813525e-06
-0.00033922132
2.0818978e-06
-0.00033969533
2.0699296e-06
-0.00034015365
2.0445214e-06
-0.00034059284
2.0048806e-06
-0.00034100943
1.9503928e-06
-0.0003414
1.8806552e-06
-0.00034176128
1.7955083e-06
-0.00034209011
1.6950665e-06
-0.00034238362
1.5797406e-06
-0.00034263919
1.4502482e-06
-0.00034285457
1.3076214e-06
-0.00034302792
1.1532036e-06
-0.00034315785
9.8862704e-07
-0.00034324346
8.157961e-07
-0.0003432844
6.368385e-07
-0.00034328087
4.5407454e-07
-0.00034323363
2.699224e-07
-0.0003431441
8.6910266e-08
-0.00034301407
-9.2644995e-08
-0.00034284658
-2.6637313e-07
-0.00034264624
-4.3126688e-07
-0.00034241771
-5.8455988e-07
-0.00034216532
-7.2423154e-07
-0.00034189378
-8.4827436e-07
-0.00034160878
-9.5479946e-07
-0.00034131657
-1.0419087e-06
-0.00034102399
-1.1076128e-06
-0.0003407386
-1.1497727e-06
-0.00034046887
-1.1660604e-06
-0.00034022443
-1.1538349e-06
-0.00034001639
-1.1100686e-06
-0.00033985765
-1.0312126e-06
-0.00033976325
-9.1320802e-07
-0.00033975059
-7.5144345e-07
-0.00033983943
-5.4085754e-07
-0.00034005141
-2.7588561e-07
-0.00034040915
4.9789233e-08
-0.00034093329
4.4323835e-07
-0.00034164159
9.1502575e-07
-0.00034254739
1.4830176e-06
-0.00034365355
2.1742132e-06
-0.00034494901
3.0302247e-06
-0.00034640152
4.1029401e-06
-0.00034794871
5.4525363e-06
-0.00034950478
7.1339448e-06
-0.00035097169
9.182111e-06
-0.00035224682
1.1583558e-05
-0.000353227
1.4293816e-05
-0.00035381763
1.7201779e-05
-0.00035393005
2.0188193e-05
-0.00035348692
2.3062647e-05
-0.00035241063
2.569907e-05
-0.00035063981
2.7845405e-05
-0.0003481135
2.9437945e-05
-0.00034483181
3.0052728e-05
-0.00034079112
2.9801417e-05
-0.00033621663
2.77527e-05
-0.00033114745
2.4612791e-05
-0.00032665535
1.8268292e-05
1.0749741e-05
-0.00032885679
7.2594171e-08
-0.00032887392
7.3809144e-08
-0.00032889217
7.8050525e-08
-0.00032891191
8.1729708e-08
-0.00032893312
8.6528153e-08
-0.00032895586
9.1849791e-08
-0.00032898029
9.77508e-08
-0.00032900649
1.0443776e-07
-0.00032903466
1.1164811e-07
-0.00032906491
1.1969053e-07
-0.00032909745
1.2834669e-07
-0.00032913243
1.3786139e-07
-0.00032917007
1.4811471e-07
-0.00032921055
1.5928086e-07
-0.00032925411
1.7131789e-07
-0.00032930098
1.8435421e-07
-0.00032935141
1.9839892e-07
-0.00032940566
2.1355693e-07
-0.000329464
2.2986917e-07
-0.00032952675
2.4743148e-07
-0.00032959421
2.6630494e-07
-0.00032966671
2.8658448e-07
-0.00032974461
3.0834457e-07
-0.00032982828
3.3168318e-07
-0.0003299181
3.56684e-07
-0.00033001448
3.8344946e-07
-0.00033011785
4.1206934e-07
-0.00033022866
4.4265012e-07
-0.00033034736
4.7528462e-07
-0.00033047444
5.1008156e-07
-0.0003306104
5.4713313e-07
-0.00033075574
5.8654465e-07
-0.00033091101
6.2841256e-07
-0.00033107673
6.7282135e-07
-0.00033125344
7.1986703e-07
-0.00033144171
7.6961629e-07
-0.00033164207
8.2214828e-07
-0.00033185508
8.7750463e-07
-0.00033208128
9.3573718e-07
-0.00033232118
9.9685035e-07
-0.00033257528
1.0608555e-06
-0.00033284406
1.1277059e-06
-0.00033312794
1.1973496e-06
-0.0003334273
1.2696816e-06
-0.00033374245
1.3445608e-06
-0.00033407364
1.4217973e-06
-0.00033442103
1.5011468e-06
-0.00033478468
1.5823077e-06
-0.00033516452
1.6649087e-06
-0.00033556037
1.7485088e-06
-0.0003359719
1.8325883e-06
-0.00033639862
1.9165445e-06
-0.00033683984
1.9996863e-06
-0.00033729472
2.081235e-06
-0.00033776217
2.1603144e-06
-0.00033824093
2.2359597e-06
-0.00033872946
2.3071152e-06
-0.00033922601
2.3726415e-06
-0.00033972861
2.4313225e-06
-0.00034023501
2.4818836e-06
-0.00034074275
2.5229979e-06
-0.00034124916
2.5533173e-06
-0.00034175133
2.5714929e-06
-0.00034224618
2.576207e-06
-0.00034273049
2.5662056e-06
-0.0003432009
2.5403375e-06
-0.00034365397
2.4975979e-06
-0.00034408625
2.4371621e-06
-0.0003444943
2.3584362e-06
-0.00034487474
2.2610937e-06
-0.00034522434
2.1451105e-06
-0.00034554007
2.0107975e-06
-0.00034581915
1.8588231e-06
-0.00034605913
1.6902233e-06
-0.00034625791
1.5064053e-06
-0.00034641385
1.3091428e-06
-0.00034652577
1.1005449e-06
-0.00034659301
8.8303528e-07
-0.00034661546
6.5929461e-07
-0.00034659361
4.3222149e-07
-0.00034652853
2.0484522e-07
-0.00034642193
-1.969008e-08
-0.00034627626
-2.3831893e-07
-0.00034609495
-4.4767774e-07
-0.00034588176
-6.4445826e-07
-0.00034564056
-8.2576501e-07
-0.00034537598
-9.8881344e-07
-0.00034509325
-1.1309998e-06
-0.0003447981
-1.2499448e-06
-0.00034449689
-1.3431279e-06
-0.00034419657
-1.4079235e-06
-0.00034390489
-1.4414523e-06
-0.00034363045
-1.4405091e-06
-0.00034338292
-1.4013607e-06
-0.00034317333
-1.3196611e-06
-0.00034301425
-1.1902909e-06
-0.00034292002
-1.007433e-06
-0.00034290683
-7.6464055e-07
-0.00034299246
-4.5522032e-07
-0.00034319587
-7.2481174e-08
-0.00034353574
3.8965523e-07
-0.00034402965
9.371576e-07
-0.00034469186
1.5772282e-06
-0.00034552876
2.3199188e-06
-0.00034653374
3.1791904e-06
-0.00034768066
4.1771484e-06
-0.00034892154
5.3438204e-06
-0.0003501862
6.7171973e-06
-0.00035138178
8.3295261e-06
-0.00035239963
1.019996e-05
-0.00035312955
1.2313475e-05
-0.00035346779
1.4632061e-05
-0.00035332906
1.7063044e-05
-0.00035264795
1.9507083e-05
-0.00035138638
2.1801079e-05
-0.00034952235
2.3835045e-05
-0.00034706451
2.5387562e-05
-0.00034402899
2.6402424e-05
-0.00034049909
2.6522827e-05
-0.0003365452
2.5847527e-05
-0.00033245213
2.3659634e-05
-0.00032833344
2.0494099e-05
-0.0003250201
1.4954949e-05
8.3102432e-06
-0.00032963027
8.7810695e-08
-0.00032964751
9.105109e-08
-0.00032966582
9.6356674e-08
-0.00032968568
1.015926e-07
-0.00032970699
1.0783634e-07
-0.00032972988
1.1474694e-07
-0.00032975449
1.2235516e-07
-0.00032978091
1.3085655e-07
-0.00032980931
1.4005321e-07
-0.00032983984
1.502156e-07
-0.00032987267
1.6118127e-07
-0.00032990798
1.7317303e-07
-0.00032994598
1.8610926e-07
-0.00032998686
2.0015853e-07
-0.00033003084
2.153058e-07
-0.00033007817
2.3168459e-07
-0.0003301291
2.4932519e-07
-0.00033018389
2.683441e-07
-0.00033024282
2.8880108e-07
-0.0003303062
3.1080755e-07
-0.00033037433
3.3444276e-07
-0.00033044757
3.5981971e-07
-0.00033052626
3.8703105e-07
-0.00033061077
4.1619441e-07
-0.00033070149
4.4741172e-07
-0.00033079885
4.8080587e-07
-0.00033090327
5.1648452e-07
-0.00033101519
5.5457466e-07
-0.00033113509
5.951859e-07
-0.00033126346
6.3844649e-07
-0.00033140079
6.8446325e-07
-0.0003315476
7.3335814e-07
-0.00033170443
7.8524112e-07
-0.00033187181
8.4020567e-07
-0.0003320503
8.9835858e-07
-0.00033224046
9.5976843e-07
-0.00033244283
1.024518e-06
-0.00033265796
1.0926416e-06
-0.00033288641
1.1641848e-06
-0.00033312869
1.2391324e-06
-0.00033338531
1.3174763e-06
-0.00033365674
1.3991348e-06
-0.00033394341
1.4840178e-06
-0.0003342457
1.5719686e-06
-0.00033456392
1.6627845e-06
-0.00033489833
1.7562013e-06
-0.00033524907
1.8518877e-06
-0.0003356162
1.9494412e-06
-0.00033599967
2.048374e-06
-0.00033639927
2.1481139e-06
-0.00033681468
2.247994e-06
-0.00033724538
2.3472482e-06
-0.0003376907
2.4450063e-06
-0.00033814976
2.540296e-06
-0.00033862148
2.6320322e-06
-0.00033910455
2.7190292e-06
-0.00033959743
2.8000002e-06
-0.00034009836
2.8735669e-06
-0.00034060531
2.9382702e-06
-0.00034111602
2.9925935e-06
-0.00034162799
3.0349713e-06
-0.0003421385
3.0638285e-06
-0.00034264461
3.0776051e-06
-0.0003431432
3.0747948e-06
-0.00034363098
3.0539844e-06
-0.00034410454
3.0138985e-06
-0.00034456039
2.953451e-06
-0.00034499501
2.8717826e-06
-0.0003454049
2.7683184e-06
-0.00034578661
2.6428087e-06
-0.00034613687
2.4953665e-06
-0.00034645257
2.3265036e-06
-0.0003467309
2.1371529e-06
-0.00034696936
1.9286782e-06
-0.00034716583
1.7028745e-06
-0.00034731865
1.461961e-06
-0.00034742664
1.2085414e-06
-0.00034748919
9.4557969e-07
-0.00034750622
6.7633026e-07
-0.0003474783
4.0429499e-07
-0.00034740658
1.3313085e-07
-0.00034729289
-1.3338398e-07
-0.00034713978
-3.9142145e-07
-0.00034695037
-6.3708951e-07
-0.00034672818
-8.6664653e-07
-0.00034647737
-1.0765807e-06
-0.00034620253
-1.2636565e-06
-0.00034590882
-1.4247083e-06
-0.00034560204
-1.5567258e-06
-0.00034528853
-1.6566303e-06
-0.00034497521
-1.7212497e-06
-0.00034466958
-1.7470823e-06
-0.00034437986
-1.7302283e-06
-0.0003441151
-1.6661199e-06
-0.0003438853
-1.5494559e-06
-0.00034370157
-1.3740285e-06
-0.00034357613
-1.1328744e-06
-0.00034352232
-8.1844836e-07
-0.00034355434
-4.2319981e-07
-0.00034368666
5.9835218e-08
-0.00034393327
6.3627264e-07
-0.00034430643
1.3103127e-06
-0.00034481365
2.0844542e-06
-0.00034545441
2.9606707e-06
-0.00034621716
3.94194e-06
-0.00034707587
5.0358611e-06
-0.00034798601
6.2539579e-06
-0.00034888172
7.61291e-06
-0.00034967935
9.1271572e-06
-0.00035028457
1.0805182e-05
-0.00035060236
1.2631261e-05
-0.00035054541
1.4575118e-05
-0.0003500463
1.6563933e-05
-0.00034906014
1.8520924e-05
-0.0003475724
2.0313331e-05
-0.00034558831
2.1850959e-05
-0.00034314515
2.2944402e-05
-0.00034028525
2.3542525e-05
-0.00033710752
2.3345102e-05
-0.00033368511
2.2425108e-05
-0.0003302599
2.0234425e-05
-0.0003269297
1.7163899e-05
-0.00032431353
1.2338778e-05
6.5775166e-06
-0.00032979259
1.0306837e-07
-0.00032980967
1.0813548e-07
-0.00032982779
1.1447799e-07
-0.00032984747
1.2127232e-07
-0.00032986857
1.289344e-07
-0.00032989128
1.3745334e-07
-0.00032991568
1.4675337e-07
-0.0003299419
1.5707768e-07
-0.00032997009
1.6824951e-07
-0.00033000041
1.8053068e-07
-0.00033003302
1.9379499e-07
-0.00033006811
2.0825653e-07
-0.00033010586
2.2386362e-07
-0.00033014649
2.4078491e-07
-0.00033019021
2.5902882e-07
-0.00033023726
2.787364e-07
-0.00033028789
2.9995775e-07
-0.00033034237
3.2282202e-07
-0.00033040098
3.474073e-07
-0.00033046401
3.7384108e-07
-0.00033053179
4.0222067e-07
-0.00033060465
4.3267744e-07
-0.00033068294
4.6532229e-07
-0.00033076704
5.0029277e-07
-0.00033085733
5.377092e-07
-0.00033095424
5.7771525e-07
-0.0003310582
6.2043674e-07
-0.00033116964
6.660215e-07
-0.00033128905
7.1459636e-07
-0.00033141692
7.663095e-07
-0.00033155374
8.2128296e-07
-0.00033170003
8.7965588e-07
-0.00033185634
9.4155242e-07
-0.00033202321
1.0070758e-06
-0.0003322012
1.0763444e-06
-0.00033239086
1.1494297e-06
-0.00033259276
1.2264191e-06
-0.00033280746
1.3073407e-06
-0.00033303551
1.3922351e-06
-0.00033327745
1.4810689e-06
-0.00033353379
1.573816e-06
-0.00033380501
1.6703611e-06
-0.00033409157
1.770578e-06
-0.00033439387
1.8742599e-06
-0.00033471223
1.9811441e-06
-0.00033504692
2.0908943e-06
-0.00033539812
2.2030937e-06
-0.00033576592
2.3172406e-06
-0.00033615028
2.4327327e-06
-0.00033655104
2.5488675e-06
-0.00033696787
2.6648321e-06
-0.00033740032
2.7796978e-06
-0.00033784773
2.8924151e-06
-0.00033830925
3.0018173e-06
-0.00033878383
3.1066091e-06
-0.00033927018
3.2053816e-06
-0.0003397668
3.2966129e-06
-0.00034027191
3.3786812e-06
-0.00034078352
3.4498779e-06
-0.00034129936
3.5084364e-06
-0.00034181693
3.5525435e-06
-0.00034233349
3.580386e-06
-0.00034284607
3.5901804e-06
-0.00034335149
3.5802181e-06
-0.00034384642
3.5489116e-06
-0.00034432736
3.4948461e-06
-0.00034479075
3.4168383e-06
-0.00034523295
3.3139794e-06
-0.00034565033
3.1856992e-06
-0.00034603933
3.0318128e-06
-0.00034639653
2.8525608e-06
-0.00034671867
2.6486503e-06
-0.0003470028
2.4212764e-06
-0.00034724625
2.1721335e-06
-0.00034744679
1.9034118e-06
-0.00034760262
1.6177893e-06
-0.00034771246
1.3183814e-06
-0.00034777559
1.0087144e-06
-0.00034779191
6.9264228e-07
-0.00034776191
3.7429658e-07
-0.00034768676
5.7987437e-08
-0.0003475683
-2.5184821e-07
-0.00034740898
-5.5074226e-07
-0.00034721186
-8.3420478e-07
-0.00034698052
-1.0979867e-06
-0.0003467191
-1.3380041e-06
-0.00034643234
-1.5504181e-06
-0.00034612552
-1.7315306e-06
-0.00034580438
-1.8778582e-06
-0.00034547518
-1.985836e-06
-0.00034514458
-2.0518445e-06
-0.00034481976
-2.0719048e-06
-0.00034450836
-2.0416328e-06
-0.00034421856
-1.9559159e-06
-0.00034395913
-1.8088838e-06
-0.00034373944
-1.5937234e-06
-0.0003435694
-1.3029105e-06
-0.0003434594
-9.2845426e-07
-0.00034341995
-4.6264436e-07
-0.00034346126
1.0114706e-07
-0.00034359245
7.6746009e-07
-0.00034382014
1.5380059e-06
-0.00034414669
2.4109973e-06
-0.00034456805
3.3820323e-06
-0.00034507099
4.4448771e-06
-0.00034562985
5.594721e-06
-0.00034620487
6.8289869e-06
-0.00034674178
8.1498204e-06
-0.00034717313
9.5584994e-06
-0.00034742294
1.1054992e-05
-0.00034741573
1.262405e-05
-0.00034708329
1.4242682e-05
-0.00034637473
1.5855369e-05
-0.00034525869
1.7404891e-05
-0.00034373067
1.8785305e-05
-0.00034180386
1.9924147e-05
-0.00033952149
2.0662038e-05
-0.0003369319
2.095293e-05
-0.00033413634
2.0549544e-05
-0.00033121507
1.9503839e-05
-0.00032838744
1.7406798e-05
-0.00032576286
1.4539317e-05
-0.00032377793
1.0353845e-05
5.3801873e-06
-0.00032982093
1.1824545e-07
-0.00032983776
1.2496679e-07
-0.0003298556
1.323241e-07
-0.00032987498
1.4064602e-07
-0.00032989574
1.4969254e-07
-0.0003299181
1.5981387e-07
-0.00032994212
1.7077824e-07
-0.00032996796
1.8291518e-07
-0.00032999575
1.9603678e-07
-0.00033002563
2.1041846e-07
-0.00033005779
2.2595442e-07
-0.0003300924
2.4286067e-07
-0.00033012964
2.6110835e-07
-0.00033016973
2.8087103e-07
-0.00033021288
3.0217742e-07
-0.00033025932
3.2517831e-07
-0.0003303093
3.4994223e-07
-0.00033036309
3.7661198e-07
-0.00033042097
4.0528347e-07
-0.00033048323