/*--------------------------------*- C++ -*----------------------------------*\
| =========                 |                                                 |
| \\      /  F ield         | foam-extend: Open Source CFD                    |
|  \\    /   O peration     | Version:     4.1                                |
|   \\  /    A nd           | Web:         http://www.foam-extend.org         |
|    \\/     M anipulation  |                                                 |
\*---------------------------------------------------------------------------*/
FoamFile
{
    version     2.0;
    format      ascii;
    class       volVectorField;
    location    "0.4";
    object      U;
}
// * * * * * * * * * * * * * * * * * * * * * * * * * * * * * * * * * * * * * //

dimensions      [0 1 -1 0 0 0 0];

internalField   nonuniform List<vector> 
16126
(
(0.24789485 -7.7980297e-06 0)
(0.24793642 -2.4576319e-07 0)
(0.24792207 -4.1091928e-07 0)
(0.24795133 -8.8326747e-08 0)
(0.2479445 7.1425847e-07 0)
(0.24796406 3.8299425e-07 0)
(0.24796384 1.1012549e-06 0)
(0.24797787 8.99795e-07 0)
(0.24798185 1.4064052e-06 0)
(0.24799331 1.3699102e-06 0)
(0.24799998 1.7318695e-06 0)
(0.24801066 1.8059867e-06 0)
(0.24801933 2.0907074e-06 0)
(0.24803035 2.2316542e-06 0)
(0.24804083 2.4818221e-06 0)
(0.24805293 2.6638926e-06 0)
(0.24806533 2.903199e-06 0)
(0.24807912 3.112609e-06 0)
(0.24809375 3.3531245e-06 0)
(0.2481098 3.5822815e-06 0)
(0.2481271 3.8291686e-06 0)
(0.24814601 4.0729413e-06 0)
(0.24816655 4.3268816e-06 0)
(0.24818901 4.5802934e-06 0)
(0.24821351 4.8384592e-06 0)
(0.24824032 5.0951449e-06 0)
(0.24826964 5.3512998e-06 0)
(0.24830175 5.6022841e-06 0)
(0.24833692 5.8463499e-06 0)
(0.24837547 6.0788788e-06 0)
(0.24841775 6.2962163e-06 0)
(0.24846413 6.4923981e-06 0)
(0.24851503 6.6624089e-06 0)
(0.24857088 6.7986231e-06 0)
(0.2486322 6.893608e-06 0)
(0.2486995 6.9380633e-06 0)
(0.24877339 6.9220562e-06 0)
(0.24885451 6.8338929e-06 0)
(0.24894354 6.6609817e-06 0)
(0.24904124 6.3888752e-06 0)
(0.24914842 6.0019961e-06 0)
(0.24926597 5.4832862e-06 0)
(0.24939483 4.813679e-06 0)
(0.249536 3.9735408e-06 0)
(0.24969057 2.9412118e-06 0)
(0.24985966 1.6942777e-06 0)
(0.25004448 2.0917863e-07 0)
(0.25024627 -1.5380783e-06 0)
(0.25046635 -3.5716497e-06 0)
(0.25070604 -5.9154794e-06 0)
(0.2509667 -8.5923975e-06 0)
(0.2512497 -1.1623497e-05 0)
(0.25155637 -1.5027368e-05 0)
(0.25188803 -1.88188e-05 0)
(0.25224589 -2.300783e-05 0)
(0.25263109 -2.7598685e-05 0)
(0.25304459 -3.2588192e-05 0)
(0.25348718 -3.7964573e-05 0)
(0.25395941 -4.3706307e-05 0)
(0.25446153 -4.9780464e-05 0)
(0.25499346 -5.6141823e-05 0)
(0.25555473 -6.2732183e-05 0)
(0.2561444 -6.9479449e-05 0)
(0.25676105 -7.6297834e-05 0)
(0.25740275 -8.3088133e-05 0)
(0.25806695 -8.9739233e-05 0)
(0.25875056 -9.6129436e-05 0)
(0.25944989 -0.00010212932 0)
(0.26016065 -0.00010760507 0)
(0.26087804 -0.00011242203 0)
(0.26159676 -0.00011644883 0)
(0.26231112 -0.00011956225 0)
(0.26301508 -0.00012165099 0)
(0.26370246 -0.00012262057 0)
(0.26436697 -0.00012239669 0)
(0.26500239 -0.00012092913 0)
(0.26560273 -0.00011819153 0)
(0.26616235 -0.00011418587 0)
(0.2666761 -0.00010892878 0)
(0.26713943 -0.0001024685 0)
(0.2675485 -9.4804446e-05 0)
(0.26790012 -8.6042526e-05 0)
(0.26819206 -7.5909932e-05 0)
(0.26842252 -6.4919787e-05 0)
(0.26859142 -5.1869409e-05 0)
(0.26870094 -3.777525e-05 0)
(0.26875456 -3.2887182e-05 0)
(0.26875898 -3.5499076e-05 0)
(0.26871422 -3.2122449e-05 0)
(0.26860892 -2.2421717e-05 0)
(0.26844352 -1.1007086e-05 0)
(0.26821922 1.2314222e-06 0)
(0.26793935 1.3585924e-05 0)
(0.26760753 2.5812028e-05 0)
(0.26722782 3.777662e-05 0)
(0.26680378 4.9435027e-05 0)
(0.26633844 6.0853808e-05 0)
(0.26583294 7.2175368e-05 0)
(0.26528657 8.3803148e-05 0)
(0.26469427 9.6471589e-05 0)
(0.26404763 0.00011174905 0)
(0.2633313 0.00013251758 0)
(0.2625298 0.0001638039 0)
(0.26162506 0.0002132677 0)
(0.26062485 0.00029702103 0)
(0.25956647 0.00043382617 0)
(0.2586323 0.00062534358 0)
(0.25809123 0.00062804585 0)
(0.25874255 0.00035225227 0)
(0.26112654 -4.2354175e-05 0)
(0.26595278 -0.00060501305 0)
(0.27392156 -0.0014860166 0)
(0.28613559 -0.0027703534 0)
(0.30326676 -0.0046072435 0)
(0.32678315 -0.0070673386 0)
(0.35704629 -0.01035692 0)
(0.39625115 -0.014483854 0)
(0.44381745 -0.019729855 0)
(0.5034557 -0.025826553 0)
(0.57148766 -0.033252799 0)
(0.65566582 -0.040597338 0)
(0.74140267 -0.049778897 0)
(0.85380591 -0.051272734 0)
(0.92417422 -0.062785267 0)
(0.64736809 -2.5835712e-05 0)
(0.64742181 -1.3096985e-05 0)
(0.64743109 -1.3274528e-05 0)
(0.64747277 -1.2177893e-05 0)
(0.64749072 -1.1229764e-05 0)
(0.64752705 -1.1888841e-05 0)
(0.64755204 -1.1358349e-05 0)
(0.64758757 -1.2227859e-05 0)
(0.64761859 -1.223917e-05 0)
(0.6476562 -1.3140831e-05 0)
(0.64769303 -1.3590249e-05 0)
(0.6477347 -1.4576144e-05 0)
(0.64777775 -1.5379446e-05 0)
(0.64782507 -1.6523433e-05 0)
(0.64787514 -1.7643967e-05 0)
(0.64792956 -1.9011336e-05 0)
(0.64798779 -2.0449866e-05 0)
(0.64805079 -2.2100228e-05 0)
(0.64811855 -2.3883885e-05 0)
(0.64819177 -2.587792e-05 0)
(0.6482707 -2.8053672e-05 0)
(0.64835595 -3.045864e-05 0)
(0.64844796 -3.3090494e-05 0)
(0.64854733 -3.598439e-05 0)
(0.64865462 -3.9152999e-05 0)
(0.64877049 -4.2627908e-05 0)
(0.6488956 -4.6431608e-05 0)
(0.6490307 -5.0596725e-05 0)
(0.64917655 -5.5153381e-05 0)
(0.64933399 -6.0137901e-05 0)
(0.64950391 -6.5587039e-05 0)
(0.64968725 -7.1543076e-05 0)
(0.64988503 -7.8048591e-05 0)
(0.65009832 -8.5152272e-05 0)
(0.65032826 -9.2904069e-05 0)
(0.65057605 -0.00010135866 0)
(0.65084298 -0.00011057292 0)
(0.65113037 -0.00012060779 0)
(0.65143966 -0.00013152614 0)
(0.65177231 -0.00014339411 0)
(0.65212989 -0.00015627908 0)
(0.65251398 -0.00017024958 0)
(0.65292626 -0.00018537502 0)
(0.65336844 -0.00020172233 0)
(0.65384226 -0.00021935681 0)
(0.65434949 -0.00023833849 0)
(0.65489191 -0.00025872087 0)
(0.65547128 -0.0002805476 0)
(0.65608933 -0.00030384971 0)
(0.65674771 -0.00032864224 0)
(0.65744798 -0.00035492003 0)
(0.65819155 -0.00038265361 0)
(0.65897966 -0.00041178478 0)
(0.6598133 -0.00044222137 0)
(0.66069319 -0.00047383256 0)
(0.6616197 -0.00050644424 0)
(0.66259276 -0.00053983393 0)
(0.66361187 -0.00057372689 0)
(0.66467595 -0.00060779293 0)
(0.66578332 -0.00064164382 0)
(0.66693161 -0.00067483291 0)
(0.66811771 -0.00070685696 0)
(0.66933774 -0.00073715951 0)
(0.67058694 -0.00076513835 0)
(0.67185973 -0.00079015539 0)
(0.67314962 -0.0008115511 0)
(0.6744493 -0.0008286607 0)
(0.67575064 -0.000840835 0)
(0.6770448 -0.00084746251 0)
(0.6783223 -0.00084799325 0)
(0.67957317 -0.00084196191 0)
(0.68078714 -0.00082901175 0)
(0.68195381 -0.00080891321 0)
(0.68306286 -0.00078158272 0)
(0.68410427 -0.00074709336 0)
(0.68506858 -0.00070568485 0)
(0.6859471 -0.00065776138 0)
(0.68673213 -0.00060389008 0)
(0.68741718 -0.00054478078 0)
(0.68799714 -0.00048125819 0)
(0.68846842 -0.00041425432 0)
(0.68882906 -0.00034468544 0)
(0.6890787 -0.00027384549 0)
(0.68921895 -0.00020250432 0)
(0.68925326 -0.00013470216 0)
(0.68918455 -7.2167614e-05 0)
(0.68901437 -7.0127345e-06 0)
(0.68872692 6.180777e-05 0)
(0.68833078 0.00013211139 0)
(0.68784152 0.00020311621 0)
(0.68726916 0.00027137782 0)
(0.68662401 0.00033573233 0)
(0.68591662 0.00039533272 0)
(0.68515766 0.00044990941 0)
(0.68435788 0.00049965091 0)
(0.68352745 0.00054529377 0)
(0.6826757 0.00058835719 0)
(0.68181024 0.00063126191 0)
(0.68093702 0.00067767964 0)
(0.68005979 0.00073217464 0)
(0.67918317 0.00079982916 0)
(0.67831599 0.00088297082 0)
(0.67748592 0.00097763595 0)
(0.67675696 0.0010621539 0)
(0.67626837 0.0010807559 0)
(0.67625542 0.00090034911 0)
(0.67709935 0.00035309996 0)
(0.67930211 -0.00070386798 0)
(0.68307745 -0.0023778813 0)
(0.68912551 -0.0047667074 0)
(0.6982288 -0.0079409719 0)
(0.71092154 -0.011977747 0)
(0.72775594 -0.016830385 0)
(0.74876791 -0.022501809 0)
(0.77417112 -0.028856934 0)
(0.80321845 -0.03594798 0)
(0.83594707 -0.043503928 0)
(0.87039238 -0.051655519 0)
(0.90693693 -0.059618877 0)
(0.94101942 -0.067818838 0)
(0.97482998 -0.073720844 0)
(0.99736252 -0.080085241 0)
(1.0167728 -0.074580225 0)
(1.0120623 -0.080082988 0)
(0.87602037 -4.9556956e-05 0)
(0.87608396 -3.7140017e-05 0)
(0.87610777 -3.7988878e-05 0)
(0.87616178 -3.7055789e-05 0)
(0.8761978 -3.7330461e-05 0)
(0.87625024 -3.9037007e-05 0)
(0.87629558 -4.0151471e-05 0)
(0.87635101 -4.2695851e-05 0)
(0.8764051 -4.4748594e-05 0)
(0.8764665 -4.7834381e-05 0)
(0.87652981 -5.0754038e-05 0)
(0.87659947 -5.4416384e-05 0)
(0.87667308 -5.8168694e-05 0)
(0.87675304 -6.2513166e-05 0)
(0.87683847 -6.7123289e-05 0)
(0.8769308 -7.2273276e-05 0)
(0.87702991 -7.781566e-05 0)
(0.87713682 -8.3906847e-05 0)
(0.87725182 -9.0494766e-05 0)
(0.87737576 -9.7678937e-05 0)
(0.87750918 -0.00010545854 0)
(0.87765291 -0.00011390827 0)
(0.87780764 -0.00012305631 0)
(0.87797426 -0.00013296905 0)
(0.8781536 -0.00014369288 0)
(0.8783466 -0.00015529436 0)
(0.87855424 -0.00016783306 0)
(0.87877757 -0.00018138008 0)
(0.87901766 -0.00019600585 0)
(0.8792757 -0.00021178834 0)
(0.87955288 -0.00022880741 0)
(0.87985049 -0.00024714953 0)
(0.88016988 -0.00026690235 0)
(0.88051243 -0.00028816032 0)
(0.88087962 -0.00031101906 0)
(0.88127295 -0.00033557888 0)
(0.88169401 -0.00036194102 0)
(0.88214439 -0.00039020937 0)
(0.88262578 -0.00042048691 0)
(0.88313985 -0.00045287654 0)
(0.88368834 -0.0004874773 0)
(0.88427296 -0.00052438338 0)
(0.88489545 -0.00056368173 0)
(0.88555753 -0.00060544722 0)
(0.88626085 -0.0006497412 0)
(0.88700703 -0.00069660551 0)
(0.88779758 -0.00074605864 0)
(0.88863391 -0.0007980896 0)
(0.88951726 -0.00085265206 0)
(0.89044867 -0.00090965779 0)
(0.89142896 -0.00096896912 0)
(0.89245866 -0.0010303914 0)
(0.89353795 -0.0010936655 0)
(0.89466666 -0.001158459 0)
(0.89584413 -0.0012243596 0)
(0.89706923 -0.0012908671 0)
(0.89834025 -0.001357388 0)
(0.89965486 -0.0014232303 0)
(0.90101007 -0.0014876012 0)
(0.90240215 -0.0015496071 0)
(0.90382657 -0.0016082569 0)
(0.90527804 -0.0016624705 0)
(0.90675041 -0.0017110905 0)
(0.9082367 -0.0017529015 0)
(0.90972909 -0.0017866538 0)
(0.91121898 -0.0018110945 0)
(0.91269706 -0.0018250026 0)
(0.91415332 -0.0018272306 0)
(0.91557727 -0.0018167475 0)
(0.91695798 -0.0017926845 0)
(0.91828433 -0.0017543774 0)
(0.91954514 -0.0017014091 0)
(0.92072941 -0.0016336412 0)
(0.92182652 -0.0015512441 0)
(0.92282648 -0.001454711 0)
(0.92372016 -0.0013448701 0)
(0.92449947 -0.0012228729 0)
(0.92515763 -0.0010901879 0)
(0.9256893 -0.0009485489 0)
(0.92609073 -0.00079993518 0)
(0.92635997 -0.00064643201 0)
(0.92649663 -0.00049035036 0)
(0.92650255 -0.00033362537 0)
(0.92637976 -0.00017970761 0)
(0.92613362 -2.804995e-05 0)
(0.92575943 0.00012331233 0)
(0.92526161 0.0002743507 0)
(0.92466362 0.00042118159 0)
(0.92397808 0.00055834851 0)
(0.92322199 0.0006849221 0)
(0.92241031 0.00079971356 0)
(0.92155861 0.00090145722 0)
(0.92068338 0.00098922358 0)
(0.9198021 0.0010626168 0)
(0.9189336 0.0011218504 0)
(0.91809827 0.001167821 0)
(0.91731865 0.0012022696 0)
(0.91661995 0.0012276351 0)
(0.91603148 0.0012467611 0)
(0.91558807 0.0012614019 0)
(0.91533353 0.0012693603 0)
(0.91532416 0.0012587584 0)
(0.91563632 0.0011969068 0)
(0.91636726 0.0010180395 0)
(0.91764061 0.00062169 0)
(0.91959744 -0.0001254499 0)
(0.92231832 -0.001390951 0)
(0.92591801 -0.0033383949 0)
(0.9306855 -0.0061857261 0)
(0.93682954 -0.010113795 0)
(0.94462904 -0.015106232 0)
(0.9541701 -0.021117165 0)
(0.96553395 -0.027958486 0)
(0.97844243 -0.035468042 0)
(0.99270429 -0.043328746 0)
(1.007453 -0.051417354 0)
(1.022319 -0.059265594 0)
(1.0355829 -0.066832522 0)
(1.0471853 -0.073023647 0)
(1.0539153 -0.078014756 0)
(1.0572847 -0.078637342 0)
(1.0510894 -0.076920341 0)
(1.0404682 -0.062240039 0)
(1.0190377 -0.047250716 0)
(0.9752388 -7.5051904e-05 0)
(0.97530981 -6.61163e-05 0)
(0.97534121 -6.9012117e-05 0)
(0.97540455 -6.9586096e-05 0)
(0.97545176 -7.2158441e-05 0)
(0.97551592 -7.5810032e-05 0)
(0.97557481 -7.9545307e-05 0)
(0.97564443 -8.466246e-05 0)
(0.97571437 -8.9769287e-05 0)
(0.97579257 -9.6042682e-05 0)
(0.9758743 -0.00010254112 0)
(0.97596363 -0.00011002265 0)
(0.9760586 -0.00011796422 0)
(0.97616147 -0.00012681154 0)
(0.97627162 -0.00013631054 0)
(0.97639049 -0.00014672382 0)
(0.97651817 -0.00015795195 0)
(0.97665575 -0.00017016183 0)
(0.97680369 -0.00018333995 0)
(0.97696297 -0.00019760803 0)
(0.97713428 -0.0002130011 0)
(0.97731861 -0.00022962289 0)
(0.97751682 -0.00024753764 0)
(0.97772994 -0.00026684519 0)
(0.977959 -0.00028762922 0)
(0.97820511 -0.00030999277 0)
(0.97846943 -0.00033403397 0)
(0.97875318 -0.00035986222 0)
(0.97905764 -0.00038758719 0)
(0.97938415 -0.00041732566 0)
(0.97973409 -0.00044919625 0)
(0.98010894 -0.00048332291 0)
(0.98051019 -0.00051982991 0)
(0.9809394 -0.00055884594 0)
(0.98139816 -0.00060049812 0)
(0.98188813 -0.00064491482 0)
(0.98241097 -0.00069222061 0)
(0.98296837 -0.0007425373 0)
(0.98356203 -0.00079597875 0)
(0.98419366 -0.00085265072 0)
(0.98486494 -0.00091264519 0)
(0.98557751 -0.00097603831 0)
(0.98633295 -0.0010428852 0)
(0.98713278 -0.0011132145 0)
(0.98797838 -0.0011870236 0)
(0.98887101 -0.0012642711 0)
(0.98981175 -0.0013448706 0)
(0.99080147 -0.0014286821 0)
(0.99184079 -0.0015155041 0)
(0.99293004 -0.0016050642 0)
(0.99406919 -0.0016970102 0)
(0.99525784 -0.0017909004 0)
(0.99649515 -0.0018861943 0)
(0.99777977 -0.0019822437 0)
(0.99910981 -0.0020782846 0)
(1.0004828 -0.0021734311 0)
(1.0018956 -0.0022666699 0)
(1.0033444 -0.0023568591 0)
(1.0048247 -0.0024427289 0)
(1.0063312 -0.0025228873 0)
(1.0078579 -0.0025958303 0)
(1.0093979 -0.0026599586 0)
(1.0109436 -0.0027136002 0)
(1.0124867 -0.0027550408 0)
(1.0140182 -0.0027825613 0)
(1.0155286 -0.0027944829 0)
(1.0170076 -0.0027892178 0)
(1.0184447 -0.0027653266 0)
(1.0198291 -0.0027215757 0)
(1.0211498 -0.0026569993 0)
(1.022396 -0.0025709529 0)
(1.0235569 -0.0024631677 0)
(1.0246225 -0.0023337888 0)
(1.0255831 -0.0021834101 0)
(1.0264301 -0.0020130853 0)
(1.0271557 -0.0018243376 0)
(1.0277535 -0.0016191351 0)
(1.0282186 -0.001399873 0)
(1.0285473 -0.0011693055 0)
(1.0287379 -0.00093048977 0)
(1.0287901 -0.00068667324 0)
(1.0287058 -0.00044112595 0)
(1.0284876 -0.00019723266 0)
(1.0281421 4.2897455e-05 0)
(1.0276696 0.00027936284 0)
(1.0270865 0.00050857776 0)
(1.0264099 0.00072230078 0)
(1.0256565 0.00091713413 0)
(1.0248415 0.0010933761 0)
(1.023981 0.0012489234 0)
(1.0230934 0.0013813421 0)
(1.0221984 0.001488425 0)
(1.0213178 0.0015680925 0)
(1.0204758 0.0016184732 0)
(1.0196996 0.0016378275 0)
(1.019021 0.0016244368 0)
(1.0184768 0.0015765832 0)
(1.0181106 0.0014922113 0)
(1.017974 0.0013685445 0)
(1.0181272 0.0012005428 0)
(1.01864 0.0009789494 0)
(1.0195879 0.00068416949 0)
(1.0210511 0.00028465604 0)
(1.0230911 -0.00027107059 0)
(1.0257504 -0.0010671028 0)
(1.0290421 -0.0022151008 0)
(1.0329959 -0.0038813955 0)
(1.0375819 -0.0063107296 0)
(1.0427622 -0.0096870771 0)
(1.0483834 -0.014106628 0)
(1.0543117 -0.019564339 0)
(1.0603354 -0.025976615 0)
(1.0662847 -0.033098301 0)
(1.0717921 -0.040677228 0)
(1.0766271 -0.048299747 0)
(1.0801208 -0.055721376 0)
(1.0820426 -0.062388902 0)
(1.0812347 -0.068185525 0)
(1.0778688 -0.072071911 0)
(1.0700973 -0.074313111 0)
(1.0594923 -0.072287677 0)
(1.0436803 -0.068086315 0)
(1.0262291 -0.053718616 0)
(1.0099794 -0.037602646 0)
(1.0095756 -0.00010416435 0)
(1.0096526 -9.9728292e-05 0)
(1.0096872 -0.00010499595 0)
(1.0097562 -0.0001080097 0)
(1.0098092 -0.00011339961 0)
(1.00988 -0.00011971512 0)
(1.0099463 -0.00012667301 0)
(1.0100239 -0.00013504925 0)
(1.0101027 -0.00014389074 0)
(1.0101904 -0.00015409079 0)
(1.0102824 -0.00016494125 0)
(1.0103828 -0.00017707181 0)
(1.0104898 -0.0001900843 0)
(1.0106055 -0.00020437767 0)
(1.0107296 -0.00021977147 0)
(1.0108634 -0.00023652251 0)
(1.0110071 -0.00025458246 0)
(1.0111619 -0.00027413328 0)
(1.0113284 -0.00029520373 0)
(1.0115075 -0.00031794181 0)
(1.0117 -0.00034242214 0)
(1.0119071 -0.00036878125 0)
(1.0121296 -0.00039712289 0)
(1.0123687 -0.00042758369 0)
(1.0126256 -0.00046028753 0)
(1.0129013 -0.00049537645 0)
(1.0131972 -0.00053298918 0)
(1.0135146 -0.00057327478 0)
(1.0138548 -0.00061638282 0)
(1.0142193 -0.00066246855 0)
(1.0146095 -0.00071168811 0)
(1.0150271 -0.00076420025 0)
(1.0154735 -0.00082016196 0)
(1.0159504 -0.00087973045 0)
(1.0164594 -0.00094305691 0)
(1.0170023 -0.0010102882 0)
(1.0175807 -0.0010815603 0)
(1.0181963 -0.0011569984 0)
(1.0188509 -0.00123671 0)
(1.0195461 -0.0013207834 0)
(1.0202834 -0.0014092798 0)
(1.0210646 -0.00150223 0)
(1.0218909 -0.0015996265 0)
(1.0227638 -0.0017014167 0)
(1.0236844 -0.0018074956 0)
(1.0246537 -0.0019176958 0)
(1.0256724 -0.0020317797 0)
(1.0267412 -0.0021494281 0)
(1.0278602 -0.0022702308 0)
(1.0290291 -0.0023936755 0)
(1.0302475 -0.002519137 0)
(1.0315144 -0.0026458668 0)
(1.0328282 -0.0027729835 0)
(1.0341869 -0.0028994641 0)
(1.0355878 -0.0030241372 0)
(1.0370276 -0.0031456789 0)
(1.0385023 -0.0032626107 0)
(1.0400073 -0.0033733033 0)
(1.0415371 -0.0034759829 0)
(1.0430855 -0.0035687448 0)
(1.0446457 -0.0036495727 0)
(1.04621 -0.003716366 0)
(1.04777 -0.0037669735 0)
(1.0493168 -0.0037992382 0)
(1.0508407 -0.0038110469 0)
(1.0523318 -0.0038003906 0)
(1.0537796 -0.0037654284 0)
(1.0551734 -0.0037045593 0)
(1.0565025 -0.0036164912 0)
(1.0577563 -0.0035003143 0)
(1.0589241 -0.0033555631 0)
(1.0599961 -0.0031822784 0)
(1.0609629 -0.0029810462 0)
(1.0618158 -0.0027530357 0)
(1.0625474 -0.0025000026 0)
(1.0631512 -0.0022242937 0)
(1.0636222 -0.001928806 0)
(1.0639568 -0.0016169563 0)
(1.064153 -0.0012925905 0)
(1.0642106 -0.00095991698 0)
(1.0641311 -0.00062335994 0)
(1.0639176 -0.00028739949 0)
(1.063576 4.3496909e-05 0)
(1.0631114 0.00036640718 0)
(1.0625375 0.00067530161 0)
(1.0618694 0.00096330271 0)
(1.0611206 0.0012282855 0)
(1.0603045 0.0014668773 0)
(1.0594372 0.001675065 0)
(1.0585374 0.0018496195 0)
(1.0576255 0.0019870729 0)
(1.0567234 0.0020838291 0)
(1.055856 0.0021360633 0)
(1.0550511 0.0021395677 0)
(1.0543405 0.0020896244 0)
(1.0537613 0.0019807606 0)
(1.0533564 0.0018067169 0)
(1.053176 0.0015602136 0)
(1.0532778 0.0012328826 0)
(1.0537267 0.00081461186 0)
(1.054592 0.00029241242 0)
(1.0559448 -0.00035098979 0)
(1.0578419 -0.0011396337 0)
(1.0603361 -0.0021153394 0)
(1.0634582 -0.0033494917 0)
(1.0671943 -0.0049570646 0)
(1.0714914 -0.0070709886 0)
(1.0761993 -0.0098261206 0)
(1.0810854 -0.013361699 0)
(1.0858454 -0.017773563 0)
(1.0901835 -0.023031925 0)
(1.0937463 -0.029038452 0)
(1.0962677 -0.035544313 0)
(1.0973966 -0.042284349 0)
(1.0969819 -0.048838732 0)
(1.0946218 -0.054931796 0)
(1.0903507 -0.060008559 0)
(1.0835768 -0.06392084 0)
(1.0747864 -0.065706067 0)
(1.0630803 -0.065582116 0)
(1.0499409 -0.061377923 0)
(1.034446 -0.054737603 0)
(1.0187585 -0.04057487 0)
(1.0063715 -0.024194587 0)
(1.0194133 -0.00013426265 0)
(1.0194935 -0.00013457616 0)
(1.0195288 -0.00014220158 0)
(1.0196004 -0.00014820742 0)
(1.0196554 -0.00015661101 0)
(1.0197291 -0.00016598021 0)
(1.0197983 -0.00017640108 0)
(1.0198792 -0.00018834809 0)
(1.0199617 -0.0002011878 0)
(1.0200533 -0.00021561212 0)
(1.0201497 -0.00023110429 0)
(1.0202547 -0.00024819673 0)
(1.0203667 -0.00026660137 0)
(1.0204879 -0.00028668284 0)
(1.0206178 -0.00030832933 0)
(1.0207579 -0.00033179723 0)
(1.0209085 -0.00035708791 0)
(1.0210705 -0.00038440097 0)
(1.0212448 -0.0004138072 0)
(1.0214323 -0.00044548219 0)
(1.0216338 -0.0004795402 0)
(1.0218505 -0.00051615111 0)
(1.0220834 -0.00055545804 0)
(1.0223335 -0.00059763425 0)
(1.0226021 -0.00064284322 0)
(1.0228904 -0.00069126508 0)
(1.0231997 -0.00074307779 0)
(1.0235313 -0.00079846823 0)
(1.0238867 -0.00085762344 0)
(1.0242672 -0.00092073412 0)
(1.0246746 -0.00098799012 0)
(1.0251102 -0.0010595805 0)
(1.0255757 -0.0011356893 0)
(1.0260728 -0.0012164961 0)
(1.0266032 -0.0013021683 0)
(1.0271685 -0.0013928626 0)
(1.0277704 -0.0014887164 0)
(1.0284107 -0.0015898471 0)
(1.0290911 -0.0016963427 0)
(1.0298131 -0.0018082599 0)
(1.0305785 -0.0019256131 0)
(1.0313886 -0.0020483709 0)
(1.0322449 -0.0021764439 0)
(1.0331486 -0.0023096783 0)
(1.0341009 -0.0024478448 0)
(1.0351026 -0.0025906277 0)
(1.0361543 -0.0027376142 0)
(1.0372564 -0.0028882823 0)
(1.0384089 -0.0030419889 0)
(1.0396114 -0.0031979578 0)
(1.0408632 -0.0033552684 0)
(1.0421629 -0.0035128446 0)
(1.0435088 -0.0036694458 0)
(1.0448985 -0.0038236594 0)
(1.0463291 -0.0039738965 0)
(1.0477968 -0.0041183903 0)
(1.0492973 -0.0042551995 0)
(1.0508257 -0.0043822168 0)
(1.052376 -0.0044971832 0)
(1.0539417 -0.0045977095 0)
(1.0555157 -0.0046813055 0)
(1.0570898 -0.0047454184 0)
(1.0586554 -0.0047874784 0)
(1.0602032 -0.0048049557 0)
(1.0617235 -0.0047954229 0)
(1.0632059 -0.0047566289 0)
(1.06464 -0.0046865738 0)
(1.066015 -0.0045835927 0)
(1.0673201 -0.0044464342 0)
(1.0685449 -0.0042743423 0)
(1.0696789 -0.0040671232 0)
(1.0707124 -0.0038252122 0)
(1.0716364 -0.0035497118 0)
(1.0724427 -0.0032424288 0)
(1.0731242 -0.0029058705 0)
(1.0736751 -0.0025432437 0)
(1.074091 -0.0021583989 0)
(1.074369 -0.0017557928 0)
(1.0745079 -0.0013403726 0)
(1.0745082 -0.00091752031 0)
(1.0743724 -0.00049282518 0)
(1.0741047 -7.2194577e-05 0)
(1.0737114 0.00033908756 0)
(1.0732016 0.00073433275 0)
(1.0725874 0.0011072178 0)
(1.0718797 0.0014527967 0)
(1.0710919 0.0017651183 0)
(1.0702393 0.002039362 0)
(1.069339 0.0022715969 0)
(1.0684094 0.0024572229 0)
(1.0674714 0.0025914609 0)
(1.0665475 0.0026690721 0)
(1.065663 0.0026842542 0)
(1.064846 0.0026302974 0)
(1.0641283 0.0024994041 0)
(1.0635465 0.0022823761 0)
(1.063142 0.0019686978 0)
(1.0629623 0.0015465749 0)
(1.0630602 0.0010034776 0)
(1.0634932 0.00032644643 0)
(1.0643214 -0.00049742931 0)
(1.0656003 -0.0014806898 0)
(1.0673838 -0.0026429965 0)
(1.069706 -0.004015526 0)
(1.072573 -0.0056384086 0)
(1.0759368 -0.0075702143 0)
(1.0796845 -0.0098937782 0)
(1.0836302 -0.012719774 0)
(1.0875268 -0.016136201 0)
(1.0910411 -0.020192946 0)
(1.0938403 -0.024862937 0)
(1.0955624 -0.030060735 0)
(1.0959433 -0.035575348 0)
(1.0946926 -0.041178834 0)
(1.0917346 -0.046503742 0)
(1.0868484 -0.05130442 0)
(1.0802108 -0.055093744 0)
(1.0715579 -0.057755683 0)
(1.0614646 -0.058498785 0)
(1.0495638 -0.057562194 0)
(1.0370886 -0.053264383 0)
(1.0240204 -0.046868738 0)
(1.0116766 -0.034733368 0)
(1.0034107 -0.019969195 0)
(1.0218096 -0.00016578691 0)
(1.0218912 -0.00017049367 0)
(1.0219262 -0.00018039121 0)
(1.0219984 -0.00018959329 0)
(1.0220535 -0.00020102108 0)
(1.0221277 -0.00021364721 0)
(1.0221974 -0.00022761712 0)
(1.0222789 -0.00024330754 0)
(1.0223621 -0.00026027119 0)
(1.0224544 -0.00027908596 0)
(1.0225517 -0.00029937328 0)
(1.0226577 -0.00032160459 0)
(1.0227708 -0.00034558109 0)
(1.0228932 -0.00037164853 0)
(1.0230244 -0.00039975581 0)
(1.0231658 -0.00043016601 0)
(1.0233179 -0.00046292749 0)
(1.0234816 -0.0004982612 0)
(1.0236576 -0.00053627951 0)
(1.0238469 -0.00057718789 0)
(1.0240505 -0.00062114078 0)
(1.0242694 -0.00066834312 0)
(1.0245046 -0.00071897841 0)
(1.0247572 -0.00077325802 0)
(1.0250285 -0.00083138622 0)
(1.0253197 -0.00089358265 0)
(1.0256321 -0.00096006572 0)
(1.0259671 -0.0010310615 0)
(1.0263261 -0.0011067956 0)
(1.0267105 -0.0011874955 0)
(1.0271219 -0.0012733858 0)
(1.027562 -0.0013646868 0)
(1.0280322 -0.0014616107 0)
(1.0285343 -0.0015643596 0)
(1.02907 -0.0016731181 0)
(1.0296409 -0.0017880529 0)
(1.0302489 -0.0019093026 0)
(1.0308956 -0.0020369763 0)
(1.0315828 -0.002171142 0)
(1.032312 -0.0023118234 0)
(1.0330849 -0.0024589865 0)
(1.033903 -0.0026125348 0)
(1.0347678 -0.0027722948 0)
(1.0356804 -0.0029380072 0)
(1.036642 -0.0031093142 0)
(1.0376534 -0.0032857464 0)
(1.0387153 -0.0034667097 0)
(1.039828 -0.0036514717 0)
(1.0409915 -0.0038391483 0)
(1.0422055 -0.0040286903 0)
(1.043469 -0.0042188708 0)
(1.044781 -0.0044082747 0)
(1.0461394 -0.0045952893 0)
(1.047542 -0.0047780988 0)
(1.0489856 -0.0049546817 0)
(1.0504666 -0.0051228126 0)
(1.0519806 -0.0052800706 0)
(1.0535225 -0.0054238534 0)
(1.0550864 -0.0055513988 0)
(1.0566656 -0.0056598154 0)
(1.0582528 -0.0057461216 0)
(1.0598398 -0.0058072952 0)
(1.0614179 -0.0058403315 0)
(1.0629777 -0.0058423135 0)
(1.0645092 -0.0058104872 0)
(1.0660019 -0.0057423495 0)
(1.0674453 -0.0056357355 0)
(1.0688282 -0.0054889149 0)
(1.0701399 -0.0053006798 0)
(1.0713695 -0.0050704377 0)
(1.0725065 -0.0047982824 0)
(1.0735411 -0.0044850674 0)
(1.0744639 -0.0041324427 0)
(1.0752667 -0.0037428931 0)
(1.0759423 -0.0033197247 0)
(1.0764848 -0.0028670608 0)
(1.0768898 -0.0023897674 0)
(1.0771544 -0.0018934071 0)
(1.0772775 -0.0013841058 0)
(1.07726 -0.0008684708 0)
(1.0771044 -0.00035341987 0)
(1.0768153 0.00015392839 0)
(1.0763995 0.00064625825 0)
(1.0758661 0.0011162745 0)
(1.0752251 0.0015566175 0)
(1.0744885 0.0019604335 0)
(1.07367 0.0023220155 0)
(1.0727845 0.0026353806 0)
(1.071849 0.002894689 0)
(1.0708825 0.0030941186 0)
(1.0699053 0.0032276022 0)
(1.0689398 0.0032884845 0)
(1.0680104 0.0032693201 0)
(1.0671436 0.0031613887 0)
(1.0663689 0.0029545249 0)
(1.0657189 0.0026367682 0)
(1.0652297 0.0021945912 0)
(1.0649411 0.0016131437 0)
(1.0648961 0.00087727933 0)
(1.0651397 -2.7630885e-05 0)
(1.0657165 -0.0011139834 0)
(1.0666687 -0.0023935686 0)
(1.0680302 -0.0038764252 0)
(1.0698135 -0.0055733537 0)
(1.0720031 -0.007501885 0)
(1.0745425 -0.00969404 0)
(1.0773279 -0.012190442 0)
(1.080185 -0.015039077 0)
(1.0828824 -0.018285224 0)
(1.0851291 -0.021957537 0)
(1.086637 -0.02602166 0)
(1.0870959 -0.030405913 0)
(1.0862888 -0.034938619 0)
(1.0839935 -0.039437292 0)
(1.080186 -0.043595539 0)
(1.0747513 -0.047204545 0)
(1.0679107 -0.049836839 0)
(1.0595638 -0.051377065 0)
(1.0502344 -0.051143053 0)
(1.0397837 -0.049307895 0)
(1.0291082 -0.044588798 0)
(1.018443 -0.037947396 0)
(1.0085194 -0.02723158 0)
(1.0022185 -0.014586379 0)
(1.0223134 -0.000197179 0)
(1.0223951 -0.00020585794 0)
(1.0224291 -0.00021789724 0)
(1.022501 -0.00023033613 0)
(1.0225553 -0.00024471844 0)
(1.0226289 -0.00026065582 0)
(1.022698 -0.00027813573 0)
(1.0227789 -0.00029758371 0)
(1.0228615 -0.00031863608 0)
(1.0229532 -0.00034182487 0)
(1.0230498 -0.00036686622 0)
(1.0231551 -0.00039419965 0)
(1.0232675 -0.00042369764 0)
(1.0233891 -0.00045569914 0)
(1.0235195 -0.00049020622 0)
(1.0236601 -0.00052749352 0)
(1.0238112 -0.00056765315 0)
(1.023974 -0.00061092927 0)
(1.024149 -0.00065747428 0)
(1.0243373 -0.00070752413 0)
(1.0245398 -0.00076127256 0)
(1.0247576 -0.0008189596 0)
(1.0249915 -0.00088080852 0)
(1.025243 -0.00094706862 0)
(1.025513 -0.0010179844 0)
(1.0258028 -0.0010938147 0)
(1.0261138 -0.0011748179 0)
(1.0264473 -0.0012612587 0)
(1.0268048 -0.0013534012 0)
(1.0271876 -0.0014515089 0)
(1.0275975 -0.0015558407 0)
(1.0280359 -0.001666648 0)
(1.0285046 -0.0017841705 0)
(1.0290051 -0.0019086327 0)
(1.0295392 -0.002040236 0)
(1.0301086 -0.0021791566 0)
(1.0307151 -0.0023255346 0)
(1.0313604 -0.0024794706 0)
(1.0320462 -0.0026410125 0)
(1.0327743 -0.0028101514 0)
(1.0335462 -0.0029868053 0)
(1.0343636 -0.0031708133 0)
(1.0352278 -0.0033619183 0)
(1.0361402 -0.0035597571 0)
(1.037102 -0.0037638446 0)
(1.0381141 -0.0039735591 0)
(1.0391771 -0.0041881277 0)
(1.0402916 -0.0044066098 0)
(1.0414575 -0.004627883 0)
(1.0426746 -0.0048506277 0)
(1.0439422 -0.0050733144 0)
(1.045259 -0.0052941921 0)
(1.0466233 -0.0055112799 0)
(1.0480329 -0.0057223621 0)
(1.0494848 -0.0059249878 0)
(1.0509753 -0.0061164768 0)
(1.0525002 -0.0062939311 0)
(1.0540543 -0.0064542554 0)
(1.0556319 -0.0065941859 0)
(1.0572263 -0.0067103293 0)
(1.0588301 -0.0067992116 0)
(1.0604352 -0.0068573389 0)
(1.0620328 -0.0068812676 0)
(1.0636132 -0.0068676878 0)
(1.0651664 -0.0068135117 0)
(1.0666818 -0.0067159756 0)
(1.0681483 -0.0065727393 0)
(1.0695548 -0.0063819967 0)
(1.0708899 -0.0061425729 0)
(1.0721425 -0.005854029 0)
(1.0733017 -0.0055167377 0)
(1.0743571 -0.0051319652 0)
(1.075299 -0.0047019054 0)
(1.0761187 -0.0042297221 0)
(1.0768084 -0.0037195255 0)
(1.077362 -0.0031763654 0)
(1.0777745 -0.0026061382 0)
(1.078043 -0.0020155341 0)
(1.078166 -0.0014118753 0)
(1.0781441 -0.00080303351 0)
(1.07798 -0.00019720939 0)
(1.0776782 0.00039710684 0)
(1.0772455 0.00097137847 0)
(1.0766904 0.0015168636 0)
(1.0760233 0.0020254466 0)
(1.0752561 0.0024893856 0)
(1.0744025 0.0029010939 0)
(1.0734782 0.0032534839 0)
(1.0725002 0.003539925 0)
(1.0714872 0.0037535193 0)
(1.0704591 0.0038872042 0)
(1.0694375 0.0039331689 0)
(1.0684452 0.0038827336 0)
(1.0675068 0.0037257372 0)
(1.0666485 0.0034504313 0)
(1.0658983 0.0030431147 0)
(1.0652864 0.0024885337 0)
(1.0648441 0.0017703371 0)
(1.0646044 0.00087247431 0)
(1.0645996 -0.00021926751 0)
(1.0648605 -0.0015156157 0)
(1.0654129 -0.0030222988 0)
(1.0662723 -0.0047396488 0)
(1.0674375 -0.0066648101 0)
(1.0688851 -0.0087926148 0)
(1.0705557 -0.011122809 0)
(1.0723505 -0.013662684 0)
(1.0741207 -0.016432338 0)
(1.0756802 -0.019446169 0)
(1.0767939 -0.022710781 0)
(1.0772309 -0.026195213 0)
(1.0767463 -0.02984596 0)
(1.0751738 -0.033533432 0)
(1.0723467 -0.037122605 0)
(1.0682635 -0.040370905 0)
(1.0628584 -0.043114019 0)
(1.0563373 -0.044996155 0)
(1.0486773 -0.045920722 0)
(1.0403218 -0.045327799 0)
(1.0312901 -0.043345005 0)
(1.0222705 -0.038987873 0)
(1.0136975 -0.032912621 0)
(1.0060226 -0.023655339 0)
(1.0014099 -0.012482207 0)
(1.0224015 -0.00022883491 0)
(1.0224826 -0.00024109529 0)
(1.0225157 -0.00025526918 0)
(1.0225868 -0.00027091089 0)
(1.0226401 -0.00028819821 0)
(1.0227126 -0.0003074699 0)
(1.0227806 -0.00032843106 0)
(1.0228603 -0.00035165378 0)
(1.0229416 -0.00037677988 0)
(1.023032 -0.00040434938 0)
(1.0231273 -0.00043413578 0)
(1.0232312 -0.00046657204 0)
(1.023342 -0.00050158555 0)
(1.023462 -0.00053951986 0)
(1.0235907 -0.0005804234 0)
(1.0237294 -0.00062458759 0)
(1.0238786 -0.00067214562 0)
(1.0240393 -0.00072336748 0)
(1.0242121 -0.00077844479 0)
(1.0243981 -0.00083764556 0)
(1.0245982 -0.00090120298 0)
(1.0248133 -0.0009693934 0)
(1.0250445 -0.0010424805 0)
(1.025293 -0.0011207528 0)
(1.0255599 -0.0012044961 0)
(1.0258465 -0.0012940099 0)
(1.0261541 -0.0013895939 0)
(1.0264841 -0.0014915534 0)
(1.0268379 -0.0016001927 0)
(1.0272169 -0.0017158134 0)
(1.0276227 -0.0018387115 0)
(1.028057 -0.0019691717 0)
(1.0285213 -0.0021074642 0)
(1.0290174 -0.0022538395 0)