/*--------------------------------*- C++ -*----------------------------------*\
| =========                 |                                                 |
| \\      /  F ield         | foam-extend: Open Source CFD                    |
|  \\    /   O peration     | Version:     4.1                                |
|   \\  /    A nd           | Web:         http://www.foam-extend.org         |
|    \\/     M anipulation  |                                                 |
\*---------------------------------------------------------------------------*/
FoamFile
{
    version     2.0;
    format      ascii;
    class       volScalarField;
    location    "0.6";
    object      p;
}
// * * * * * * * * * * * * * * * * * * * * * * * * * * * * * * * * * * * * * //

dimensions      [0 2 -2 0 0 0 0];

internalField   nonuniform List<scalar> 
16796
(
-0.00042647693
-1.3209891e-05
-0.0004486004
-0.00031916863
-0.00057084261
-0.00057212263
-0.0007461216
-0.00081094271
-0.00095601404
-0.0010557317
-0.0011951073
-0.0013184168
-0.0014640453
-0.0016075287
-0.0017664595
-0.0019303795
-0.002107637
-0.002294074
-0.0024939583
-0.0027059934
-0.0029326748
-0.0031740335
-0.0034318247
-0.003706721
-0.0040001955
-0.0043132541
-0.0046472848
-0.0050034835
-0.0053832277
-0.0057878309
-0.006218668
-0.006677126
-0.0071645624
-0.0076823633
-0.0082318496
-0.008814333
-0.0094310327
-0.010083107
-0.010771586
-0.011497369
-0.012261188
-0.013063551
-0.01390475
-0.01478476
-0.015703253
-0.016659496
-0.017652346
-0.018680164
-0.019740779
-0.020831422
-0.021948679
-0.023088427
-0.024245796
-0.025415108
-0.026589845
-0.027762615
-0.028925132
-0.030068205
-0.031181749
-0.032254812
-0.033275611
-0.034231615
-0.035109622
-0.035895887
-0.036576253
-0.03713633
-0.037561668
-0.037837987
-0.037951392
-0.037888628
-0.037637332
-0.037186281
-0.036525679
-0.035647338
-0.034545014
-0.033214445
-0.031653728
-0.029863324
-0.02784608
-0.025607421
-0.023155202
-0.020499705
-0.017653489
-0.014631185
-0.011449318
-0.0081259527
-0.0046804799
-0.0011331616
0.0024950894
0.0061832177
0.0099102271
0.01365566
0.01739976
0.021123865
0.024810484
0.028443574
0.03200852
0.035492281
0.038883284
0.042171474
0.045348162
0.048406011
0.051338891
0.054141818
0.056810846
0.059342965
0.061736062
0.06398871
0.066100307
0.06807059
0.069900197
0.071589501
0.073140295
0.074552796
0.075830338
0.076971506
0.077982781
0.078857774
0.079610902
0.080222428
0.08072783
0.081072253
0.081347234
0.08140754
-0.00042547227
-1.3146478e-05
-0.00044752032
-0.00031837116
-0.00056945428
-0.00057071842
-0.00074430692
-0.00080896942
-0.00095370002
-0.0010531834
-0.0011922366
-0.0013152639
-0.001460563
-0.001603727
-0.0017623087
-0.0019258749
-0.0021027561
-0.0022888052
-0.0024882818
-0.0026998943
-0.0029261346
-0.003167036
-0.0034243526
-0.0036987586
-0.0039917273
-0.0043042665
-0.0046377657
-0.0049934231
-0.005372619
-0.0057766707
-0.0062069568
-0.0066648697
-0.0071517726
-0.0076690584
-0.008218056
-0.0088000858
-0.0094163774
-0.010068101
-0.010756297
-0.011481882
-0.012245601
-0.01304798
-0.013889329
-0.014769641
-0.015688609
-0.016645522
-0.017639258
-0.018668201
-0.019730201
-0.020822513
-0.021941743
-0.023083788
-0.024243793
-0.025416096
-0.026594188
-0.027770685
-0.028937299
-0.030084832
-0.031203186
-0.032281385
-0.033307617
-0.03426931
-0.035153211
-0.035945516
-0.036631997
-0.037198187
-0.037629548
-0.037911707
-0.03803067
-0.03797308
-0.037726469
-0.037279517
-0.036622329
-0.035746626
-0.034646095
-0.033316398
-0.031755653
-0.029964344
-0.027945292
-0.025703937
-0.023248153
-0.02058826
-0.017736874
-0.014708692
-0.011520323
-0.0081899192
-0.0047369758
-0.0011818551
0.0024544208
0.0061506946
0.0098858644
0.013639379
0.017391387
0.021123146
0.024817089
0.028457107
0.032028529
0.035518271
0.038914724
0.042207815
0.045388845
0.048450482
0.051386609
0.054192268
0.056863545
0.059397469
0.06179197
0.064045665
0.066157996
0.068128745
0.069958594
0.071647954
0.073198658
0.074610958
0.075888217
0.077029054
0.07803997
0.078914605
0.079667387
0.080278611
0.080783743
0.081127978
0.081402802
0.081463079
-0.00042345192
-1.3062054e-05
-0.00044536985
-0.00031681836
-0.00056670491
-0.00056795572
-0.00074071985
-0.00080507757
-0.00094912977
-0.0010481555
-0.001186571
-0.0013090458
-0.0014536974
-0.0015962365
-0.0017541347
-0.001917011
-0.0020931588
-0.0022784543
-0.0024771403
-0.0026879356
-0.002913325
-0.0031533473
-0.0034097541
-0.0036832237
-0.0039752301
-0.0042867852
-0.0046192821
-0.0049739242
-0.0053520981
-0.0057551283
-0.0061844026
-0.0066413237
-0.0071272669
-0.0076436394
-0.0081917861
-0.0087730455
-0.0093886678
-0.010039846
-0.010727647
-0.011453013
-0.012216721
-0.013019328
-0.013861183
-0.014742313
-0.015662452
-0.016620928
-0.017616662
-0.01864808
-0.019713074
-0.020808937
-0.021932316
-0.02307914
-0.024244586
-0.025423013
-0.026607929
-0.027791955
-0.028966799
-0.030123245
-0.031251165
-0.032339536
-0.033376482
-0.03434935
-0.035244789
-0.03604888
-0.036747259
-0.03732531
-0.037768332
-0.038061774
-0.038191457
-0.038143832
-0.03790624
-0.03746717
-0.036816547
-0.03594592
-0.034848834
-0.033520801
-0.031959883
-0.030166531
-0.028143522
-0.025896311
-0.023432819
-0.020763454
-0.017900956
-0.014860175
-0.011657913
-0.0083125246
-0.0048437392
-0.0012721514
0.0023809679
0.0060942285
0.0098462915
0.013616397
0.017384491
0.021131664
0.024840196
0.028493864
0.032077898
0.035579155
0.038985983
0.042288297
0.045477407
0.048546011
0.051488037
0.054298589
0.056973825
0.059510853
0.061907686
0.064163033
0.066276422
0.068247722
0.070077698
0.071766844
0.073317065
0.074728685
0.076005128
0.077145075
0.078155072
0.079028816
0.079780754
0.080391247
0.080895735
0.081239519
0.081513968
0.081574162
-0.00042043112
-1.292557e-05
-0.00044214473
-0.00031448062
-0.00056257711
-0.00056380336
-0.00073533248
-0.00079923015
-0.00094226437
-0.0010406009
-0.0011780582
-0.0012997011
-0.0014433781
-0.0015849757
-0.0017418441
-0.0019036797
-0.002078721
-0.0022628783
-0.0024603695
-0.0026699286
-0.00289403
-0.0031327198
-0.0033877467
-0.0036597941
-0.0039503373
-0.0042603942
-0.0045913624
-0.0049444537
-0.0053210631
-0.0057225264
-0.0061502444
-0.0066056353
-0.0070900924
-0.0076050439
-0.0081518584
-0.0087319019
-0.009346455
-0.0099967449
-0.010683877
-0.011408835
-0.012172442
-0.012975305
-0.013817825
-0.014700087
-0.015621883
-0.016582605
-0.017581238
-0.01861627
-0.019685658
-0.02078676
-0.021916278
-0.023070198
-0.024243741
-0.025431306
-0.026626426
-0.027821733
-0.02900893
-0.030178779
-0.031321105
-0.032424816
-0.03347794
-0.034467706
-0.035380613
-0.036202564
-0.036918995
-0.037515058
-0.037975803
-0.03828641
-0.038432412
-0.038399973
-0.038176134
-0.037749096
-0.03710851
-0.036245666
-0.035153894
-0.033828494
-0.032267444
-0.03047116
-0.028442353
-0.026186508
-0.023711614
-0.021028205
-0.018149206
-0.015089695
-0.011866752
-0.0084990378
-0.0050066242
-0.0014104494
0.0022678462
0.0060065283
0.009783905
0.013578906
0.017371175
0.02114155
0.024872079
0.028546363
0.032149481
0.03566819
0.039090768
0.042407109
0.045608525
0.048687757
0.051638796
0.054456839
0.057138148
0.059679952
0.062080395
0.064338315
0.066453376
0.06842558
0.070255817
0.071944703
0.073494255
0.074904906
0.076180171
0.077318825
0.078327478
0.079199917
0.079950615
0.080560034
0.081063574
0.081406696
0.081680591
0.081740669
-0.00041641669
-1.2756244e-05
-0.00043786239
-0.00031138742
-0.00055709984
-0.00055829945
-0.0007281855
-0.00079147575
-0.00093315751
-0.0010305816
-0.0011667674
-0.0012873082
-0.0014296933
-0.0015700439
-0.0017255481
-0.0018860061
-0.0020595829
-0.0022422345
-0.0024381455
-0.0026460708
-0.0028684703
-0.0031054007
-0.0033586061
-0.0036287776
-0.003917392
-0.0042254751
-0.0045544314
-0.0049054831
-0.0052800371
-0.0056794442
-0.0061051226
-0.0065585113
-0.0070410279
-0.0075541282
-0.0080992129
-0.0086776843
-0.0092908638
-0.0099400244
-0.010626322
-0.011350796
-0.012114331
-0.012917599
-0.013761072
-0.014644911
-0.015568987
-0.016532774
-0.017535341
-0.018575262
-0.01965058
-0.020758733
-0.021896502
-0.023059944
-0.024244343
-0.025444146
-0.026652919
-0.027863311
-0.029067016
-0.030254765
-0.031416322
-0.032540505
-0.033615214
-0.03462752
-0.035563721
-0.036409491
-0.037149991
-0.037770076
-0.038254458
-0.038587962
-0.038755742
-0.038743573
-0.038538104
-0.03812715
-0.037499989
-0.036647567
-0.035562917
-0.034241048
-0.032679789
-0.030879483
-0.028842754
-0.026575117
-0.024084657
-0.021382081
-0.018480574
-0.015395523
-0.012144403
-0.0087462894
-0.0052217373
-0.0015921594
0.002120291
0.0058934035
0.0097049984
0.01353358
0.017358376
0.021159887
0.024919849
0.028621633
0.032250121
0.035791953
0.039235325
0.042570115
0.045787652
0.048880746
0.051843485
0.054671195
0.057360284
0.059908149
0.062313105
0.064574173
0.066691195
0.06866435
0.070494698
0.072183018
0.073731475
0.075140648
0.076414172
0.077550951
0.078557678
0.079428261
0.080177205
0.08078511
0.081287319
0.081629511
0.081902631
0.081962538
-0.0004114186
-1.2539265e-05
-0.00043252142
-0.00030752396
-0.00055026478
-0.0005514284
-0.00071926515
-0.00078179567
-0.00092178934
-0.0010180728
-0.0011526703
-0.0012718332
-0.0014126031
-0.0015513938
-0.001705191
-0.0018639243
-0.0020356668
-0.0022164313
-0.0024103612
-0.0026162365
-0.0028364995
-0.0030712196
-0.0033221352
-0.0035899463
-0.0038761317
-0.0041817267
-0.0045081439
-0.0048566187
-0.0052285721
-0.0056253734
-0.0060484624
-0.0064993035
-0.0069793444
-0.0074900754
-0.0080329368
-0.008609376
-0.0092207654
-0.009868435
-0.010553603
-0.011277381
-0.012040728
-0.0128444
-0.013688958
-0.014574657
-0.015501468
-0.01646897
-0.017476339
-0.018522258
-0.019604878
-0.020721742
-0.021869733
-0.023045
-0.024242905
-0.025457962
-0.026683783
-0.027913038
-0.029137418
-0.030347615
-0.03153332
-0.032683238
-0.033785115
-0.03482582
-0.035791403
-0.036667245
-0.037438165
-0.038088637
-0.038602949
-0.038965472
-0.03916088
-0.039174456
-0.038992344
-0.038601872
-0.037991844
-0.037152767
-0.036077299
-0.034760092
-0.033198774
-0.031393592
-0.029347072
-0.027064756
-0.024554856
-0.021828289
-0.018898567
-0.015781466
-0.012494956
-0.0090586392
-0.0054936786
-0.0018220848
0.0019333383
0.0057497815
0.0096044459
0.0134753
0.017341044
0.021181753
0.024978766
0.028715164
0.032375579
0.035946501
0.039416022
0.042773999
0.046011784
0.049122274
0.052099678
0.054939487
0.057638297
0.060193717
0.062604281
0.064869241
0.066988664
0.068962955
0.070793386
0.072480944
0.074027981
0.075435257
0.07670656
0.077840953
0.078845237
0.079713469
0.080460194
0.081066185
0.081566711
0.081907728
0.082179869
0.082239567
-0.00040544974
-1.2284731e-05
-0.00042614237
-0.00030291395
-0.00054210185
-0.00054322492
-0.00070861177
-0.00077023595
-0.00090821205
-0.0010031335
-0.001135833
-0.0012533499
-0.00139219
-0.001529117
-0.0016808745
-0.001837547
-0.0020070976
-0.0021856072
-0.0023771693
-0.0025805946
-0.0027983038
-0.0030303818
-0.0032785598
-0.0035435487
-0.0038268293
-0.0041294486
-0.0044528284
-0.00479822
-0.0051670611
-0.0055607432
-0.0059807317
-0.0064285214
-0.0069055957
-0.0074134861
-0.0079536805
-0.0085276801
-0.009136918
-0.0097827928
-0.010466599
-0.01118953
-0.011952639
-0.012756779
-0.01360262
-0.01449053
-0.015420602
-0.016392539
-0.017405647
-0.018458741
-0.019550102
-0.020677403
-0.021837648
-0.023027098
-0.024241215
-0.025474594
-0.026720903
-0.027972844
-0.029222101
-0.030459328
-0.031674128
-0.032855075
-0.033989729
-0.035064719
-0.0360658
-0.036977999
-0.037785725
-0.038472991
-0.039023574
-0.039421296
-0.039650246
-0.039695109
-0.039541416
-0.039175898
-0.038586779
-0.037764029
-0.036699833
-0.035388405
-0.033827102
-0.03201604
-0.029957622
-0.02765742
-0.025123798
-0.022367932
-0.019403739
-0.016247473
-0.012917722
-0.0094347356
-0.0058204344
-0.0020975672
0.001710253
0.0055794791
0.0094865445
0.013408761
0.017324179
0.021212358
0.025054152
0.028832299
0.032531133
0.036136974
0.039637798
0.043023451
0.046285323
0.049416432
0.052411142
0.055265155
0.0579753
0.06053945
0.062956408
0.065225709
0.067347694
0.069323043
0.071153285
0.072839658
0.07438474
0.075789511
0.077057941
0.078189286
0.079190473
0.08005574
0.080799681
0.081403275
0.0819017
0.082241251
0.082512173
0.082571605
-0.0003985203
-1.1984782e-05
-0.000418729
-0.00029755224
-0.00053261187
-0.0005336856
-0.00069622448
-0.00075679319
-0.00089242254
-0.00098575816
-0.0011162485
-0.0012318483
-0.0013684404
-0.0015031952
-0.0016525751
-0.0018068437
-0.0019738366
-0.0021497135
-0.0023385099
-0.0025390716
-0.0027537942
-0.0029827798
-0.0032277516
-0.0034894324
-0.0037693052
-0.0040684299
-0.004388239
-0.0047300015
-0.0050951743
-0.0054851742
-0.0059014958
-0.0063456691
-0.0068192185
-0.0073237232
-0.0078607258
-0.0084317902
-0.0090384201
-0.0096820935
-0.010364193
-0.011086011
-0.011848706
-0.01265325
-0.013500436
-0.014390769
-0.015324481
-0.016301428
-0.017321066
-0.018382368
-0.019483771
-0.020623103
-0.021797513
-0.023003401
-0.024236348
-0.025491049
-0.026761246
-0.02803968
-0.029318039
-0.030586933
-0.031835868
-0.03305327
-0.034226483
-0.035341861
-0.036384808
-0.03733994
-0.038191181
-0.038922001
-0.039515567
-0.039955056
-0.040223857
-0.040305945
-0.040186119
-0.039850399
-0.039286311
-0.038483191
-0.037432647
-0.036128391
-0.034567425
-0.032749701
-0.030677494
-0.028356386
-0.025794929
-0.023004595
-0.019999784
-0.016797316
-0.013416515
-0.0098783984
-0.0062057974
-0.0024223372
0.0014473979
0.0053789844
0.0093479342
0.013330781
0.017304798
0.021248934
0.025143468
0.028970733
0.032714711
0.036361531
0.039899029
0.043317051
0.046607036
0.049762151
0.052776949
0.055647391
0.058370585
0.06094472
0.063368924
0.065643066
0.067767815
0.069744175
0.071573982
0.073258768
0.074801378
0.076203049
0.077467966
0.07859561
0.079593057
0.080454755
0.081195351
0.081796074
0.082291985
0.082629783
0.082899249
0.082958366
-0.00039064596
-1.1646018e-05
-0.00041030364
-0.00029146052
-0.00052182601
-0.00052284453
-0.00068214468
-0.00074151357
-0.00087447379
-0.00096600577
-0.0010939829
-0.0012074014
-0.0013414353
-0.0014737176
-0.0016203904
-0.0017719216
-0.0019360011
-0.0021088783
-0.0022945223
-0.002491819
-0.0027031349
-0.0029285919
-0.0031699034
-0.0034278058
-0.003703784
-0.0039989127
-0.004314636
-0.0046522425
-0.0050132109
-0.0053989864
-0.0058110962
-0.0062511103
-0.0067205993
-0.0072211963
-0.007754506
-0.0083221633
-0.0089257523
-0.0095668413
-0.010246914
-0.010967374
-0.011729503
-0.012534405
-0.01338302
-0.014276006
-0.01521376
-0.016196307
-0.017223284
-0.018293844
-0.019406607
-0.020559579
-0.021750085
-0.022974684
-0.024229101
-0.025508152
-0.026805669
-0.028114447
-0.029426181
-0.030731439
-0.032019626
-0.033278998
-0.03449666
-0.03565865
-0.036749977
-0.037754783
-0.038656432
-0.039437769
-0.040081256
-0.040569316
-0.040884525
-0.041010029
-0.040929766
-0.040628925
-0.040094207
-0.0393142
-0.038279812
-0.0369842
-0.035423893
-0.033598618
-0.031510532
-0.02916521
-0.026571424
-0.023740986
-0.020688869
-0.017432554
-0.013992241
-0.010389855
-0.0066493059
-0.0027952524
0.0011465644
0.0051506926
0.0091915495
0.013244761
0.01728668
0.021295552
0.025250982
0.029134845
0.032930722
0.03662453
0.040203962
0.043658878
0.046980789
0.050163052
0.053200455
0.05608927
0.058826939
0.061412029
0.063844047
0.066123258
0.068250711
0.07022779
0.072056684
0.073739267
0.075278689
0.076676486
0.077937088
0.079060234
0.08005317
0.080910584
0.081647184
0.082244483
0.082737404
0.083073119
0.083340857
0.083399599
-0.0003818394
-1.1264085e-05
-0.00040087555
-0.00028464073
-0.00050975361
-0.00051070838
-0.00066638303
-0.00072440689
-0.0008543776
-0.00094388757
-0.0010690479
-0.0011800198
-0.0013111841
-0.0014406914
-0.0015843249
-0.0017327809
-0.0018935861
-0.0020630898
-0.0022451869
-0.0024388072
-0.0026462848
-0.002867763
-0.003104944
-0.0033585785
-0.0036301536
-0.0039207592
-0.0042318523
-0.0045647429
-0.0049209334
-0.0053018997
-0.0057092055
-0.0061444643
-0.0066092982
-0.0071054001
-0.0076344439
-0.0081981434
-0.0087981725
-0.0094362011
-0.010113826
-0.010832576
-0.011593871
-0.012398968
-0.013248968
-0.014144706
-0.015086765
-0.016075367
-0.017110352
-0.018191082
-0.019316389
-0.020484487
-0.021692901
-0.022938381
-0.024216822
-0.025523185
-0.026851412
-0.02819437
-0.029543773
-0.030890149
-0.032222795
-0.033529788
-0.034797965
-0.036013016
-0.037159498
-0.038221022
-0.039180315
-0.040019506
-0.040720251
-0.041264107
-0.041632713
-0.041808262
-0.041773694
-0.041513237
-0.041012629
-0.040259597
-0.039244226
-0.037959022
-0.036399953
-0.03456648
-0.032460612
-0.030087898
-0.027457364
-0.024581201
-0.021475045
-0.018157135
-0.014648693
-0.010972683
-0.0071542876
-0.0032193527
0.00080502285
0.0048922018
0.0090153194
0.013148959
0.017268401
0.02135109
0.02537585
0.029324043
0.033178789
0.036925784
0.040552563
0.044049018
0.047406755
0.050619368
0.053681923
0.056591064
0.059344624
0.061941612
0.064381976
0.066666435
0.068796482
0.070773933
0.072601381
0.07428109
0.075816559
0.077209661
0.078465103
0.079582916
0.080570534
0.081422922
0.082154848
0.082748151
0.083237591
0.083570883
0.083836615
0.083894923
-0.00037211876
-1.0844081e-05
-0.00039046895
-0.00027711445
-0.00049642782
-0.00049731239
-0.00064898329
-0.00070552135
-0.00083218958
-0.00091946497
-0.0010415121
-0.0011497789
-0.0012777698
-0.0014042068
-0.0015444769
-0.0016895282
-0.0018467068
-0.0020124723
-0.0021906371
-0.0023801795
-0.0025833969
-0.0028004564
-0.0030330467
-0.0032819344
-0.003548608
-0.0038341742
-0.0041401031
-0.004467728
-0.0048185763
-0.0051941578
-0.0055960755
-0.0060259905
-0.0064855808
-0.006976605
-0.0075008126
-0.0080600048
-0.0086559542
-0.0092904428
-0.0099651923
-0.010681872
-0.011442055
-0.012247167
-0.013098491
-0.01399706
-0.014943666
-0.015938753
-0.01698239
-0.018074178
-0.019213187
-0.020397872
-0.02162599
-0.02289451
-0.024199526
-0.025536173
-0.026898526
-0.028279543
-0.02967097
-0.031063305
-0.032445734
-0.033806146
-0.035131084
-0.036405857
-0.037614524
-0.0387401
-0.039764595
-0.040669337
-0.041435063
-0.042042352
-0.042471773
-0.042704427
-0.042722111
-0.042507949
-0.042046565
-0.04132469
-0.040331449
-0.039058595
-0.037501412
-0.035659043
-0.033533332
-0.031129773
-0.028457684
-0.025529679
-0.022362165
-0.01897424
-0.015388319
-0.011628561
-0.0077216291
-0.003694735
0.00042343665
0.0046048929
0.0088212746
0.013045981
0.017253049
0.021419024
0.025521835
0.029542282
0.033462969
0.037269365
0.040948841
0.044491357
0.047888646
0.051134594
0.054224602
0.057155753
0.059926341
0.062535885
0.064984842
0.067274456
0.069406719
0.071383943
0.073209176
0.074885123
0.076415671
0.077803074
0.079052345
0.080163844
0.081145212
0.08199172
0.082718201
0.08330686
0.083792265
0.084122751
0.084386163
0.084443967
-0.00036150008
-1.0383718e-05
-0.00037909846
-0.0002688893
-0.00048186579
-0.00048267196
-0.00062996662
-0.00068487854
-0.00080793496
-0.0008927642
-0.001011404
-0.0011167077
-0.0012412223
-0.0013642937
-0.0015008755
-0.0016421908
-0.001795388
-0.0019570467
-0.0021308887
-0.0023159447
-0.0025144718
-0.0027266618
-0.0029541887
-0.0031978355
-0.0034590913
-0.0037390805
-0.0040392864
-0.004361067
-0.0047059764
-0.0050755599
-0.0054714628
-0.0058953969
-0.006349101
-0.0068344043
-0.0073531385
-0.0079071993
-0.0084984675
-0.0091288473
-0.0098001975
-0.010514341
-0.011273021
-0.012077848
-0.012930308
-0.013831654
-0.014782911
-0.01578477
-0.016837561
-0.01794115
-0.019094881
-0.02029748
-0.021546969
-0.022840573
-0.024174618
-0.025544441
-0.026944282
-0.028367213
-0.029805032
-0.031248216
-0.032685846
-0.034105609
-0.035493741
-0.036835133
-0.038113297
-0.039310589
-0.040408225
-0.041386632
-0.042225517
-0.042904359
-0.043402511
-0.043699844
-0.043776847
-0.043615393
-0.043198825
-0.042512742
-0.04154515
-0.040286949
-0.038732607
-0.036880892
-0.034733448
-0.032295684
-0.02957724
-0.026591192
-0.023354823
-0.0198882
-0.016215112
-0.012361069
-0.0083544517
-0.0042240202
-3.0032233e-07
0.004287181
0.0086083331
0.012935223
0.017240455
0.021499573
0.025689488
0.029790388
0.033784301
0.037656469
0.041394096
0.044987248
0.048427819
0.051710055
0.054829751
0.057784509
0.06057315
0.063195787
0.065653455
0.067947996
0.070081966
0.072058233
0.073880358
0.075551536
0.077076089
0.078456689
0.079698691
0.080802815
0.08177693
0.082616646
0.08333686
0.083920189
0.084400972
0.084728248
0.08498901
0.085046239
-0.00035000421
-9.8873703e-06
-0.00036679064
-0.00025998779
-0.00046610342
-0.00046682469
-0.00060938023
-0.00066253011
-0.00078167354
-0.00086385094
-0.00097879692
-0.0010808865
-0.0012016294
-0.0013210471
-0.0014536236
-0.0015908793
-0.0017397483
-0.0018969395
-0.0020660762
-0.0022462454
-0.0024396597
-0.0026465374
-0.0028685356
-0.0031064542
-0.0033617823
-0.0036356622
-0.0039295913
-0.0042449525
-0.004583328
-0.0049463007
-0.0053355603
-0.0057528729
-0.0062000416
-0.0066789712
-0.0071915818
-0.0077398709
-0.0083258356
-0.0089515126
-0.0096189101
-0.010330018
-0.011086763
-0.011890961
-0.012744322
-0.013648337
-0.014604292
-0.015613152
-0.016675534
-0.017791606
-0.018961016
-0.020182799
-0.021455279
-0.022775971
-0.024141471
-0.025547356
-0.026988062
-0.028456805
-0.029945455
-0.03144449
-0.032942887
-0.034428136
-0.035886142
-0.037301351
-0.038656679
-0.039933765
-0.04111294
-0.042173641
-0.043094419
-0.043853522
-0.044428937
-0.044799146
-0.044943156
-0.044841418
-0.044475811
-0.043830642
-0.042892622
-0.041651676
-0.040101293
-0.038239796
-0.036068606
-0.033593
-0.03082298
-0.027772126
-0.024458724
-0.020903927
-0.017133111
-0.01317331
-0.0090548967
-0.0048083799
-0.00046642252
0.0039397229
0.0083779617
0.012818874
0.017233419
0.021596041
0.025882493
0.030072313
0.034146892
0.038091261
0.041892458
0.045540711
0.049028123
0.052349377
0.055500737
0.058480411
0.061287833
0.063923793
0.066389985
0.068688924
0.070823804
0.072798113
0.074615981
0.076281149
0.077798414
0.079170913
0.080404373
0.081499908
0.082465631
0.083297528
0.084010555
0.084587787
0.085063297
0.085386914
0.08564466
0.085701233
-0.00033765081
-9.3541276e-06
-0.00035356522
-0.00025042244
-0.00044916507
-0.00044979384
-0.00058725492
-0.00063850837
-0.00075344292
-0.00083276519
-0.0009437347
-0.0010423613
-0.00115904
-0.0012745175
-0.0014027729
-0.0015356457
-0.0016798392
-0.0018322007
-0.001996247
-0.0021711248
-0.0023589983
-0.0025601132
-0.0027761076
-0.0030077986
-0.0032566742
-0.0035238949
-0.0038109715
-0.0041193131
-0.0044505303
-0.0048062451
-0.0051881935
-0.0055981985
-0.0060381311
-0.0065099762
-0.0070157475
-0.0075575512
-0.0081375091
-0.0087577999
-0.0094205923
-0.010128057
-0.01088232
-0.011685422
-0.012539312
-0.013445748
-0.014406298
-0.015422233
-0.016494487
-0.017623564
-0.018809451
-0.020051531
-0.021348472
-0.022698119
-0.02409738
-0.025542111
-0.027026983
-0.02854539
-0.030089306
-0.031649231
-0.033214049
-0.034771054
-0.036305807
-0.037802286
-0.03924276
-0.04060809
-0.041877635
-0.04302974
-0.044041673
-0.044890315
-0.04555212
-0.046004015
-0.046223333
-0.046188926
-0.045881005
-0.045282418
-0.044378385
-0.043157728
-0.041612782
-0.039741347
-0.037544581
-0.035027565
-0.032200704
-0.029078106
-0.025679199
-0.022026332
-0.018146709
-0.014069062
-0.0098260718
-0.0054502013
-0.00097659049
0.0035615823
0.0081299062
0.012697316
0.01723288
0.021709848
0.026102658
0.03039017
0.034553065
0.038576194
0.04244643
0.046154233
0.04969197
0.053054852
0.056239695
0.05924541
0.062072136
0.064721435
0.067195745
0.06949834
0.071633123
0.073604272
0.075416549
0.077074289
0.078582818
0.079945774
0.081169289
0.082254908
0.083211004
0.084033968
0.084738819
0.08530913
0.08577867
0.086098148
0.086352489
0.086408323
-0.00032446373
-8.7879795e-06
-0.00033945154
-0.00024021732
-0.00043109005
-0.00043162013
-0.00056364225
-0.0006128695
-0.00072330822
-0.00079957829
-0.00090629695
-0.0010012188
-0.0011135486
-0.001224807
-0.0013484336
-0.0014766081
-0.0016157866
-0.0017629638
-0.001921542
-0.0020907312
-0.0022726426
-0.0024675506
-0.0026770718
-0.0029020405
-0.0031439426
-0.0034039565
-0.0036836061
-0.0039843266
-0.0043077579
-0.0046555619
-0.0050295224
-0.0054315217
-0.0058635016
-0.0063275309
-0.0068257223
-0.0073602967
-0.0079335082
-0.0085476872
-0.0092051737
-0.0099083321
-0.010659505
-0.011460971
-0.012314944
-0.013223469
-0.014188426
-0.015211416
-0.016293728
-0.017436233
-0.018639302
-0.019902703
-0.021225491
-0.022605891
-0.024041165
-0.025527499
-0.027059837
-0.0286318
-0.030235494
-0.031861473
-0.033498549
-0.035133826
-0.036752514
-0.038338098
-0.039872158
-0.041334714
-0.042704065
-0.04395736
-0.045070446
-0.046018692
-0.046776833
-0.047320069
-0.047623837
-0.047665195
-0.047422455
-0.046876812
-0.046011769
-0.044814895
-0.043277153
-0.041395723
-0.039171465
-0.03660919
-0.033719747
-0.030517808
-0.0270241
-0.023262294
-0.019261699
-0.015052943
-0.010671384
-0.0061516622
-0.001531796
0.0031528991
0.0078653312
0.012572628
0.01724169
0.021844478
0.026353947
0.030748259
0.035007322
0.039115846
0.043060559
0.046832237
0.050423582
0.053830444
0.057050285
0.060082838
0.062929044
0.065591346
0.06807302
0.070378188
0.072511542
0.074478026
0.076283089
0.077931726
0.07942983
0.080781587
0.081993565
0.083067772
0.084012859
0.084825656
0.085521235
0.086083718
0.086546523
0.086861336
0.087111845
0.087166846
-0.00031046634
-8.1890032e-06
-0.00032447422
-0.00022938929
-0.00041190943
-0.00041233403
-0.00053858198
-0.00058565575
-0.00069131859
-0.00076434302
-0.00086654193
-0.00095752116
-0.0010652218
-0.0011719854
-0.0012906786
-0.0014138414
-0.0015476672
-0.0016893062
-0.0018420383
-0.0020051396
-0.0021806645
-0.0023689163
-0.0025714879
-0.0027892304
-0.0030236257
-0.0032758701
-0.0035474993
-0.003839975
-0.0041549656
-0.0044941739
-0.0048594326
-0.0052526844
-0.0056759447
-0.0061313697
-0.0066211751
-0.0071477024
-0.007713345
-0.0083205937
-0.0089719707
-0.0096700467
-0.010417395
-0.011216553
-0.012070017
-0.012980144
-0.013949151
-0.014979004
-0.016071378
-0.01722755
-0.018448315
-0.019733875
-0.021083716
-0.022496494
-0.023969878
-0.025500433
-0.027083432
-0.028712763
-0.030380717
-0.032077932
-0.033793174
-0.035513374
-0.037223386
-0.038906187
-0.040542622
-0.042111813
-0.043590904
-0.044955743
-0.046180608
-0.047239203
-0.048104348
-0.048749319
-0.049147428
-0.049273725
-0.04910437
-0.048618701
-0.047798249
-0.046629178
-0.045100836
-0.043209685
-0.040956226
-0.038344907
-0.035387054
-0.032097916
-0.028499695
-0.024617498
-0.02048306
-0.016129095
-0.011594069
-0.00691503
-0.0021333437
0.0027133215
0.0075847653
0.012446148
0.017261876
0.022002541
0.026639417
0.031149966
0.035513247
0.039713897
0.043738513
0.047578302
0.051226373
0.054679351
0.057935447
0.060995349
0.063860909
0.066535572
0.069023548
0.071329911
0.073460222
0.075420266
0.077216249
0.078853879
0.080339665
0.081678385
0.082877071
0.083938229
0.084870802
0.085672091
0.086357215
0.086910894
0.087366142
0.087675726
0.087921948
0.087976017
-0.00029568575
-7.5609782e-06
-0.00030866572
-0.00021796437
-0.00039166642
-0.00039198002
-0.00051213071
-0.00055692865
-0.00065754546
-0.00072713756
-0.00082455684
-0.00091136309
-0.0010141631
-0.0011161643
-0.0012296281
-0.0013474741
-0.0014756176
-0.0016113723
-0.001757888
-0.0019145095
-0.0020832301
-0.0022643826
-0.002459533
-0.0026695493
-0.0028959072
-0.00313982
-0.0034028344
-0.0036864377
-0.0039923266
-0.0043222447
-0.0046780738
-0.0050618188
-0.0054755701
-0.0059215741
-0.0064021533
-0.0069197749
-0.0074769782
-0.0080764223
-0.0087208218
-0.0094129662
-0.010155675
-0.010951759
-0.011804022
-0.012715154
-0.01368774
-0.014724139
-0.015826451
-0.0169964
-0.018235246
-0.019543674
-0.020921657
-0.022368335
-0.023881841
-0.02545918
-0.027096011
-0.02878655
-0.030523316
-0.032297085
-0.034096606
-0.035908666
-0.037717762
-0.039506356
-0.041254514
-0.042940408
-0.044539928
-0.046027515
-0.047375716
-0.048556412
-0.049540284
-0.050298487
-0.050801932
-0.051023434
-0.050936705
-0.050518994
-0.049749567
-0.048612992
-0.047096714
-0.045196335
-0.042911944
-0.040247513
-0.037214886
-0.033829904
-0.030116446
-0.026101179
-0.02181865
-0.017303866
-0.01259892
-0.0077435102
-0.0027829148
0.0022426243
0.0072892894
0.01232012
0.017296648
0.022188035
0.026963647
0.031600276
0.036076051
0.040375634
0.044485518
0.048397482
0.052105139
0.055606042
0.058899276
0.061986634
0.064871006
0.067556967
0.070049775
0.072355557
0.074480835
0.076432317
0.078217031
0.079841456
0.081312766
0.082636373
0.083819804
0.084866095
0.085784492
0.086572801
0.087246176
0.087789983
0.08823678
0.088540521
0.088781962
0.08883499
-0.00028014915
-6.9047161e-06
-0.00029205539
-0.00020596343
-0.00037039848
-0.00037059528
-0.00048433667
-0.00052673981
-0.00062204887
-0.00068802679
-0.00078041358
-0.00086282177
-0.00096045554
-0.0010574318
-0.0011653751
-0.0012776032
-0.0013997386
-0.0015292655
-0.0016691963
-0.0018189466
-0.0019804442
-0.0021540514
-0.0023413049
-0.0025430878
-0.0027608682
-0.0029958749
-0.0032496639
-0.0035237471
-0.0038198485
-0.0041397519
-0.0044853883
-0.0048588248
-0.0052622284
-0.0056979372
-0.006168384
-0.0066761655
-0.0072239727
-0.0078146407
-0.0084510857
-0.0091363275
-0.0098734454
-0.010665544
-0.011515751
-0.012427118
-0.013402622
-0.014445052
-0.015556966
-0.01674058
-0.017997667
-0.019329447
-0.020736435
-0.022218316
-0.023773752
-0.025400255
-0.027093933
-0.028849398
-0.030659458
-0.032515083
-0.034405048
-0.036316028
-0.038232175
-0.040135436
-0.042005056
-0.043818211
-0.045549431
-0.047171644
-0.048655492
-0.049970865
-0.051086067
-0.051969906
-0.052590602
-0.052918485
-0.052924496
-0.052583545
-0.05187231
-0.050773564
-0.049272527
-0.047363809
-0.045047002
-0.042325455
-0.039211562
-0.035721742
-0.031881774
-0.027719992
-0.023274199
-0.018581885
-0.01368939
-0.0086392937
-0.0034814623
0.0017410761
0.0069802792
0.012196925
0.017349225
0.022404863
0.027331042
0.032103938
0.036700659
0.041106019
0.045306448
0.049294464
0.053064292
0.056614598
0.059945478
0.063060003
0.065962233
0.068658022
0.071153791
0.073456838
0.075574735
0.077515201
0.07928615
0.080894899
0.082349329
0.08365553
0.084821549
0.085850986
0.086753402
0.087527138
0.088187369
0.088720158
0.089157546
0.089454789
0.089690919
0.089742791
-0.00026388706
-6.2238827e-06