/*--------------------------------*- C++ -*----------------------------------*\
| =========                 |                                                 |
| \\      /  F ield         | foam-extend: Open Source CFD                    |
|  \\    /   O peration     | Version:     4.1                                |
|   \\  /    A nd           | Web:         http://www.foam-extend.org         |
|    \\/     M anipulation  |                                                 |
\*---------------------------------------------------------------------------*/
FoamFile
{
    version     2.0;
    format      ascii;
    class       surfaceScalarField;
    location    "0.6";
    object      phi;
}
// * * * * * * * * * * * * * * * * * * * * * * * * * * * * * * * * * * * * * //

dimensions      [0 3 -1 0 0 0 0];

internalField   nonuniform List<scalar> 
32976
(
-0.0016157364
2.6226368e-07
-0.0016160157
2.7925949e-07
-0.00161631
2.9426076e-07
-0.0016166233
3.1329898e-07
-0.0016169555
3.3221322e-07
-0.0016173094
3.5390494e-07
-0.0016176859
3.7657127e-07
-0.0016180875
4.015653e-07
-0.0016185156
4.2813288e-07
-0.0016189726
4.5694034e-07
-0.0016194603
4.8770531e-07
-0.0016199811
5.2079099e-07
-0.0016205372
5.5612809e-07
-0.0016211312
5.9394694e-07
-0.0016217654
6.3427408e-07
-0.0016224427
6.7728154e-07
-0.0016231657
7.2303724e-07
-0.0016239374
7.7168614e-07
-0.0016247607
8.2331071e-07
-0.0016256388
8.7804026e-07
-0.0016265747
9.3595671e-07
-0.0016275719
9.9717582e-07
-0.0016286337
1.0617687e-06
-0.0016297635
1.129835e-06
-0.0016309649
1.2014264e-06
-0.0016322416
1.2766214e-06
-0.001633597
1.3554442e-06
-0.001635035
1.4379454e-06
-0.0016365591
1.5241133e-06
-0.001638173
1.6139634e-06
-0.0016398805
1.7074391e-06
-0.001641685
1.8045047e-06
-0.0016435901
1.9050794e-06
-0.0016455991
2.0090285e-06
-0.0016477153
2.1162395e-06
-0.0016499418
2.2264999e-06
-0.0016522815
2.3396268e-06
-0.0016547368
2.4553226e-06
-0.0016573101
2.5733185e-06
-0.0016600033
2.6932142e-06
-0.0016628179
2.814635e-06
-0.001665755
2.9370583e-06
-0.001668815
3.0599606e-06
-0.0016719977
3.1826966e-06
-0.0016753022
3.3045478e-06
-0.0016787269
3.4246963e-06
-0.0016822691
3.5422178e-06
-0.0016859252
3.6560809e-06
-0.0016896903
3.7651284e-06
-0.0016935584
3.8680894e-06
-0.001697522
3.9635746e-06
-0.0017015721
4.0500856e-06
-0.0017056981
4.1260258e-06
-0.0017098878
4.189728e-06
-0.0017141273
4.2394598e-06
-0.0017184008
4.2734689e-06
-0.0017226908
4.2900028e-06
-0.0017269781
4.287342e-06
-0.0017312419
4.2638276e-06
-0.0017354598
4.2178999e-06
-0.0017396079
4.1481085e-06
-0.0017436611
4.0531583e-06
-0.001747593
3.9319276e-06
-0.0017513765
3.7834985e-06
-0.0017549837
3.6071854e-06
-0.0017583863
3.4025634e-06
-0.0017615558
3.1695031e-06
-0.001764464
2.9081851e-06
-0.0017670831
2.6191358e-06
-0.0017693863
2.3032416e-06
-0.0017713481
1.9617595e-06
-0.0017729444
1.5963242e-06
-0.0017741534
1.2089457e-06
-0.0017749554
8.0199016e-07
-0.0017753335
3.7817043e-07
-0.001775274
-5.9505688e-08
-0.0017747663
-5.0772057e-07
-0.0017738034
-9.6292222e-07
-0.001772382
-1.4213766e-06
-0.0017705029
-1.8791511e-06
-0.0017681707
-2.3321921e-06
-0.0017653943
-2.7763379e-06
-0.001762187
-3.207337e-06
-0.0017585661
-3.6208733e-06
-0.0017545535
-4.0125667e-06
-0.0017501755
-4.3780106e-06
-0.0017454627
-4.7127931e-06
-0.0017404502
-5.0125812e-06
-0.001735177
-5.2732117e-06
-0.0017296861
-5.4908671e-06
-0.0017240238
-5.6622755e-06
-0.0017182388
-5.7849614e-06
-0.0017123813
-5.8575187e-06
-0.0017065015
-5.8798742e-06
-0.001700648
-5.8534634e-06
-0.0016948667
-5.7813307e-06
-0.0016891986
-5.6680428e-06
-0.0016836791
-5.5194781e-06
-0.0016783367
-5.3423912e-06
-0.0016731928
-5.1439315e-06
-0.0016682618
-4.931053e-06
-0.0016635518
-4.709995e-06
-0.0016590659
-4.4858577e-06
-0.0016548035
-4.2623806e-06
-0.0016507616
-4.0418823e-06
-0.0016469362
-3.8254313e-06
-0.0016433231
-3.6131132e-06
-0.0016399187
-3.4043796e-06
-0.0016367203
-3.1983796e-06
-0.0016337261
-2.9942414e-06
-0.0016309349
-2.7912378e-06
-0.001628346
-2.5888854e-06
-0.001625959
-2.386939e-06
-0.0016237737
-2.1853473e-06
-0.0016217895
-1.9841716e-06
-0.001620006
-1.783523e-06
-0.0016184225
-1.5834777e-06
-0.0016170385
-1.3840669e-06
-0.0016158532
-1.1852187e-06
-0.0016148664
-9.8681401e-07
-0.0016140778
-7.8860959e-07
-0.0016134874
-5.9039643e-07
-0.0016130956
-3.9179479e-07
-1.9262196e-07
-0.0016157295
5.238781e-07
-0.0016160081
5.5786351e-07
-0.0016163016
5.8781086e-07
-0.0016166142
6.2586446e-07
-0.0016169456
6.6364056e-07
-0.0016172987
7.0698749e-07
-0.0016176744
7.5226811e-07
-0.001618075
8.0221011e-07
-0.0016185022
8.5529072e-07
-0.0016189581
9.1285241e-07
-0.0016194447
9.7432402e-07
-0.0016199644
1.0404365e-06
-0.0016205193
1.1110484e-06
-0.001621112
1.1866228e-06
-0.0016217449
1.2672116e-06
-0.0016224208
1.3531602e-06
-0.0016231424
1.4446042e-06
-0.0016239125
1.5418347e-06
-0.0016247342
1.6450168e-06
-0.0016256106
1.7544101e-06
-0.0016265448
1.8701792e-06
-0.0016275402
1.9925566e-06
-0.0016286001
2.1216857e-06
-0.001629728
2.2577669e-06
-0.0016309275
2.4009051e-06
-0.0016322021
2.5512585e-06
-0.0016335556
2.7088773e-06
-0.0016349915
2.8738642e-06
-0.0016365136
3.046198e-06
-0.0016381255
3.2259109e-06
-0.001639831
3.4128924e-06
-0.0016416336
3.6070725e-06
-0.0016435368
3.8082917e-06
-0.001645544
4.0162824e-06
-0.0016476586
4.2308217e-06
-0.0016498836
4.4514862e-06
-0.0016522219
4.6779114e-06
-0.0016546761
4.9095036e-06
-0.0016572485
5.145726e-06
-0.001659941
5.3857787e-06
-0.0016627553
5.6289123e-06
-0.0016656923
5.8740819e-06
-0.0016687526
6.1202397e-06
-0.001671936
6.3660941e-06
-0.0016752417
6.6102073e-06
-0.0016786679
6.8509424e-06
-0.0016822121
7.0864493e-06
-0.0016858707
7.3146649e-06
-0.0016896389
7.5332741e-06
-0.0016935105
7.7397352e-06
-0.0016974782
7.9312703e-06
-0.001701533
8.1048831e-06
-0.0017056644
8.2573811e-06
-0.0017098601
8.3854294e-06
-0.0017141062
8.4855621e-06
-0.001718387
8.5542705e-06
-0.001722685
8.5880439e-06
-0.0017269811
8.5834339e-06
-0.0017312544
8.5371103e-06
-0.0017354824
8.4459387e-06
-0.0017396413
8.3070006e-06
-0.0017437058
8.1176867e-06
-0.0017476497
7.8757332e-06
-0.0017514454
7.5792845e-06
-0.0017550652
7.2269498e-06
-0.0017584805
6.8178619e-06
-0.0017616627
6.3517467e-06
-0.0017645835
5.8289525e-06
-0.0017672149
5.2505229e-06
-0.0017695299
4.6182248e-06
-0.0017715027
3.9345701e-06
-0.0017731092
3.202831e-06
-0.0017743273
2.4270338e-06
-0.0017751372
1.6119233e-06
-0.001775522
7.6294274e-07
-0.0017754676
-1.1385864e-07
-0.0017749635
-1.0118139e-06
-0.0017740027
-1.9237873e-06
-0.0017725818
-2.8422787e-06
-0.0017707015
-3.7594009e-06
-0.0017683667
-4.6670137e-06
-0.0017655863
-5.5567635e-06
-0.0017623735
-6.4201171e-06
-0.001758746
-7.2484157e-06
-0.0017547257
-8.0328767e-06
-0.001750339
-8.7646706e-06
-0.0017456168
-9.4349631e-06
-0.0017405943
-1.0035086e-05
-0.0017353108
-1.0556718e-05
-0.0017298094
-1.0992233e-05
-0.0017241366
-1.1335105e-05
-0.0017183412
-1.1580403e-05
-0.0017124734
-1.1725333e-05
-0.0017065835
-1.1769771e-05
-0.0017007203
-1.1716602e-05
-0.0016949297
-1.1571928e-05
-0.0016892529
-1.1344889e-05
-0.0016837251
-1.1047247e-05
-0.001678375
-1.0692513e-05
-0.0016732239
-1.0294988e-05
-0.0016682864
-9.8685853e-06
-0.0016635706
-9.4257914e-06
-0.0016590796
-8.9768182e-06
-0.0016548129
-8.5291596e-06
-0.0016507673
-8.0874689e-06
-0.0016469388
-7.6538992e-06
-0.0016433233
-7.2286364e-06
-0.0016399171
-6.8105951e-06
-0.0016367174
-6.3980816e-06
-0.0016337223
-5.9893572e-06
-0.0016309305
-5.5829684e-06
-0.0016283415
-5.1779475e-06
-0.0016259546
-4.7738011e-06
-0.0016237695
-4.3704226e-06
-0.0016217858
-3.9679296e-06
-0.0016200028
-3.5665395e-06
-0.0016184198
-3.166399e-06
-0.0016170363
-2.7675662e-06
-0.0016158517
-2.3698911e-06
-0.0016148653
-1.9731328e-06
-0.0016140772
-1.5767964e-06
-0.0016134871
-1.1804645e-06
-0.0016130955
-7.833645e-07
-3.8513749e-07
-0.0016157166
7.842485e-07
-0.0016159939
8.3514088e-07
-0.001616286
8.7997092e-07
-0.0016165971
9.3695715e-07
-0.001616927
9.9351617e-07
-0.0016172785
1.0584287e-06
-0.0016176524
1.1262323e-06
-0.0016180512
1.2010234e-06
-0.0016184765
1.2805144e-06
-0.0016189303
1.3667218e-06
-0.0016194148
1.4587872e-06
-0.0016199322
1.5578087e-06
-0.0016204847
1.6635738e-06
-0.0016210748
1.7767781e-06
-0.0016217051
1.8975001e-06
-0.0016223782
2.0262589e-06
-0.0016230969
2.163259e-06
-0.001623864
2.3089383e-06
-0.0016246825
2.4635461e-06
-0.0016255556
2.6274736e-06
-0.0016264864
2.8009699e-06
-0.0016274782
2.984386e-06
-0.0016285345
3.1779397e-06
-0.0016296586
3.3819345e-06
-0.0016308543
3.5965311e-06
-0.001632125
3.8219703e-06
-0.0016334744
4.0583314e-06
-0.0016349063
4.3057725e-06
-0.0016364244
4.564266e-06
-0.0016380323
4.833865e-06
-0.0016397339
5.1144084e-06
-0.0016415326
5.4057958e-06
-0.0016434321
5.7077931e-06
-0.0016454358
6.0200034e-06
-0.0016475471
6.342097e-06
-0.001649769
6.6734432e-06
-0.0016521046
7.0134991e-06
-0.0016545565
7.3613776e-06
-0.0016571271
7.7162763e-06
-0.0016598183
8.0769972e-06
-0.0016626318
8.4424178e-06
-0.0016655687
8.8109709e-06
-0.0016686295
9.1810843e-06
-0.0016718142
9.5508198e-06
-0.001675122
9.9180186e-06
-0.0016785513
1.0280224e-05
-0.0016820995
1.0634658e-05
-0.0016857631
1.0978224e-05
-0.0016895373
1.130745e-05
-0.0016934161
1.1618522e-05
-0.0016973921
1.1907273e-05
-0.0017014564
1.2169209e-05
-0.0017055985
1.2399541e-05
-0.0017098064
1.2593262e-05
-0.001714066
1.2745169e-05
-0.0017183617
1.2849986e-05
-0.0017226761
1.2902429e-05
-0.00172699
1.2897303e-05
-0.0017312824
1.2829579e-05
-0.001735531
1.269452e-05
-0.0017397117
1.2487703e-05
-0.0017437992
1.2205169e-05
-0.0017477669
1.1843471e-05
-0.0017515874
1.1399781e-05
-0.0017552324
1.0871963e-05
-0.0017586733
1.0258677e-05
-0.001761881
9.559475e-06
-0.0017648269
8.7748505e-06
-0.0017674827
7.9063479e-06
-0.0017698211
6.9566065e-06
-0.0017718159
5.9293928e-06
-0.0017734427
4.8296246e-06
-0.001774679
3.6633616e-06
-0.0017755049
2.4377541e-06
-0.0017759029
1.1610077e-06
-0.001775859
-1.5774379e-07
-0.0017753624
-1.5084504e-06
-0.0017744059
-2.8803403e-06
-0.0017729861
-4.2620752e-06
-0.0017711037
-5.6417489e-06
-0.0017687637
-7.0070667e-06
-0.001765975
-8.3454184e-06
-0.0017627512
-9.6439268e-06
-0.0017591101
-1.0889536e-05
-0.0017550739
-1.2069013e-05
-0.0017506695
-1.3169071e-05
-0.0017459281
-1.417643e-05
-0.0017408851
-1.5078077e-05
-0.0017355803
-1.5861532e-05
-0.0017300571
-1.6515382e-05
-0.0017243624
-1.7029866e-05
-0.0017185451
-1.7397632e-05
-0.0017126559
-1.7614537e-05
-0.0017067453
-1.7680438e-05
-0.0017008621
-1.7599709e-05
-0.0016950525
-1.7381539e-05
-0.0016893578
-1.7039667e-05
-0.0016838132
-1.6591761e-05
-0.0016784477
-1.6058105e-05
-0.0016732825
-1.546017e-05
-0.0016683322
-1.4818846e-05
-0.0016636051
-1.4152888e-05
-0.0016591043
-1.3477641e-05
-0.0016548291
-1.280438e-05
-0.0016507764
-1.2140117e-05
-0.0016469422
-1.1488116e-05
-0.0016433222
-1.0848684e-05
-0.0016399125
-1.0220218e-05
-0.0016367104
-9.6001915e-06
-0.0016337138
-8.9860078e-06
-0.0016309213
-8.3754892e-06
-0.001628332
-7.767182e-06
-0.0016259455
-7.1603395e-06
-0.0016237611
-6.5547928e-06
-0.0016217783
-5.9507071e-06
-0.0016199965
-5.348397e-06
-0.0016184148
-4.7480694e-06
-0.0016170326
-4.1498004e-06
-0.0016158491
-3.5533514e-06
-0.0016148639
-2.9583508e-06
-0.0016140766
-2.3640421e-06
-0.0016134873
-1.7697922e-06
-0.0016130963
-1.1744238e-06
-5.7739724e-07
-0.001615695
1.0427632e-06
-0.0016159703
1.110443e-06
-0.0016162604
1.1700638e-06
-0.0016165693
1.2458611e-06
-0.0016168968
1.3210876e-06
-0.0016172458
1.4074342e-06
-0.0016176172
1.4976268e-06
-0.0016180133
1.5971222e-06
-0.0016184357
1.7028735e-06
-0.0016188865
1.8175676e-06
-0.0016193678
1.9400621e-06
-0.0016198818
2.0718206e-06
-0.0016204308
2.2125616e-06
-0.0016210173
2.363213e-06
-0.0016216436
2.5238813e-06
-0.0016223126
2.6952601e-06
-0.001623027
2.8776245e-06
-0.0016237896
3.0715603e-06
-0.0016246035
3.2774032e-06
-0.0016254717
3.4956779e-06
-0.0016263974
3.7267203e-06
-0.0016273841
3.9710027e-06
-0.0016284349
4.2288203e-06
-0.0016295536
4.500583e-06
-0.0016307436
4.7865111e-06
-0.0016320085
5.0869318e-06
-0.0016333521
5.4019578e-06
-0.0016347782
5.7318073e-06
-0.0016362904
6.0764515e-06
-0.0016378925
6.4359689e-06
-0.0016395882
6.8101535e-06
-0.0016413813
7.19888e-06
-0.0016432754
7.6018449e-06
-0.0016452739
8.0185278e-06
-0.0016473803
8.4484974e-06
-0.0016495978
8.890921e-06
-0.0016519293
9.3450821e-06
-0.0016543778
9.8098049e-06
-0.0016569455
1.0284025e-05
-0.0016596347
1.076615e-05
-0.0016624469
1.1254687e-05
-0.0016653835
1.1747549e-05
-0.0016684451
1.2242639e-05
-0.0016716316
1.2737373e-05
-0.0016749425
1.3228873e-05
-0.0016783761
1.3713858e-05
-0.0016819301
1.4188626e-05
-0.0016856009
1.4649044e-05
-0.0016893839
1.5090481e-05
-0.0016932733
1.5507851e-05
-0.0016972616
1.5895597e-05
-0.0017013401
1.6247724e-05
-0.0017054984
1.6557843e-05
-0.0017097244
1.6819269e-05
-0.0017140043
1.7025047e-05
-0.0017183224
1.716812e-05
-0.0017226614
1.7241409e-05
-0.001727002
1.7237936e-05
-0.0017313234
1.7150942e-05
-0.0017356029
1.6974037e-05
-0.0017398165
1.6701247e-05
-0.0017439385
1.6327205e-05
-0.0017479423
1.5847231e-05
-0.0017517999
1.5257461e-05
-0.0017554829
1.4554968e-05
-0.0017589621
1.3737885e-05
-0.0017622082
1.2805547e-05
-0.0017651919
1.175856e-05
-0.0017678845
1.0598942e-05
-0.0017702581
9.3301898e-06
-0.001772286
7.9573211e-06
-0.0017739433
6.4869094e-06
-0.001775207
4.9270701e-06
-0.0017760567
3.2873974e-06
-0.0017764746
1.5789094e-06
-0.0017764462
-1.8610599e-07
-0.0017759605
-1.9941417e-06
-0.0017750102
-3.8307038e-06
-0.0017735917
-5.6805185e-06
-0.0017717059
-7.527569e-06
-0.0017693577
-9.3553043e-06
-0.0017665563
-1.1146762e-05
-0.0017633156
-1.2884629e-05
-0.0017596538
-1.455137e-05
-0.0017555936
-1.6129232e-05
-0.0017511622
-1.7600417e-05
-0.0017463915
-1.8947164e-05
-0.0017413175
-2.01521e-05
-0.0017359804
-2.1198592e-05
-0.0017304243
-2.2071459e-05
-0.0017246964
-2.2757747e-05
-0.0017188463
-2.3247729e-05
-0.0017129249
-2.3535966e-05
-0.001706983
-2.3622359e-05
-0.0017010699
-2.3512818e-05
-0.0016952318
-2.321967e-05
-0.0016895101
-2.2761296e-05
-0.0016839406
-2.21613e-05
-0.0016785519
-2.1446774e-05
-0.0016733657
-2.0646384e-05
-0.0016683965
-1.9788025e-05
-0.0016636527
-1.8896749e-05
-0.0016591372
-1.7993072e-05
-0.0016548495
-1.7092081e-05
-0.0016507865
-1.6203188e-05
-0.0016469438
-1.53308e-05
-0.0016433171
-1.4475378e-05
-0.0016399025
-1.3634824e-05
-0.0016366969
-1.28058e-05
-0.001633698
-1.1984859e-05
-0.0016309044
-1.1169105e-05
-0.001628315
-1.0356594e-05
-0.001625929
-9.54632e-06
-0.0016237458
-8.7380414e-06
-0.0016217645
-7.9319582e-06
-0.0016199844
-7.1284681e-06
-0.0016184047
-6.3278241e-06
-0.0016170244
-5.530105e-06
-0.0016158428
-4.734969e-06
-0.0016148592
-3.9419005e-06
-0.0016140734
-3.149866e-06
-0.0016134852
-2.3580046e-06
-0.0016130949
-1.5647177e-06
-7.6927718e-07
-0.0016156676
1.2988202e-06
-0.0016159403
1.3831371e-06
-0.0016162277
1.4574244e-06
-0.0016165337
1.5518745e-06
-0.0016168582
1.6456164e-06
-0.001617204
1.7532249e-06
-0.001617572
1.8656312e-06
-0.0016179645
1.9896414e-06
-0.0016183831
2.1214568e-06
-0.00161883
2.2644304e-06
-0.0016193071
2.417139e-06
-0.0016198167
2.5814106e-06
-0.001620361
2.7568964e-06
-0.0016209425
2.9447572e-06
-0.0016215638
3.145129e-06
-0.0016222274
3.3588809e-06
-0.0016229361
3.5863606e-06
-0.0016236929
3.8283038e-06
-0.0016245006
4.0851348e-06
-0.0016253625
4.3575144e-06
-0.0016262816
4.6458685e-06
-0.0016272614
4.950794e-06
-0.0016283052
5.2726674e-06
-0.0016294167
5.612009e-06
-0.0016305993
5.9691035e-06
-0.0016318567
6.3443695e-06
-0.0016331927
6.7379586e-06
-0.001634611
7.1501546e-06
-0.0016361155
7.5809339e-06
-0.00163771
8.0304069e-06
-0.0016393981
8.4983294e-06
-0.0016411838
8.984558e-06
-0.0016430707
9.488727e-06
-0.0016450624
1.00102e-05
-0.0016471623
1.0548451e-05
-0.0016493739
1.1102452e-05
-0.0016517001
1.167132e-05
-0.0016541439
1.2253598e-05
-0.0016567078
1.2847964e-05
-0.0016593941
1.3452438e-05
-0.0016622046
1.4065161e-05
-0.0016651406
1.4683529e-05
-0.0016682029
1.5304928e-05
-0.0016713916
1.5926128e-05
-0.0016747063
1.6543532e-05
-0.0016781455
1.7153041e-05
-0.0016817069
1.7750023e-05
-0.0016853871
1.8329314e-05
-0.0016891818
1.888512e-05
-0.001693085
1.9411082e-05
-0.0016970896
1.9900251e-05
-0.001701187
2.0345124e-05
-0.0017053669
2.0737703e-05
-0.0017096173
2.1069613e-05
-0.0017139243
2.1332129e-05
-0.0017182726
2.1516384e-05
-0.0017226447
2.1613468e-05
-0.0017270213
2.1614584e-05
-0.0017313815
2.1511184e-05
-0.0017357027
2.129517e-05
-0.0017399604
2.095895e-05
-0.0017441289
2.0495681e-05
-0.001748181
1.9899372e-05
-0.0017520886
1.9165056e-05
-0.0017558226
1.8288941e-05
-0.0017593533
1.7268571e-05
-0.0017626507
1.6103009e-05
-0.0017656851
1.4792924e-05
-0.0017684269
1.3340775e-05
-0.0017708476
1.1750898e-05
-0.0017729199
1.0029556e-05
-0.0017746179
8.1849929e-06
-0.0017759183
6.2274095e-06
-0.0017767998
4.1688939e-06
-0.0017772442
2.0233409e-06
-0.0017772366
-1.9371988e-07
-0.0017767655
-2.4652325e-06
-0.0017758233
-4.7728676e-06
-0.0017744066
-7.0972848e-06
-0.0017725159
-9.4182273e-06
-0.0017701565
-1.1714751e-05
-0.0017673378
-1.3965411e-05
-0.0017640741
-1.6148329e-05
-0.0017603841
-1.8241381e-05
-0.0017562911
-2.0222196e-05
-0.0017518232
-2.2068395e-05
-0.0017470127
-2.375768e-05
-0.0017418964
-2.5268301e-05
-0.0017365156
-2.6579471e-05
-0.0017309148
-2.7672271e-05
-0.0017251419
-2.8530597e-05
-0.0017192472
-2.9142416e-05
-0.0017132821
-2.9501063e-05
-0.0017072979
-2.9606559e-05
-0.0017013443
-2.9466428e-05
-0.0016954678
-2.9096205e-05
-0.0016897101
-2.8518971e-05
-0.0016841071
-2.7764326e-05
-0.0016786876
-2.6866211e-05
-0.0016734735
-2.5860535e-05
-0.0016684793
-2.4782238e-05
-0.0016637133
-2.3662714e-05
-0.0016591787
-2.2527689e-05
-0.0016548747
-2.1396114e-05
-0.001650798
-2.0279841e-05
-0.0016469443
-1.9184465e-05
-0.0016433091
-1.8110638e-05
-0.0016398881
-1.7055796e-05
-0.0016366781
-1.6015812e-05
-0.0016336766
-1.4986403e-05
-0.0016308817
-1.3963955e-05
-0.0016282923
-1.2946034e-05
-0.0016259072
-1.1931364e-05
-0.0016237256
-1.0919616e-05
-0.0016217466
-9.9110102e-06
-0.0016199691
-8.906008e-06
-0.001618392
-7.9048887e-06
-0.0016170144
-6.9077156e-06
-0.0016158353
-5.9140233e-06
-0.0016148541
-4.9231342e-06
-0.0016140702
-3.9337175e-06
-0.0016134836
-2.9446694e-06
-0.0016130943
-1.9539475e-06
-9.6062477e-07
-0.0016156337
1.5518239e-06
-0.0016159032
1.6525961e-06
-0.0016161871
1.7413969e-06
-0.0016164896
1.854306e-06
-0.0016168103
1.9663764e-06
-0.0016171521
2.0950356e-06
-0.0016175159
2.2294403e-06
-0.001617904
2.3777328e-06
-0.001618318
2.5353717e-06
-0.0016187599
2.7063707e-06
-0.0016192318
2.8890301e-06
-0.0016197359
3.0855406e-06
-0.0016202745
3.2954889e-06
-0.00162085
3.5202684e-06
-0.0016214649
3.7600471e-06
-0.0016221219
4.0158708e-06
-0.0016228237
4.2881622e-06
-0.0016235732
4.5778089e-06
-0.0016243734
4.8853271e-06
-0.0016252274
5.2115165e-06
-0.0016261385
5.5568969e-06
-0.0016271099
5.9221934e-06
-0.0016281451
6.3078689e-06
-0.0016292476
6.7145587e-06
-0.0016304211
7.1426176e-06
-0.0016316693
7.5925612e-06
-0.0016329959
8.0645868e-06
-0.0016344048
8.5590505e-06
-0.0016358998
9.0759411e-06
-0.0016374848
9.6154087e-06
-0.0016391637
1.0177179e-05
-0.0016409402
1.0761099e-05
-0.0016428183
1.1366749e-05
-0.0016448014
1.1993385e-05
-0.0016468934
1.2640396e-05
-0.0016490975
1.3306568e-05
-0.001651417
1.3990861e-05
-0.001653855
1.4691541e-05
-0.0016564141
1.5407043e-05
-0.0016590966
1.6135004e-05
-0.0016619047
1.6873207e-05
-0.0016648397
1.7618539e-05
-0.0016679026
1.8367872e-05
-0.0016710938
1.9117339e-05
-0.0016744129
1.9862627e-05
-0.0016778587
2.0598822e-05
-0.0016814291
2.1320369e-05
-0.0016851208
2.2021068e-05
-0.0016889297
2.2693966e-05
-0.00169285
2.3331427e-05
-0.0016968749
2.3925103e-05
-0.0017009957
2.4465978e-05
-0.0017052024
2.4944428e-05
-0.0017094832
2.5350367e-05
-0.0017138243
2.5673274e-05
-0.0017182104
2.5902437e-05
-0.001722624
2.602707e-05
-0.0017270459
2.6036497e-05
-0.001731455
2.592032e-05
-0.0017358285
2.5668659e-05
-0.0017401418
2.527222e-05
-0.0017443687
2.4722598e-05
-0.0017484818
2.4012403e-05
-0.0017524522
2.3135475e-05
-0.0017562503
2.2087067e-05
-0.0017598458
2.0864057e-05
-0.0017632079
1.9465162e-05
-0.0017663061
1.7891057e-05
-0.0017691099
1.6144597e-05
-0.0017715899
1.423093e-05
-0.0017737179
1.2157558e-05
-0.0017754673
9.9344098e-06
-0.0017768137
7.5738091e-06
-0.0017777353
5.0904002e-06
-0.0017782129
2.5010373e-06
-0.0017782313
-1.7539472e-07
-0.0017777783
-2.9181688e-06
-0.0017768462
-5.7049757e-06
-0.0017754313
-8.512245e-06
-0.0017735342
-1.1315318e-05
-0.0017711602
-1.4088684e-05
-0.0017683194
-1.6806248e-05
-0.0017650263
-1.944141e-05
-0.0017613004
-2.1967311e-05
-0.0017571658
-2.435684e-05
-0.0017526512
-2.6582944e-05
-0.0017477902
-2.8618724e-05
-0.0017426204
-3.0438022e-05
-0.001737184
-3.2015899e-05
-0.0017315265
-3.3329737e-05
-0.0017256968
-3.4360337e-05
-0.0017197458
-3.5093447e-05
-0.0017137256
-3.5521264e-05
-0.0017076881
-3.5644036e-05
-0.0017016835
-3.5470992e-05
-0.0016957588
-3.502097e-05
-0.0016899559
-3.4321831e-05
-0.001684311
-3.3409245e-05
-0.0016788531
-3.2324062e-05
-0.0016736042
-3.1109491e-05
-0.0016685788
-2.9807571e-05
-0.0016637855
-2.8456091e-05
-0.0016592271
-2.7086043e-05
-0.0016549029
-2.5720296e-05
-0.0016508096
-2.4373197e-05
-0.0016469425
-2.3051581e-05
-0.0016432968
-2.1756333e-05
-0.0016398681
-2.0484463e-05
-0.0016366528
-1.9231079e-05
-0.0016336482
-1.7991074e-05
-0.001630852
-1.6760125e-05
-0.0016282627
-1.5535302e-05
-0.001625879
-1.4315046e-05
-0.0016236997
-1.3098927e-05
-0.0016217236
-1.1887159e-05
-0.0016199493
-1.0680247e-05
-0.0016183758
-9.4784722e-06
-0.0016170016
-8.2818574e-06
-0.0016158259
-7.0897891e-06
-0.0016148476
-5.9014051e-06
-0.0016140662
-4.715052e-06
-0.0016134816
-3.5293635e-06
-0.0016130937
-2.3418256e-06
-1.1512997e-06
-0.0016155943
1.8011865e-06
-0.0016158599
1.9182023e-06
-0.0016161398
2.0213332e-06
-0.001616438
2.1524724e-06
-0.0016167542
2.282649e-06
-0.0016170913
2.4321085e-06
-0.0016174501
2.5882564e-06
-0.001617833
2.7605558e-06
-0.0016182413
2.9437332e-06
-0.0016186774
3.1424567e-06
-0.0016191431
3.3547553e-06
-0.0016196408
3.5831803e-06
-0.0016201725
3.8272571e-06
-0.0016207409
4.0886115e-06
-0.0016213483
4.3674465e-06
-0.0016219974
4.6649859e-06
-0.001622691
4.98173e-06
-0.0016234319
5.3187212e-06
-0.0016242231
5.6765707e-06
-0.0016250678
6.0562208e-06
-0.0016259692
6.4582895e-06
-0.0016269307
6.8836349e-06
-0.0016279556
7.332811e-06
-0.0016290476
7.8065743e-06
-0.0016302103
8.3053557e-06
-0.0016314476
8.8297749e-06
-0.0016327631
9.3800821e-06
-0.0016341607
9.9567136e-06
-0.0016356445
1.0559679e-05
-0.0016372182
1.1189177e-05
-0.001638886
1.1844913e-05
-0.0016406516
1.2526733e-05
-0.001642519
1.3234175e-05
-0.001644492
1.3966398e-05
-0.0016465744
1.4722714e-05
-0.0016487695
1.5501737e-05
-0.0016510809
1.6302277e-05
-0.0016535117
1.7122341e-05
-0.0016560648
1.7960124e-05
-0.0016587427
1.8812896e-05
-0.0016615476
1.967809e-05
-0.0016644811
2.0552095e-05
-0.0016675446
2.143128e-05
-0.0016707384
2.2311147e-05
-0.0016740624
2.3186677e-05
-0.0016775157
2.4052148e-05
-0.0016810965
2.4901081e-05
-0.0016848016
2.572625e-05
-0.0016886272
2.651954e-05
-0.0016925678
2.7272035e-05
-0.0016966167
2.797398e-05
-0.0017007655
2.8614833e-05
-0.0017050044
2.9183325e-05
-0.0017093217
2.9667634e-05
-0.0017137038
3.0055404e-05
-0.0017181354
3.0334033e-05
-0.0017225992
3.0490799e-05
-0.0017270758
3.0513083e-05
-0.001731544
3.0388555e-05
-0.0017359808
3.0105462e-05
-0.0017403613
2.9652713e-05
-0.0017446589
2.9020237e-05
-0.0017488457
2.8199137e-05
-0.0017528921
2.718195e-05
-0.0017567679
2.5962876e-05
-0.0017604419
2.4538024e-05
-0.0017638824
2.2905682e-05
-0.0017670578
2.1066456e-05
-0.0017699368
1.9023545e-05
-0.0017724887
1.6782873e-05
-0.0017746843
1.4353173e-05
-0.001776496
1.1746075e-05
-0.0017778983
8.9760677e-06
-0.0017788683
6.0604266e-06
-0.0017793863
3.0190632e-06
-0.0017794361
-1.2564902e-07
-0.0017790051
-3.349164e-06
-0.001778085
-6.6250146e-06
-0.0017766721
-9.9252023e-06
-0.0017747669
-1.3220465e-05
-0.0017723751
-1.6480512e-05
-0.0017695069
-1.9674396e-05
-0.0017661778
-2.2770589e-05
-0.0017624077
-2.5737329e-05
-0.001758222
-2.8542608e-05
-0.0017536503
-3.1154582e-05
-0.0017487274
-3.3541669e-05
-0.0017434921
-3.5673272e-05
-0.0017379878
-3.7520292e-05
-0.001732261
-3.905646e-05
-0.0017263618
-4.0259555e-05
-0.0017203421
-4.1113204e-05
-0.0017142547
-4.1608585e-05
-0.0017081525
-4.1746296e-05
-0.0017020861
-4.1537394e-05
-0.0016961029
-4.100414e-05
-0.0016902455
-4.0179275e-05
-0.0016845501
-3.9104635e-05
-0.0016790461
-3.7828059e-05
-0.0016737554
-3.6400132e-05
-0.0016686929
-3.4870055e-05
-0.001663867
-3.3282083e-05
-0.0016592805
-3.1672535e-05
-0.0016549325
-3.0068265e-05
-0.0016508195
-2.8486177e-05
-0.0016469367
-2.6934404e-05
-0.0016432789
-2.5414117e-05
-0.0016398414
-2.3921938e-05
-0.0016366203
-2.2452238e-05
-0.0016336122
-2.0999106e-05
-0.0016308149
-1.9557509e-05
-0.0016282261
-1.8124017e-05
-0.0016258444
-1.6696773e-05
-0.0016236681
-1.5275223e-05
-0.0016216957
-1.3859553e-05
-0.0016199257
-1.2450281e-05
-0.0016183565
-1.1047661e-05
-0.0016169867
-9.6516465e-06
-0.0016158151
-8.2614454e-06
-0.0016148405
-6.8759837e-06
-0.0016140623
-5.4932554e-06
-0.00161348
-4.1116084e-06
-0.0016130938
-2.7280237e-06
-1.3411358e-06
-0.0016155464
2.046326e-06
-0.0016158075
2.1793429e-06
-0.0016160828
2.2965919e-06
-0.001616376
2.4456971e-06
-0.0016166871
2.5937233e-06
-0.0016170187
2.7636942e-06
-0.0016173717
2.9412905e-06
-0.0016177484
3.1372789e-06
-0.0016181504
3.3456658e-06
-0.0016185797
3.5717662e-06
-0.0016190383
3.8133444e-06
-0.0016195284
4.0733093e-06
-0.0016200523
4.351129e-06
-0.0016206123
4.6486616e-06
-0.001621211
4.9661481e-06
-0.001621851
5.3049917e-06
-0.0016225351
5.6657742e-06
-0.001623266
6.0496948e-06
-0.0016240469
6.4574643e-06
-0.0016248809
6.8901712e-06
-0.0016257711
7.3485368e-06
-0.001626721
7.8335569e-06
-0.0016277341
8.3458832e-06
-0.0016288139
8.8863993e-06
-0.0016299642
9.4556197e-06
-0.0016311887
1.0054275e-05
-0.0016324913
1.0682678e-05
-0.0016338759
1.1341353e-05
-0.0016353466
1.2030341e-05
-0.0016369073
1.2749898e-05
-0.0016385621
1.349972e-05
-0.0016403151
1.4279665e-05
-0.0016421701
1.5089237e-05
-0.0016441312
1.5927513e-05
-0.0016462023
1.679374e-05
-0.0016483869
1.7686371e-05
-0.0016506887
1.8604082e-05
-0.001653111
1.9544632e-05
-0.0016556569
2.0505991e-05
-0.001658329
2.1485075e-05
-0.0016611299
2.2478981e-05
-0.0016640615
2.3483615e-05
-0.001667125
2.4494851e-05
-0.0016703215
2.5507577e-05
-0.0016736509
2.6516077e-05
-0.0016771125
2.7513829e-05
-0.0016807049
2.8493442e-05
-0.0016844253
2.9446664e-05
-0.00168827
3.036422e-05
-0.0016922339
3.1235913e-05
-0.0016963105
3.2050571e-05
-0.0017004917
3.2796107e-05
-0.001704768
3.3459587e-05
-0.0017091278
3.4027417e-05
-0.0017135577
3.448536e-05
-0.0017180426
3.4818868e-05
-0.001722565
3.5013217e-05
-0.0017271057
3.5053759e-05
-0.0017316432
3.492614e-05
-0.0017361544
3.461663e-05
-0.0017406139
3.4112225e-05
-0.0017449948
3.3401066e-05
-0.0017492682
3.2472621e-05
-0.0017534043
3.1318002e-05
-0.0017573716
2.9930227e-05
-0.0017611381
2.8304525e-05
-0.0017646711
2.6438646e-05
-0.0017679377
2.4333045e-05
-0.0017709053
2.1991193e-05
-0.0017735422
1.941975e-05
-0.0017758177
1.6628666e-05
-0.0017777029
1.3631288e-05
-0.0017791712
1.0444324e-05
-0.0017801985
7.087764e-06
-0.0017807642
3.5846949e-06
-0.0017808509
-3.8864884e-08
-0.0017804457
-3.7543703e-06
-0.0017795398
-7.5309831e-06
-0.0017781289
-1.1336045e-05
-0.0017762139
-1.5135449e-05
-0.0017738006
-1.889387e-05
-0.0017708997
-2.2575259e-05
-0.0017675274
-2.6142926e-05
-0.0017637047
-2.9559988e-05
-0.001759458
-3.2789357e-05
-0.0017548183
-3.5794259e-05
-0.0017498216
-3.8538329e-05
-0.0017445084
-4.0986484e-05
-0.0017389232
-4.3105468e-05
-0.0017331143
-4.4865414e-05
-0.0017271327
-4.6241161e-05
-0.0017210315
-4.7214347e-05
-0.0017148649
-4.7775263e-05
-0.0017086861
-4.7925019e-05
-0.0017025469
-4.7676643e-05
-0.0016964951
-4.7055968e-05
-0.0016905736
-4.6100742e-05
-0.0016848192
-4.4859082e-05
-0.0016792613
-4.3385915e-05
-0.0016739221
-4.1739291e-05
-0.0016688165
-3.9975656e-05
-0.0016639528
-3.8145805e-05
-0.0016593339
-3.6291463e-05
-0.0016549586
-3.4443541e-05
-0.0016508232
-3.2621574e-05
-0.0016469226
-3.0835057e-05
-0.0016432512
-2.9085501e-05
-0.0016398039
-2.736919e-05
-0.0016365764
-2.5679785e-05
-0.0016335649
-2.4010589e-05
-0.0016307665
-2.2355864e-05
-0.0016281789
-2.0711668e-05
-0.0016257998
-1.9075832e-05
-0.0016236274
-1.744765e-05
-0.0016216597
-1.5827248e-05
-0.0016198949
-1.4215126e-05
-0.0016183311
-1.2611474e-05
-0.0016169666
-1.1016143e-05
-0.0016157999
-9.4281262e-06
-0.0016148298
-7.8461066e-06
-0.0016140553
-6.2676897e-06
-0.001613476
-4.690911e-06
-0.0016130918
-3.1122076e-06
-1.5299695e-06
-0.0016154932
2.2866691e-06
-0.0016157492
2.4354137e-06
-0.0016160192
2.5665392e-06
-0.0016163068
2.7333117e-06
-0.001616612
2.8988959e-06
-0.0016169373
3.0890504e-06
-0.0016172838
3.2877605e-06
-0.0016176536
3.5070769e-06
-0.0016180482
3.7402996e-06
-0.0016184698
3.9933826e-06
-0.0016189203
4.2638319e-06
-0.0016194019
4.5549113e-06
-0.0016199168
4.8660356e-06
-0.0016204675
5.1992955e-06
-0.0016210563
5.5549732e-06
-0.001621686
5.9346531e-06
-0.0016223592
6.3390019e-06
-0.0016230789
6.7693793e-06
-0.001623848
7.2265996e-06
-0.0016246697
7.7119019e-06
-0.0016255473
8.2261164e-06
-0.0016264841
8.7703823e-06
-0.0016274837
9.3454557e-06
-0.0016285497
9.9523541e-06
-0.0016296857
1.0591684e-05
-0.0016308958
1.1264295e-05
-0.0016321837
1.1970572e-05
-0.0016335534
1.2711137e-05
-0.0016350092
1.3486073e-05
-0.001636555
1.4295705e-05
-0.001638195
1.5139731e-05
-0.0016399334
1.6018033e-05
-0.0016417742
1.6930097e-05
-0.0016437216
1.7874927e-05
-0.0016457796
1.8851725e-05
-0.001647952
1.9858795e-05
-0.0016502426
2.0894694e-05
-0.001652655
2.1956948e-05
-0.0016551923
2.3043322e-05
-0.0016578576
2.4150391e-05
-0.0016606536
2.5274936e-05
-0.0016635823
2.6412392e-05
-0.0016666457
2.755816e-05
-0.0016698446
2.8706526e-05
-0.0016731796
2.9851094e-05
-0.0016766503
3.0984552e-05
-0.0016802555