/*--------------------------------*- C++ -*----------------------------------*\
| =========                 |                                                 |
| \\      /  F ield         | foam-extend: Open Source CFD                    |
|  \\    /   O peration     | Version:     4.1                                |
|   \\  /    A nd           | Web:         http://www.foam-extend.org         |
|    \\/     M anipulation  |                                                 |
\*---------------------------------------------------------------------------*/
FoamFile
{
    version     2.0;
    format      ascii;
    class       volVectorField;
    location    "0.6";
    object      U;
}
// * * * * * * * * * * * * * * * * * * * * * * * * * * * * * * * * * * * * * //

dimensions      [0 1 -1 0 0 0 0];

internalField   nonuniform List<vector> 
16796
(
(1.0016069 -5.4239127e-05 0)
(1.0018852 -5.7748855e-05 0)
(1.0019887 -6.0854154e-05 0)
(1.0022264 -6.4788335e-05 0)
(1.0023931 -6.8701566e-05 0)
(1.0026277 -7.3185768e-05 0)
(1.0028391 -7.787406e-05 0)
(1.0030899 -8.3041729e-05 0)
(1.0033402 -8.853635e-05 0)
(1.0036186 -9.4492805e-05 0)
(1.0039082 -0.00010085521 0)
(1.0042225 -0.00010769637 0)
(1.0045546 -0.00011500413 0)
(1.0049116 -0.00012282396 0)
(1.0052914 -0.00013116352 0)
(1.0056979 -0.00014005613 0)
(1.0061313 -0.00014951815 0)
(1.0065944 -0.0001595771 0)
(1.0070883 -0.00017025259 0)
(1.0076153 -0.00018156861 0)
(1.0081771 -0.00019354499 0)
(1.0087759 -0.00020620252 0)
(1.0094136 -0.00021955922 0)
(1.0100925 -0.00023363211 0)
(1.0108146 -0.00024843562 0)
(1.0115822 -0.00026398192 0)
(1.0123976 -0.00028028025 0)
(1.013263 -0.00029733652 0)
(1.0141806 -0.00031515306 0)
(1.0151529 -0.00033372791 0)
(1.016182 -0.00035305477 0)
(1.0172701 -0.000373122 0)
(1.0184195 -0.00039391265 0)
(1.0196324 -0.00041540365 0)
(1.0209107 -0.00043756505 0)
(1.0222565 -0.00046035992 0)
(1.0236716 -0.00048374297 0)
(1.0251577 -0.00050766045 0)
(1.0267162 -0.00053204854 0)
(1.0283486 -0.00055683307 0)
(1.0300558 -0.00058192752 0)
(1.0318387 -0.00060723252 0)
(1.0336978 -0.00063263353 0)
(1.0356331 -0.00065799981 0)
(1.0376443 -0.00068318224 0)
(1.0397307 -0.00070801167 0)
(1.0418909 -0.00073229712 0)
(1.0441231 -0.00075582429 0)
(1.0464245 -0.00077835454 0)
(1.0487918 -0.00079962446 0)
(1.0512209 -0.00081934643 0)
(1.0537067 -0.00083721014 0)
(1.056243 -0.0008528854 0)
(1.058823 -0.00086602591 0)
(1.0614383 -0.00087627426 0)
(1.0640799 -0.00088326748 0)
(1.0667374 -0.00088664327 0)
(1.0693995 -0.00088604632 0)
(1.0720537 -0.00088113452 0)
(1.0746867 -0.00087158515 0)
(1.0772839 -0.00085710056 0)
(1.0798303 -0.00083741408 0)
(1.0823099 -0.00081229544 0)
(1.0847059 -0.00078155682 0)
(1.0870014 -0.00074505849 0)
(1.0891788 -0.00070271514 0)
(1.0912206 -0.00065450139 0)
(1.093109 -0.0006004577 0)
(1.0948267 -0.00054069481 0)
(1.0963567 -0.00047539795 0)
(1.0976827 -0.0004048287 0)
(1.0987893 -0.00032932634 0)
(1.0996622 -0.00024930638 0)
(1.1002884 -0.00016525748 0)
(1.1006566 -7.7737513e-05 0)
(1.1007573 1.2638862e-05 0)
(1.1005828 0.00010519798 0)
(1.1001277 0.00019921336 0)
(1.0993888 0.0002939136 0)
(1.0983652 0.00038848577 0)
(1.0970586 0.00048209222 0)
(1.0954732 0.00057387296 0)
(1.0936159 0.00066294928 0)
(1.0914961 0.00074842843 0)
(1.089126 0.00082940424 0)
(1.0865205 0.00090496424 0)
(1.0836973 0.00097419442 0)
(1.0806766 0.0010361966 0)
(1.0774817 0.0010901072 0)
(1.0741379 0.0011351344 0)
(1.070673 0.0011705969 0)
(1.0671166 0.0011959817 0)
(1.0634996 0.001210995 0)
(1.0598533 0.0012156205 0)
(1.0562086 0.0012101545 0)
(1.052595 0.0011952274 0)
(1.0490398 0.0011717859 0)
(1.0455667 0.0011410466 0)
(1.0421956 0.0011044104 0)
(1.0389421 0.001063358 0)
(1.0358172 0.0010193292 0)
(1.0328276 0.00097361531 0)
(1.0299768 0.00092727162 0)
(1.0272652 0.0008810696 0)
(1.0246915 0.00083548861 0)
(1.0222533 0.00079074771 0)
(1.0199479 0.00074686312 0)
(1.017773 0.00070372014 0)
(1.0157265 0.0006611421 0)
(1.013807 0.00061894737 0)
(1.0120136 0.00057698607 0)
(1.0103459 0.00053515798 0)
(1.0088034 0.00049341256 0)
(1.0073861 0.00045173944 0)
(1.0060935 0.00041015181 0)
(1.0049258 0.00036867239 0)
(1.0038818 0.00032731778 0)
(1.0029625 0.00028609447 0)
(1.0021652 0.000244988 0)
(1.0014934 0.00020397377 0)
(1.0009407 0.00016300221 0)
(1.000517 0.00012202955 0)
(1.0002062 8.0978712e-05 0)
(1.0000342 3.9810747e-05 0)
(1.0016029 -0.00016256579 0)
(1.0018806 -0.00017310581 0)
(1.0019839 -0.00018240205 0)
(1.0022209 -0.00019420558 0)
(1.0023873 -0.000205929 0)
(1.0026213 -0.00021937573 0)
(1.0028322 -0.00023342614 0)
(1.0030824 -0.00024891905 0)
(1.0033322 -0.00026538843 0)
(1.00361 -0.0002832448 0)
(1.0038989 -0.0003023165 0)
(1.0042125 -0.00032282462 0)
(1.0045439 -0.00034473087 0)
(1.0049001 -0.00036817287 0)
(1.0052791 -0.00039317274 0)
(1.0056848 -0.00041983098 0)
(1.0061173 -0.00044819636 0)
(1.0065795 -0.00047835162 0)
(1.0070723 -0.00051035554 0)
(1.0075983 -0.00054428013 0)
(1.0081591 -0.00058018493 0)
(1.0087568 -0.00061813242 0)
(1.0093933 -0.00065817663 0)
(1.010071 -0.00070036879 0)
(1.010792 -0.00074475227 0)
(1.0115584 -0.00079136373 0)
(1.0123725 -0.00084023099 0)
(1.0132367 -0.00089137194 0)
(1.0141531 -0.00094479377 0)
(1.015124 -0.0010004908 0)
(1.0161519 -0.0010584443 0)
(1.0172388 -0.0011186196 0)
(1.0183871 -0.001180966 0)
(1.0195988 -0.0012454146 0)
(1.0208761 -0.0013118759 0)
(1.0222209 -0.0013802391 0)
(1.0236351 -0.0014503687 0)
(1.0251203 -0.0015221037 0)
(1.0266782 -0.0015952528 0)
(1.0283101 -0.0016695937 0)
(1.030017 -0.0017448672 0)
(1.0317998 -0.0018207753 0)
(1.033659 -0.0018969746 0)
(1.0355946 -0.0019730733 0)
(1.0376064 -0.0020486245 0)
(1.0396936 -0.0021231212 0)
(1.0418549 -0.0021959914 0)
(1.0440884 -0.0022665933 0)
(1.0463916 -0.0023342123 0)
(1.048761 -0.0023980599 0)
(1.0511924 -0.0024572755 0)
(1.0536809 -0.0025109303 0)
(1.0562204 -0.0025580362 0)
(1.0588038 -0.0025975568 0)
(1.0614231 -0.0026284218 0)
(1.064069 -0.0026495438 0)
(1.0667313 -0.0026598366 0)
(1.0693986 -0.0026582338 0)
(1.0720584 -0.0026437077 0)
(1.0746974 -0.0026152871 0)
(1.0773012 -0.0025720751 0)
(1.0798545 -0.0025132663 0)
(1.0823412 -0.0024381637 0)
(1.0847448 -0.0023461965 0)
(1.087048 -0.0022369375 0)
(1.0892333 -0.0021101223 0)
(1.091283 -0.0019656659 0)
(1.0931793 -0.0018036807 0)
(1.0949047 -0.0016244902 0)
(1.0964422 -0.0014286421 0)
(1.0977753 -0.001216914 0)
(1.0988885 -0.00099031904 0)
(1.0997673 -0.00075010162 0)
(1.1003989 -0.00049773087 0)
(1.1007716 -0.0002348911 0)
(1.100876 3.6545945e-05 0)
(1.1007042 0.00031451292 0)
(1.1002509 0.00059680134 0)
(1.0995127 0.00088109469 0)
(1.0984889 0.0011649567 0)
(1.0971812 0.0014458728 0)
(1.0955937 0.0017212627 0)
(1.0937334 0.0019884907 0)
(1.0916099 0.0022448808 0)
(1.0892353 0.0024877183 0)
(1.0866247 0.0027142723 0)
(1.0837958 0.0029218089 0)
(1.0807692 0.0031076443 0)
(1.0775679 0.0032692001 0)
(1.0742176 0.0034041137 0)
(1.0707462 0.0035103554 0)
(1.0671833 0.0035863975 0)
(1.0635599 0.0036313688 0)
(1.0599072 0.0036452254 0)
(1.0562564 0.0036288575 0)
(1.0526369 0.0035841517 0)
(1.0490761 0.0035139386 0)
(1.0455977 0.0034218557 0)
(1.0422217 0.0033120921 0)
(1.0389635 0.0031890758 0)
(1.0358344 0.0030571159 0)
(1.032841 0.0029200793 0)
(1.0299868 0.0027811286 0)
(1.0272722 0.0026425795 0)
(1.024696 0.0025058737 0)
(1.0222557 0.0023716741 0)
(1.0199487 0.0022400352 0)
(1.0177725 0.0021106185 0)
(1.015725 0.001982898 0)
(1.0138048 0.0018563317 0)
(1.012011 0.0017304714 0)
(1.0103431 0.0016050165 0)
(1.0088006 0.001479815 0)
(1.0073834 0.0013548348 0)
(1.006091 0.0012301141 0)
(1.0049237 0.00110572 0)
(1.00388 0.00098170074 0)
(1.002961 0.00085807517 0)
(1.0021641 0.00073479817 0)
(1.0014926 0.00061179599 0)
(1.0009402 0.00048891725 0)
(1.0005167 0.0003660323 0)
(1.0002061 0.00024290489 0)
(1.0000342 0.00011942297 0)
(1.0015951 -0.0002705079 0)
(1.0018714 -0.00028805995 0)
(1.0019742 -0.00030352254 0)
(1.0022101 -0.0003231742 0)
(1.0023757 -0.0003426814 0)
(1.0026086 -0.0003650656 0)
(1.0028185 -0.00038844971 0)
(1.0030676 -0.00041423939 0)
(1.0033162 -0.00044165277 0)
(1.0035928 -0.0004713776 0)
(1.0038804 -0.00050312557 0)
(1.0041926 -0.00053726683 0)
(1.0045226 -0.00057373667 0)
(1.0048773 -0.00061276538 0)
(1.0052546 -0.00065438961 0)
(1.0056587 -0.00069877749 0)
(1.0060894 -0.00074601042 0)
(1.0065497 -0.00079622693 0)
(1.0070407 -0.00084952534 0)
(1.0075647 -0.00090602636 0)
(1.0081233 -0.0009658298 0)
(1.0087188 -0.0010290406 0)
(1.0093532 -0.0010957496 0)
(1.0100286 -0.0011660432 0)
(1.0107471 -0.0012399946 0)
(1.0115111 -0.001317666 0)
(1.0123228 -0.0013991051 0)
(1.0131845 -0.0014843429 0)
(1.0140984 -0.0015733927 0)
(1.0150669 -0.0016662465 0)
(1.0160922 -0.0017628745 0)
(1.0171768 -0.0018632203 0)
(1.0183227 -0.001967201 0)
(1.0195321 -0.002074703 0)
(1.0208073 -0.0021855784 0)
(1.0221501 -0.002299644 0)
(1.0235625 -0.0024166749 0)
(1.0250462 -0.0025364036 0)
(1.0266028 -0.0026585121 0)
(1.0282337 -0.0027826302 0)
(1.02994 -0.0029083257 0)
(1.0317225 -0.0030351019 0)
(1.0335817 -0.0031623861 0)
(1.0355179 -0.003289524 0)
(1.0375308 -0.0034157699 0)
(1.0396196 -0.0035402776 0)
(1.0417831 -0.0036620924 0)
(1.0440194 -0.0037801432 0)
(1.0463259 -0.003893238 0)
(1.0486994 -0.0040000619 0)
(1.0511356 -0.0040991792 0)
(1.0536296 -0.0041890418 0)
(1.0561754 -0.0042680015 0)
(1.0587659 -0.0043343295 0)
(1.0613931 -0.0043862396 0)
(1.0640478 -0.0044219158 0)
(1.0667198 -0.0044395422 0)
(1.0693976 -0.0044373345 0)
(1.072069 -0.0044135707 0)
(1.0747203 -0.0043666219 0)
(1.0773372 -0.0042949812 0)
(1.0799044 -0.004197294 0)
(1.0824057 -0.004072386 0)
(1.0848244 -0.003919294 0)
(1.0871431 -0.0037372951 0)
(1.0893442 -0.0035259394 0)
(1.0914097 -0.0032850779 0)
(1.0933218 -0.0030148932 0)
(1.0950626 -0.0027159219 0)
(1.096615 -0.0023890766 0)
(1.0979622 -0.0020356562 0)
(1.0990886 -0.0016573535 0)
(1.0999794 -0.001256249 0)
(1.1006216 -0.00083479913 0)
(1.1010034 -0.0003958182 0)
(1.1011152 5.7564588e-05 0)
(1.100949 0.00052190443 0)
(1.1004993 0.000993511 0)
(1.0997628 0.0014684983 0)
(1.0987387 0.0019427854 0)
(1.0974287 0.0024121559 0)
(1.095837 0.0028722847 0)
(1.0939708 0.0033187543 0)
(1.0918395 0.0037470821 0)
(1.0894558 0.0041527235 0)
(1.0868347 0.00453111 0)
(1.0839943 0.0048776728 0)
(1.0809553 0.0051879306 0)
(1.077741 0.0054575827 0)
(1.0743773 0.005682693 0)
(1.0708923 0.0058598838 0)
(1.0673158 0.0059866179 0)
(1.0636789 0.0060614546 0)
(1.0600132 0.0060843333 0)
(1.0563497 0.0060567502 0)
(1.0527182 0.0059818623 0)
(1.0491458 0.0058643989 0)
(1.0456567 0.0057104332 0)
(1.0422707 0.0055269569 0)
(1.0390033 0.0053213599 0)
(1.0358658 0.0051008343 0)
(1.032865 0.0048718352 0)
(1.0300043 0.0046396447 0)
(1.027284 0.004408133 0)
(1.024703 0.0041797139 0)
(1.0222588 0.0039555016 0)
(1.0199486 0.003735595 0)
(1.0177699 0.0035194358 0)
(1.0157207 0.0033061516 0)
(1.0137993 0.0030948409 0)
(1.0120048 0.0028847569 0)
(1.0103366 0.002675398 0)
(1.0087941 0.0024665083 0)
(1.0073773 0.0022580317 0)
(1.0060855 0.0020500288 0)
(1.0049188 0.0018426081 0)
(1.0038758 0.0016358465 0)
(1.0029577 0.0014297722 0)
(1.0021615 0.001224306 0)
(1.0014908 0.0010193225 0)
(1.000939 0.00081456479 0)
(1.000516 0.00060981567 0)
(1.0002058 0.00040467431 0)
(1.0000341 0.00019895551 0)
(1.0015833 -0.00037780556 0)
(1.0018577 -0.00040232196 0)
(1.0019597 -0.00042392176 0)
(1.002194 -0.0004513758 0)
(1.0023584 -0.00047862733 0)
(1.0025897 -0.00050990083 0)
(1.0027982 -0.00054257139 0)
(1.0030456 -0.0005786052 0)
(1.0032925 -0.00061690871 0)
(1.0035672 -0.00065844422 0)
(1.0038529 -0.00070280861 0)
(1.0041631 -0.00075052006 0)
(1.0044909 -0.00080148837 0)
(1.0048434 -0.00085603615 0)
(1.0052184 -0.00091421522 0)
(1.0056199 -0.0009762614 0)
(1.0060481 -0.0010422893 0)
(1.0065057 -0.0011124936 0)
(1.0069938 -0.0011870127 0)
(1.0075148 -0.0012660167 0)
(1.0080704 -0.0013496465 0)
(1.0086627 -0.0014380502 0)
(1.0092938 -0.0015313565 0)
(1.0099658 -0.0016296879 0)
(1.0106809 -0.0017331488 0)
(1.0114414 -0.0018418283 0)
(1.0122495 -0.0019557951 0)
(1.0131075 -0.002075095 0)
(1.0140177 -0.0021997491 0)
(1.0149826 -0.0023297486 0)
(1.0160043 -0.0024650544 0)
(1.0170853 -0.0026055903 0)
(1.0182278 -0.0027512428 0)
(1.0194339 -0.0029018558 0)
(1.0207059 -0.0030572246 0)
(1.0220459 -0.0032170953 0)
(1.0234556 -0.0033811553 0)
(1.024937 -0.0035490322 0)
(1.0264917 -0.0037202824 0)
(1.028121 -0.003894389 0)
(1.0298262 -0.0040707481 0)
(1.0316082 -0.0042486647 0)
(1.0334676 -0.0044273369 0)
(1.0354046 -0.0046058489 0)
(1.0374189 -0.0047831559 0)
(1.03951 -0.004958073 0)
(1.0416767 -0.0051292627 0)
(1.043917 -0.0052952254 0)
(1.0462285 -0.0054542925 0)
(1.0486079 -0.0056046232 0)
(1.0510513 -0.0057442086 0)
(1.0535535 -0.0058708816 0)
(1.0561086 -0.0059823351 0)
(1.0587098 -0.0060761473 0)
(1.0613489 -0.0061498142 0)
(1.0640168 -0.0062007874 0)
(1.0667034 -0.0062265148 0)
(1.0693972 -0.0062244846 0)
(1.0720858 -0.0061922681 0)
(1.0747557 -0.0061275628 0)
(1.0773924 -0.0060282342 0)
(1.0799805 -0.0058923581 0)
(1.0825037 -0.0057182617 0)
(1.0849451 -0.0055045675 0)
(1.0872872 -0.0052502355 0)
(1.0895121 -0.0049546095 0)
(1.0916015 -0.0046174581 0)
(1.0935372 -0.0042390177 0)
(1.0953012 -0.0038200248 0)
(1.096876 -0.0033617486 0)
(1.0982445 -0.002866004 0)
(1.0993906 -0.0023351652 0)
(1.1002995 -0.0017721562 0)
(1.1009576 -0.0011804363 0)
(1.101353 -0.00056397282 0)
(1.1014758 7.2813231e-05 0)
(1.1013178 0.00072505918 0)
(1.1008735 0.0013875522 0)
(1.1001394 0.0020548018 0)
(1.0991146 0.0027210514 0)
(1.0978009 0.0033803506 0)
(1.0962028 0.0040266005 0)
(1.0943272 0.0046535741 0)
(1.0921843 0.0052549595 0)
(1.0897865 0.0058243638 0)
(1.0871496 0.0063553697 0)
(1.0842917 0.0068415673 0)
(1.0812339 0.0072766807 0)
(1.0779999 0.0076546946 0)
(1.0746159 0.0079701143 0)
(1.0711103 0.0082182322 0)
(1.0675133 0.0083955236 0)
(1.0638562 0.0084999986 0)
(1.0601708 0.0085316007 0)
(1.0564883 0.0084924481 0)
(1.0528385 0.0083869807 0)
(1.049249 0.0082218335 0)
(1.0457437 0.00800552 0)
(1.0423428 0.0077478358 0)
(1.0390618 0.0074591344 0)
(1.0359119 0.0071494929 0)
(1.0329 0.0068279599 0)
(1.0300295 0.0065019445 0)
(1.0273009 0.0061768825 0)
(1.0247128 0.0058561717 0)
(1.0222627 0.0055413907 0)
(1.0199479 0.005232695 0)
(1.0177656 0.0049293166 0)
(1.0157137 0.0046300442 0)
(1.0137907 0.0043336219 0)
(1.0119952 0.0040390063 0)
(1.0103266 0.0037454942 0)
(1.0087843 0.0034527238 0)
(1.007368 0.0031606118 0)
(1.006077 0.0028692363 0)
(1.0049113 0.0025787426 0)
(1.0038696 0.0022892311 0)
(1.0029526 0.0020007344 0)
(1.0021577 0.0017131343 0)
(1.001488 0.0014262492 0)
(1.0009372 0.0011397115 0)
(1.000515 0.0008532124 0)
(1.0002054 0.00056618192 0)
(1.0000341 0.00027835857 0)
(1.0015678 -0.00048421388 0)
(1.0018396 -0.00051564207 0)
(1.0019406 -0.00054333291 0)
(1.0021727 -0.00057853363 0)
(1.0023356 -0.00061347382 0)
(1.0025647 -0.00065357543 0)
(1.0027713 -0.00069546902 0)
(1.0030164 -0.00074167936 0)
(1.0032611 -0.00079080254 0)
(1.0035334 -0.00084407479 0)
(1.0038166 -0.00090097884 0)
(1.0041241 -0.00096218083 0)
(1.0044491 -0.0010275656 0)
(1.0047986 -0.0010975484 0)
(1.0051705 -0.0011721967 0)
(1.0055688 -0.0012518145 0)
(1.0059935 -0.0013365505 0)
(1.0064475 -0.0014266561 0)
(1.0069319 -0.0015223111 0)
(1.0074491 -0.0016237356 0)
(1.0080006 -0.0017311129 0)
(1.0085888 -0.0018446358 0)
(1.0092156 -0.0019644723 0)
(1.0098832 -0.0020907827 0)
(1.0105938 -0.0022237043 0)
(1.0113496 -0.0023633551 0)
(1.012153 -0.0025098271 0)
(1.0130062 -0.002663183 0)
(1.0139117 -0.0028234541 0)
(1.0148718 -0.0029906334 0)
(1.0158888 -0.0031646751 0)
(1.0169651 -0.003345486 0)
(1.0181031 -0.0035329246 0)
(1.0193049 -0.0037267948 0)
(1.0205727 -0.003926838 0)
(1.0219088 -0.004132732 0)
(1.0233151 -0.004344079 0)
(1.0247933 -0.0045604039 0)
(1.0263454 -0.0047811393 0)
(1.0279726 -0.0050056235 0)
(1.0296764 -0.0052330818 0)
(1.0314576 -0.0054626222 0)
(1.033317 -0.0056932142 0)
(1.0352548 -0.0059236803 0)
(1.0372711 -0.0061526766 0)
(1.039365 -0.0063786787 0)
(1.0415356 -0.0065999657 0)
(1.0437812 -0.0068146083 0)
(1.0460992 -0.0070204598 0)
(1.0484865 -0.0072151524 0)
(1.0509392 -0.0073961015 0)
(1.0534523 -0.0075605186 0)
(1.05602 -0.0077054336 0)
(1.0586353 -0.0078277268 0)
(1.0612904 -0.007924169 0)
(1.0639761 -0.0079914695 0)
(1.0666823 -0.0080263274 0)
(1.0693975 -0.0080254877 0)
(1.0721093 -0.0079857962 0)
(1.0748042 -0.0079042559 0)
(1.0774675 -0.0077780806 0)
(1.0800838 -0.0076047523 0)
(1.0826365 -0.0073820741 0)
(1.0851084 -0.0071082299 0)
(1.0874819 -0.0067818394 0)
(1.0897386 -0.0064020199 0)
(1.0918599 -0.0059684401 0)
(1.0938274 -0.0054813768 0)
(1.0956225 -0.0049417581 0)
(1.0972273 -0.0043512051 0)
(1.0986242 -0.0037120505 0)
(1.0997968 -0.0030273565 0)
(1.1007298 -0.002300901 0)
(1.1014092 -0.0015371626 0)
(1.1018228 -0.00074127988 0)
(1.1019603 8.1009847e-05 0)
(1.1018134 0.0009234032 0)
(1.1013761 0.0017791325 0)
(1.1006451 0.0026410573 0)
(1.0996193 0.0035016996 0)
(1.0983006 0.004353324 0)
(1.0966936 0.005188008 0)
(1.0948055 0.0059976668 0)
(1.0926466 0.0067741153 0)
(1.0902299 0.0075090731 0)
(1.0875713 0.0081942433 0)
(1.0846895 0.0088213517 0)
(1.0816062 0.009382315 0)
(1.0783455 0.0098693987 0)
(1.0749339 0.010275555 0)
(1.0714005 0.01059476 0)
(1.0677756 0.010822521 0)
(1.0640911 0.010956323 0)
(1.0603789 0.01099614 0)
(1.0566707 0.010944742 0)
(1.0529964 0.010807877 0)
(1.0493838 0.010594113 0)
(1.0458569 0.010314428 0)
(1.042436 0.0099814411 0)
(1.0391368 0.0096084918 0)
(1.0359705 0.0092085611 0)
(1.032944 0.008793311 0)
(1.0300607 0.0083722964 0)
(1.0273211 0.0079525374 0)
(1.0247237 0.0075384336 0)
(1.0222661 0.0071320439 0)
(1.0199452 0.0067335937 0)
(1.0177584 0.0063421163 0)
(1.0157032 0.0059560689 0)
(1.0137779 0.0055738447 0)
(1.0119813 0.005194105 0)
(1.0103123 0.0048159434 0)
(1.0087704 0.0044388889 0)
(1.0073549 0.0040628254 0)
(1.0060652 0.0036878428 0)
(1.004901 0.0033141165 0)
(1.0038609 0.0029417632 0)
(1.0029456 0.002570813 0)
(1.0021523 0.0022011014 0)
(1.0014841 0.0018323839 0)
(1.0009347 0.0014641747 0)
(1.0005136 0.0010960677 0)
(1.0002048 0.00072731465 0)
(1.000034 0.0003575741 0)
(1.0015485 -0.00058947986 0)
(1.001817 -0.00062774895 0)
(1.0019169 -0.00066147394 0)
(1.0021462 -0.00070434691 0)
(1.0023072 -0.00074690553 0)
(1.0025337 -0.00079575463 0)
(1.0027379 -0.00084678978 0)
(1.0029803 -0.00090308803 0)
(1.0032222 -0.00096293934 0)
(1.0034915 -0.0010278513 0)
(1.0037716 -0.0010971944 0)
(1.0040757 -0.0011717818 0)
(1.0043973 -0.0012514746 0)
(1.0047432 -0.0013367804 0)
(1.0051112 -0.0014277834 0)
(1.0055055 -0.0015248562 0)
(1.005926 -0.0016281821 0)
(1.0063756 -0.0017380703 0)
(1.0068555 -0.0018547428 0)
(1.0073678 -0.0019784712 0)
(1.0079144 -0.0021094822 0)
(1.0084975 -0.0022480149 0)
(1.009119 -0.0023942782 0)
(1.0097812 -0.002548472 0)
(1.0104862 -0.0027107686 0)
(1.0112363 -0.002881317 0)
(1.0120339 -0.0030602348 0)
(1.0128813 -0.0032476044 0)
(1.0137809 -0.0034434698 0)
(1.0147351 -0.0036478287 0)
(1.0157463 -0.0038606316 0)
(1.0168169 -0.0040817712 0)
(1.0179493 -0.0043110814 0)
(1.0191457 -0.0045483294 0)
(1.0204084 -0.0047932059 0)
(1.0217397 -0.0050453238 0)
(1.0231415 -0.0053042032 0)
(1.0246159 -0.0055692694 0)
(1.0261646 -0.0058398348 0)
(1.0277891 -0.0061150953 0)
(1.029491 -0.0063941085 0)
(1.0312711 -0.0066757876 0)
(1.0331304 -0.006958876 0)
(1.0350692 -0.0072419365 0)
(1.0370875 -0.007523328 0)
(1.0391849 -0.0078011878 0)
(1.0413603 -0.0080734131 0)
(1.0436121 -0.0083376459 0)
(1.045938 -0.0085912617 0)
(1.0483351 -0.0088313656 0)
(1.0507993 -0.0090547965 0)
(1.0533259 -0.0092581427 0)
(1.0559091 -0.0094377673 0)
(1.0585422 -0.0095898467 0)
(1.0612173 -0.009710418 0)
(1.0639253 -0.0097954358 0)
(1.066656 -0.009840835 0)
(1.0693982 -0.0098425974 0)
(1.0721392 -0.0097968192 0)
(1.0748655 -0.0096997811 0)
(1.0775623 -0.0095480147 0)
(1.080214 -0.0093383743 0)
(1.0828037 -0.0090681045 0)
(1.0853141 -0.008734915 0)
(1.087727 -0.008337051 0)
(1.0900238 -0.0078733709 0)
(1.0921854 -0.0073434144 0)
(1.0941929 -0.0067474747 0)
(1.0960271 -0.0060866517 0)
(1.0976696 -0.0053629072 0)
(1.0991023 -0.0045790871 0)
(1.1003083 -0.0037389463 0)
(1.1012716 -0.0028471312 0)
(1.1019778 -0.0019091644 0)
(1.1024143 -0.00093139047 0)
(1.1025701 7.909004e-05 0)
(1.102437 0.0011144815 0)
(1.1020085 0.002166401 0)
(1.1012811 0.0032259954 0)
(1.1002539 0.0042840051 0)
(1.0989287 0.0053308464 0)
(1.0973102 0.0063567148 0)
(1.095406 0.0073516105 0)
(1.0932267 0.0083054265 0)
(1.0907859 0.0092079531 0)
(1.0880998 0.010048984 0)
(1.0851878 0.01081836 0)
(1.0820721 0.011506186 0)
(1.0787773 0.012103012 0)
(1.0753309 0.012600254 0)
(1.0717621 0.012990597 0)
(1.068102 0.013268612 0)
(1.0643828 0.013431296 0)
(1.060637 0.013478692 0)
(1.0568964 0.01341425 0)
(1.0531913 0.013245064 0)
(1.0495497 0.012981657 0)
(1.0459958 0.012637491 0)
(1.04255 0.012228033 0)
(1.0392281 0.01176962 0)
(1.0360413 0.011278154 0)
(1.0329967 0.010767927 0)
(1.0300975 0.010250657 0)
(1.0273443 0.0097349676 0)
(1.0247356 0.0092262809 0)
(1.0222686 0.0087271552 0)
(1.0199403 0.0082379032 0)
(1.0177479 0.0077573737 0)
(1.0156888 0.0072837025 0)
(1.013761 0.006814939 0)
(1.011963 0.0063494511 0)
(1.0102938 0.0058861281 0)
(1.0087523 0.0054243856 0)
(1.007338 0.0049640685 0)
(1.0060499 0.0045052709 0)
(1.0048877 0.0040481898 0)
(1.0038497 0.0035929492 0)
(1.0029366 0.0031395678 0)
(1.0021454 0.0026878257 0)
(1.0014792 0.002237407 0)
(1.0009315 0.0017876989 0)
(1.0005118 0.0013381907 0)
(1.0002041 0.00088794648 0)
(1.0000339 0.00043654009 0)
(1.0015255 -0.000693364 0)
(1.0017902 -0.00073839418 0)
(1.0018886 -0.00077808379 0)
(1.0021147 -0.00082854277 0)
(1.0022735 -0.00087863556 0)
(1.0024968 -0.00093613776 0)
(1.0026982 -0.00099621789 0)
(1.0029372 -0.0010625002 0)
(1.0031759 -0.0011329721 0)
(1.0034416 -0.0012094104 0)
(1.003718 -0.0012910752 0)
(1.0040182 -0.0013789262 0)
(1.0043357 -0.0014728016 0)
(1.0046771 -0.0015733017 0)
(1.0050407 -0.0016805281 0)
(1.0054301 -0.0017949229 0)
(1.0058457 -0.0019167052 0)
(1.0062901 -0.002046243 0)
(1.0067645 -0.0021838016 0)
(1.0072712 -0.0023297056 0)
(1.0078119 -0.0024842272 0)
(1.0083889 -0.0026476531 0)
(1.0090041 -0.0028202354 0)
(1.0096598 -0.0030022159 0)
(1.0103582 -0.0031938045 0)
(1.0111016 -0.0033951839 0)
(1.0118924 -0.0036065001 0)
(1.0127328 -0.0038278582 0)
(1.0136255 -0.0040593185 0)
(1.0145727 -0.0043008867 0)
(1.0155769 -0.0045525135 0)
(1.0166407 -0.004814081 0)
(1.0177663 -0.0050854027 0)
(1.0189563 -0.0053662129 0)
(1.0202129 -0.0056561555 0)
(1.0215383 -0.0059547829 0)
(1.0229349 -0.006261537 0)
(1.0244045 -0.0065757476 0)
(1.0259491 -0.0068966106 0)
(1.0275703 -0.0072231834 0)
(1.0292697 -0.0075543594 0)
(1.0310484 -0.0078888602 0)
(1.0329073 -0.0082252062 0)
(1.034847 -0.0085617029 0)
(1.0368676 -0.008896414 0)
(1.0389688 -0.0092271404 0)
(1.0411497 -0.0095513983 0)
(1.0434089 -0.0098664008 0)
(1.0457442 -0.010169045 0)
(1.0481526 -0.010455907 0)
(1.0506305 -0.010723247 0)
(1.0531732 -0.010967022 0)
(1.0557751 -0.011182923 0)
(1.0584295 -0.011366411 0)
(1.0611285 -0.011512775 0)
(1.0638633 -0.011617199 0)
(1.0666237 -0.01167483 0)
(1.0693983 -0.011680861 0)
(1.0721747 -0.01163061 0)
(1.074939 -0.011519601 0)
(1.0776763 -0.011343647 0)
(1.0803708 -0.011098937 0)
(1.0830054 -0.010782117 0)
(1.0855623 -0.010390383 0)
(1.088023 -0.0099215681 0)
(1.0903683 -0.0093742385 0)
(1.0925787 -0.0087477739 0)
(1.0946346 -0.0080424591 0)
(1.0965162 -0.0072595483 0)
(1.0982045 -0.0064013337 0)
(1.0996806 -0.0054711724 0)
(1.100927 -0.0044735198 0)
(1.1019271 -0.0034139069 0)
(1.1026658 -0.0022989273 0)
(1.1031299 -0.0011361657 0)
(1.1033081 6.5866718e-05 0)
(1.1031915 0.0012978314 0)
(1.1027736 0.0025496707 0)
(1.1020507 0.0038107461 0)
(1.1010216 0.0050699422 0)
(1.0996883 0.0063157474 0)
(1.0980557 0.0075363967 0)
(1.0961317 0.0087198999 0)
(1.0939275 0.0098541602 0)
(1.0914569 0.010926978 0)
(1.0887371 0.011926193 0)
(1.0857881 0.012839727 0)
(1.0826326 0.013655855 0)
(1.0792964 0.014363409 0)
(1.0758072 0.014952285 0)
(1.0721952 0.015413897 0)
(1.0684922 0.015741921 0)
(1.0647307 0.015932903 0)
(1.0609439 0.015987002 0)
(1.057164 0.015908396 0)
(1.0534216 0.015705568 0)
(1.0497449 0.015391036 0)
(1.0461584 0.014980789 0)
(1.0426826 0.014493166 0)
(1.0393334 0.013947537 0)
(1.0361222 0.013362752 0)
(1.033056 0.012755758 0)
(1.030138 0.012140467 0)
(1.0273687 0.011527131 0)
(1.0247465 0.010922217 0)
(1.0222687 0.010328808 0)
(1.0199319 0.0097473225 0)
(1.017733 0.0091764407 0)
(1.0156694 0.0086139879 0)
(1.0137388 0.0080576753 0)
(1.0119394 0.0075055791 0)
(1.01027 0.0069563819 0)
(1.0087294 0.00640938 0)
(1.0073167 0.0058643718 0)
(1.0060308 0.0053214454 0)
(1.004871 0.0047808089 0)
(1.0038358 0.0042425825 0)
(1.0029255 0.0037067625 0)
(1.0021369 0.0031730617 0)
(1.0014732 0.002641083 0)
(1.0009275 0.0021100743 0)
(1.0005096 0.0015794118 0)
(1.0002032 0.0010479581 0)
(1.0000337 0.00051519662 0)
(1.0014988 -0.00079562003 0)
(1.001759 -0.0008473164 0)
(1.0018559 -0.00089288865 0)
(1.0020782 -0.00095083087 0)
(1.0022343 -0.0010083585 0)
(1.002454 -0.0010744015 0)
(1.0026521 -0.0011434122 0)
(1.0028873 -0.0012195551 0)
(1.0031222 -0.0013005197 0)
(1.0033837 -0.0013883491 0)
(1.0036559 -0.0014821957 0)
(1.0039515 -0.0015831642 0)
(1.0042642 -0.0016910718 0)
(1.0046007 -0.0018066113 0)
(1.004959 -0.001929903 0)
(1.0053429 -0.0020614587 0)
(1.0057527 -0.0022015348 0)
(1.006191 -0.002350559 0)
(1.0066591 -0.0025088416 0)
(1.0071593 -0.0026767617 0)
(1.0076933 -0.0028546386 0)
(1.0082632 -0.0030428089 0)
(1.0088712 -0.00324157 0)
(1.0095194 -0.0034512081 0)
(1.0102101 -0.0036719732 0)
(1.0109457 -0.0039040847 0)
(1.0117285 -0.0041477204 0)
(1.012561 -0.0044030116 0)
(1.0134455 -0.0046700381 0)
(1.0143846 -0.0049488181 0)
(1.0153808 -0.0052393058 0)
(1.0164365 -0.0055413777 0)
(1.0175544 -0.0058548309 0)
(1.0187368 -0.0061793717 0)
(1.0199862 -0.0065146021 0)
(1.0213049 -0.0068600186 0)
(1.0226951 -0.0072149902 0)
(1.0241591 -0.0075787563 0)
(1.0256988 -0.0079504013 0)
(1.027316 -0.0083288495 0)
(1.0290123 -0.0087128351 0)
(1.0307891 -0.0091008933 0)
(1.0326474 -0.0094913261 0)
(1.0345879 -0.0098821865 0)
(1.036611 -0.010271247 0)
(1.0387164 -0.010655977 0)
(1.0409035 -0.011033513 0)
(1.0431709 -0.011400641 0)
(1.0455168 -0.011753783 0)
(1.0479383 -0.012088984 0)
(1.050432 -0.01240192 0)
(1.0529933 -0.012687916 0)
(1.0556168 -0.012941979 0)
(1.0582959 -0.013158844 0)
(1.0610229 -0.013333036 0)
(1.063789 -0.013458946 0)
(1.0665841 -0.01353091 0)
(1.0693969 -0.0135433 0)
(1.0722146 -0.01349062 0)
(1.0750235 -0.013367596 0)
(1.0778084 -0.013169279 0)
(1.0805533 -0.012891145 0)
(1.0832407 -0.012529191 0)
(1.0858524 -0.012080053 0)
(1.0883694 -0.011541103 0)
(1.0907719 -0.010910566 0)
(1.0930399 -0.010187623 0)
(1.0951528 -0.0093725152 0)
(1.0970904 -0.0084666233 0)
(1.0988327 -0.007472553 0)
(1.1003601 -0.0063941662 0)
(1.1016543 -0.0052366252 0)
(1.1026978 -0.004006365 0)
(1.1034749 -0.0027110843 0)
(1.1039717 -0.0013596543 0)
(1.1041762 3.7940601e-05 0)
(1.1040792 0.0014707481 0)
(1.1036738 0.002926949 0)
(1.1029558 0.0043940281 0)
(1.1019243 0.005858922 0)
(1.1005812 0.0073080949 0)
(1.0989317 0.008727729 0)
(1.0969841 0.010103755 0)
(1.09475 0.011422007 0)
(1.092244 0.01266823 0)
(1.089484 0.013828258 0)
(1.0864908 0.014888058 0)
(1.0832881 0.015834064 0)
(1.0799024 0.01665339 0)
(1.0763625 0.017334435 0)
(1.0726993 0.017867376 0)
(1.0689453 0.018245042 0)
(1.0651339 0.018463581 0)
(1.0612986 0.018523328 0)
(1.0574723 0.018429244 0)
(1.053686 0.01819125 0)
(1.0499681 0.017823908 0)
(1.0463434 0.017345772 0)
(1.0428326 0.016778091 0)
(1.0394517 0.016143297 0)
(1.036212 0.015463216 0)
(1.0331207 0.014757482 0)
(1.030181 0.014042221 0)
(1.0273933 0.013329345 0)
(1.0247557 0.012626396 0)
(1.0222654 0.011937002 0)
(1.0199189 0.011261712 0)
(1.0177129 0.010599056 0)
(1.0156443 0.0099465603 0)
(1.0137107 0.0093016058 0)
(1.0119101 0.0086619787 0)
(1.0102408 0.0080261521 0)
(1.0087014 0.0073932965 0)
(1.0072908 0.0067631539 0)
(1.0060075 0.0061357953 0)
(1.0048509 0.0055114272 0)
(1.003819 0.0048901525 0)
(1.002912 0.0042719323 0)
(1.0021266 0.0036563989 0)
(1.0014658 0.0030430616 0)
(1.0009228 0.0024310159 0)
(1.000507 0.0018195144 0)
(1.0002021 0.0012072043 0)
(1.0000335 0.00059347173 0)
(1.0014686 -0.00089601304 0)
(1.0017237 -0.0009542698 0)
(1.0018187 -0.0010056313 0)
(1.0020367 -0.0010709411 0)
(1.0021899 -0.0011357906 0)
(1.0024054 -0.0012102477 0)
(1.0025998 -0.0012880596 0)
(1.0028306 -0.0013739235 0)
(1.0030613 -0.0014652364 0)
(1.003318 -0.0015643048 0)
(1.0035854 -0.0016701756 0)
(1.0038758 -0.0017840978 0)
(1.0041831 -0.0019058688 0)
(1.0045139 -0.0020362743 0)
(1.0048662 -0.0021754544 0)
(1.0052438 -0.0023239918 0)
(1.0056471 -0.0024821811 0)
(1.0060786 -0.0026505112 0)
(1.0065395 -0.0028293393 0)
(1.0070323 -0.0030191005 0)
(1.0075585 -0.0032201634 0)
(1.0081205 -0.0034329168 0)
(1.0087202 -0.0036577062 0)
(1.0093599 -0.003894865 0)
(1.0100419 -0.0041446864 0)
(1.0107686 -0.0044074298 0)
(1.0115424 -0.0046833087 0)
(1.0123656 -0.0049724841 0)
(1.0132409 -0.0052750601 0)
(1.0141707 -0.0055910712 0)
(1.0151577 -0.0059204804 0)
(1.0162044 -0.0062631632 0)
(1.0173133 -0.0066189055 0)
(1.018487 -0.0069873908 0)
(1.0197281 -0.007368185 0)
(1.0210389 -0.0077607342 0)
(1.0224219 -0.0081643405 0)
(1.0238793 -0.0085781588 0)
(1.0254132 -0.009001168 0)
(1.0270256 -0.0094321655 0)
(1.0287182 -0.0098697324 0)
(1.0304925 -0.010312224 0)
(1.0323499 -0.010757728 0)
(1.034291 -0.011204053 0)
(1.0363166 -0.011648683 0)
(1.0384265 -0.01208876 0)
(1.0406203 -0.012521045 0)
(1.0428969 -0.012941901 0)
(1.0452546 -0.01334727 0)
(1.0476908 -0.013732667 0)
(1.0502022 -0.01409318 0)
(1.0527846 -0.014423492 0)
(1.0554326 -0.014717916 0)
(1.0581399 -0.014970444 0)
(1.0608989 -0.015174817 0)
(1.0637008 -0.015324607 0)
(1.0665357 -0.015413306 0)
(1.0693921 -0.015434431 0)
(1.0722574 -0.015381627 0)
(1.0751176 -0.015248779 0)
(1.0779575 -0.015030124 0)
(1.0807604 -0.01472037 0)
(1.0835087 -0.014314813 0)
(1.0861837 -0.01380947 0)
(1.0887658 -0.013201199 0)
(1.0912346 -0.012487837 0)
(1.0935691 -0.011668317 0)