/*--------------------------------*- C++ -*----------------------------------*\
| =========                 |                                                 |
| \\      /  F ield         | foam-extend: Open Source CFD                    |
|  \\    /   O peration     | Version:     4.1                                |
|   \\  /    A nd           | Web:         http://www.foam-extend.org         |
|    \\/     M anipulation  |                                                 |
\*---------------------------------------------------------------------------*/
FoamFile
{
    version     2.0;
    format      ascii;
    class       volScalarField;
    location    "0.04";
    object      p;
}
// * * * * * * * * * * * * * * * * * * * * * * * * * * * * * * * * * * * * * //

dimensions      [0 2 -2 0 0 0 0];

internalField   nonuniform List<scalar> 
4393
(
-20.3531
-19.320102
-36.627105
-47.836818
-63.3542
-79.254375
-97.631461
-118.06054
-141.16265
-167.0774
-196.07785
-228.27293
-263.68927
-302.18775
-343.44977
-386.93909
-431.88779
-477.29093
-521.92878
-564.40147
-603.1898
-636.72312
-663.46754
-682.01206
-691.17317
-690.08154
-678.27139
-655.78755
-623.18534
-581.49941
-532.24839
-477.28738
-418.66352
-358.42415
-298.43601
-240.30868
-185.27971
-134.25844
-87.801885
-46.204051
-9.5244834
22.331164
49.57254
72.472469
91.332319
106.51981
118.37319
126.38099
137.99802
-17.912672
-19.026565
-35.838157
-47.146567
-62.515871
-78.333811
-96.607207
-116.9512
-139.98136
-165.85062
-194.84105
-227.075
-262.59261
-301.26833
-342.79467
-386.64192
-432.04217
-477.98154
-523.22386
-566.34456
-605.79444
-639.96757
-667.29293
-686.32008
-695.82929
-694.91989
-683.12252
-660.42648
-627.36222
-585.01989
-534.96527
-479.11888
-419.60236
-358.53382
-297.8262
-239.12479
-183.67088
-132.37116
-85.761381
-44.11447
-7.4641749
24.304988
51.420382
74.164225
92.841977
107.77394
119.24315
127.42693
132.91837
-17.232265
-18.835776
-35.160947
-46.276115
-61.263448
-76.737364
-94.637597
-114.6304
-137.33766
-162.94187
-191.75092
-223.91946
-259.51997
-298.458
-340.45088
-384.98289
-431.28545
-478.32443
-524.82746
-569.31649
-610.17804
-645.73057
-674.32316
-694.41829
-704.71346
-704.22711
-692.42886
-669.29515
-635.3662
-591.75784
-540.13246
-482.53945
-421.25546
-358.54581
-296.41568
-236.5837
-180.29471
-128.44904
-81.536248
-39.785244
-3.1749887
28.455912
55.377135
77.902428
96.365484
111.08669
122.3155
130.59774
134.78627
-15.58426
-17.732769
-33.236248
-44.148162
-58.724507
-73.89549
-91.479443
-111.20355
-133.68765
-159.1477
-187.92112
-220.20319
-256.109
-295.58719
-338.39111
-384.02662
-431.72628
-480.42717
-528.8054
-575.3049
-618.21954
-655.75832
-686.15701
-707.75354
-719.12982
-719.19268
-707.3269
-683.45059
-648.1024
-602.46378
-548.34687
-488.0025
-423.95184
-358.69502
-294.37322
-232.82096
-175.27833
-122.63475
-75.302376
-33.442262
3.0513868
34.407255
60.955138
83.049611
101.05203
115.28215
125.97109
133.71348
136.87861
-15.125204
-17.41139
-32.162626
-42.577242
-56.415478
-70.877793
-87.70161
-106.6912
-128.48444
-153.3533
-181.68937
-213.75606
-249.73947
-289.65868
-333.32623
-380.28449
-429.77212
-480.68575
-531.62928
-580.93535
-626.76768
-667.17968
-700.24711
-724.12533
-737.22538
-738.28473
-726.55823
-701.86961
-664.74335
-616.43398
-558.96883
-494.88687
-427.06843
-358.36246
-291.08822
-227.25008
-168.06084
-114.39359
-66.539973
-24.565007
11.759677
42.757199
68.844023
90.436443
107.94204
121.70043
131.94999
139.28517
141.8696
-13.129341
-15.415958
-28.947522
-38.836528
-51.972948
-65.874453
-82.137843
-100.63922
-122.01994
-146.60386
-174.83437
-207.04585
-243.50228
-284.30405
-329.33526
-378.18434
-430.101
-483.92888
-538.18236
-591.05156
-640.53872
-684.50148
-720.82188
-747.42638
-762.52039
-764.63461
-752.85919
-726.89918
-687.25961
-635.27695
-573.26273
-504.13564
-431.2704
-358.01083
-286.88009
-220.12209
-158.87219
-103.98058
-55.556512
-13.537148
22.473325
52.919252
78.329012
99.196837
115.99056
129.08767
138.75875
145.61626
147.93968
-12.905172
-15.149699
-27.741404
-36.852629
-48.914972
-61.733064
-76.821299
-94.148191
-114.38501
-137.93643
-165.33217
-197.01856
-233.38319
-274.65547
-320.83544
-371.59038
-426.20136
-483.44502
-541.72462
-599.04392
-653.20283
-701.80803
-742.50371
-772.91234
-790.96737
-794.90912
-783.58724
-756.48348
-714.03403
-657.64627
-590.01849
-514.5767
-435.38338
-356.49603
-280.64328
-210.4134
-146.77168
-90.544055
-41.570196
0.37389039
35.905363
65.616516
90.173847
110.1629
126.12033
138.46455
147.49523
153.80842
155.8338
-10.11729
-12.084993
-22.945672
-31.190122
-42.201992
-54.142035
-68.358241
-84.902104
-104.45415
-127.48988
-154.61623
-186.38732
-223.31504
-265.7651
-313.86598
-367.37376
-425.61271
-487.26463
-550.60031
-613.38927
-673.19491
-727.31727
-773.13412
-807.89009
-829.20929
-834.99837
-823.82855
-794.92758
-748.65549
-686.45238
-611.50762
-527.87332
-440.53373
-354.57291
-272.85463
-198.47018
-132.04376
-74.382839
-24.926458
16.749044
51.553649
80.258053
103.69924
122.57089
137.49403
148.9416
157.25718
163.03369
164.88429
-10.245387
-12.13028
-21.95138
-29.212883
-38.864257
-49.37047
-61.988445
-76.868166
-94.724383
-116.13233
-141.81768
-172.49913
-208.88498
-251.56171
-300.87449
-356.73996
-418.5887
-484.9836
-554.0436
-623.23419
-689.84015
-750.78021
-803.1498
-843.71175
-869.71925
-878.63165
-868.62451
-838.42943
-788.19279
-719.28813
-635.58206
-541.93992
-444.62528
-350.26644
-261.66382
-182.6757
-113.28868
-54.324877
-4.637087
36.427556
70.154011
97.512219
119.53584
137.0314
150.70678
161.08578
168.55074
173.67874
175.28906
-6.4296773
-7.8009661
-15.272797
-21.266004
-29.424776
-38.630449
-49.940126
-63.599626
-80.339238
-100.82649
-125.89559
-156.421
-193.30052
-237.34121
-289.11363
-348.69614
-415.65639
-488.35618
-564.73391
-641.86218
-716.72242
-785.76534
-845.81727
-893.00394
-924.15737
-936.22597
-926.9601
-894.53979
-838.92412
-761.24435
-666.23097
-559.67893
-449.55553
-344.85254
-247.82988
-163.56434
-90.894683
-30.738324
18.917666
58.982497
91.229946
116.85341
137.11933
152.95528
165.16407
174.32157
180.8489
185.30034
186.70334
-7.0628463
-8.4107057
-14.867604
-19.786981
-26.403339
-33.910842
-43.253
-54.763295
-69.19156
-87.305594
-110.07787
-138.59975
-174.05791
-217.62039
-270.25607
-332.35798
-403.81947
-482.73905
-566.87604
-652.77525
-737.08186
-815.63703
-885.0851
-940.73274
-979.00282
-996.24252
-989.65953
-956.32055
-895.63237
-808.0776
-699.65042
-577.32015
-451.43681
-334.80712
-228.14309
-138.51269
-62.734753
-1.997131
46.976968
85.343355
115.49085
138.8342
156.89438
170.70826
181.1665
188.88464
194.31348
197.97198
199.11402
-2.1456737
-2.7207927
-6.1392872
-9.2992789
-13.853093
-19.471786
-26.861924
-36.464451
-49.051719
-65.509579
-86.960737
-114.72062
-150.26368
-195.11611
-250.65041
-317.53631
-396.09139
-483.88201
-578.44339
-675.58765
-771.65782
-861.73205
-942.50396
-1008.0872
-1054.3998
-1077.0296
-1072.633
-1037.0054
-969.26943
-868.69507
-742.96059
-600.12007
-453.62298
-322.56039
-204.07194
-108.62806
-29.587187
31.231612
78.958862
114.9545
142.40063
162.92944
178.35138
189.80251
198.25767
204.36001
208.58003
211.3859
212.26453
-3.3389763
-4.0245577
-6.5802855
-8.7244198
-11.723803
-15.555839
-20.774727
-27.872855
-37.594457
-50.885533
-68.983955
-93.441585
-126.10728
-169.05625
-224.37898
-293.32136
-377.19748
-472.83996
-577.66341
-686.46149
-795.31995
-898.16626
-992.13977
-1069.6324
-1126.2949
-1157.1503
-1158.5552
-1123.7618
-1050.6316
-935.73227
-789.4308
-621.06908
-448.41248
-301.41627
-169.6421
-69.339839
12.030567
71.386349
116.545
148.92367
172.67931
189.59639
201.77662
210.41
216.52906
220.77596
223.62176
225.46397
226.03552
2.4906447
2.8466463
3.9909207
4.1707853
3.9327378
2.7862397
0.45558719
-3.6579351
-10.32067
-20.620739
-35.999118
-58.333217
-89.918934
-133.43329
-191.73904
-266.50244
-360.41442
-468.68254
-588.51573
-713.11917
-838.53498
-957.148
-1067.6917
-1159.9594
-1229.1986
-1269.4021
-1276.4749
-1240.3139
-1158.9489
-1024.7294
-851.99513
-650.15777
-442.06851
-276.63669
-128.25407
-23.450365
60.108332
116.85041
158.48536
186.23458
205.49687
218.13899
226.57961
232.02426
235.54478
237.7572
239.11552
239.92719
240.17852
0.93685594
1.0176349
2.8159114
3.8084713
4.9337127
5.4064684
5.1530311
3.5811921
0.038481373
-6.5214324
-17.544286
-35.061084
-61.729943
-100.9364
-156.77788
-231.78404
-331.79087
-449.6672
-582.89735
-722.48247
-864.93886
-999.9404
-1129.2366
-1237.8903
-1321.1956
-1373.2591
-1392.0904
-1361.8414
-1278.1412
-1123.5977
-919.1669
-674.16587
-418.17832
-234.54455
-67.928373
37.684655
120.85657
171.66827
207.34013
228.40276
241.70499
248.99334
252.94836
254.68693
255.26002
255.20535
254.92666
254.61363
254.51006
7.0904502
8.4094785
14.344409
18.187745
22.802492
26.908337
30.768986
33.730398
35.161308
33.890717
28.240887
15.732923
-6.9853443
-44.349896
-102.11015
-183.22626
-298.26604
-434.82213
-590.52425
-752.50825
-918.36501
-1073.385
-1226.6909
-1356.7455
-1459.264
-1528.0078
-1561.6697
-1533.4961
-1442.5331
-1258.4324
-1014.2334
-712.95489
-389.09519
-187.94334
2.4692527
106.45898
188.81422
231.69798
260.1493
273.27835
279.75265
281.02023
280.03167
277.74664
275.16383
272.70883
270.71343
269.23038
268.76291
5.7646804
6.6933066
13.19142
17.595336
23.256122
28.58644
34.093179
39.17624
43.411263
45.813791
44.915453
38.346642
22.681232
-7.0738225
-58.590004
-135.14751
-257.55051
-405.60065
-578.69547
-758.55608
-946.59295
-1120.436
-1302.4802
-1455.9452
-1576.0547
-1657.4669
-1712.1954
-1701.6888
-1623.346
-1412.9243
-1120.4518
-742.14786
-317.00943
-106.18442
108.7915
200.74192
275.98741
304.35836
321.28143
323.2801
320.87771
314.77854
308.01088
301.18569
295.13703
290.09875
286.28199
283.56985
282.716
11.195706
13.335281
23.884717
31.373686
40.995491
50.762519
61.615982
73.032097
84.775037
95.91498
104.90602
108.95704
103.74096
82.550624
33.78258
-45.313367
-192.53709
-370.05943
-579.02443
-791.65685
-1014.7151
-1210.0573
-1426.5157
-1608.4715
-1752.7322
-1863.7133
-1961.3768
-1964.8409
-1886.9929
-1624.381
-1275.5126
-802.25362
-228.33038
-24.657693
225.85496
299.32
367.76132
379.32578
383.89939
373.87345
362.10879
348.30069
335.56221
324.08949
314.52559
306.88735
301.24967
297.31554
296.08225
11.089736
12.858037
24.253717
32.21759
42.703469
53.344277
65.336654
78.191317
91.896767
105.78201
118.70301
128.3343
130.91814
120.19363
81.883739
18.905849
-140.16503
-331.78204
-564.03955
-793.47746
-1043.3236
-1249.6152
-1517.7398
-1739.2962
-1909.5834
-2020.7949
-2144.2319
-2182.2894
-2167.9435
-1888.844
-1472.7218
-854.33065
-28.588057
136.28243
413.85178
443.12074
489.04237
471.47813
456.14926
429.42062
405.57813
382.54267
363.01475
346.48072
333.20688
322.88984
315.40655
310.24815
308.63053
14.460167
17.010813
31.54766
42.171282
56.345001
71.45336
89.248503
109.5652
132.94672
159.30146
188.11022
217.40952
243.21849
257.84801
237.76887
192.37027
-13.371976
-255.96113
-548.48092
-827.72497
-1138.8589
-1362.0399
-1680.9573
-1939.183
-2103.9152
-2250.5325
-2514.5662
-2616.417
-2644.277
-2224.1233
-1738.3367
-975.54772
215.85207
259.48057
596.23688
571.30157
601.95205
556.15156
523.17476
480.87465
445.87749
414.22943
388.36035
367.09306
350.3524
337.53644
328.33525
322.04004
320.07058
16.780042
19.044543
35.289746
46.70275
62.078136
78.272489
97.308201
118.96227
143.89738
172.13599
203.43141
236.23181
267.37814
291.45618
279.10432
275.78763
39.961775
-221.42558
-552.42035
-833.57726
-1175.8308
-1339.8151
-1775.5726
-2100.1477
-2354.2712
-2481.1751
-2717.5843
-2833.02
-3026.1997
-2734.8114
-2206.8639
-1150.9587
759.19499
610.52007
923.25361
788.72732
760.39316
665.00167
600.75485
536.53619
486.93207
445.18262
412.32214
386.13632
365.93035
350.69242
339.85886
332.49861
330.1947
16.861197
19.09218
36.631843
49.363884
66.933261
86.088065
109.41924
137.23034
171.1321
212.49519
263.10887
324.20597
395.97473
478.76664
528.05021
630.39072
295.89548
-72.585844
-497.12676
-852.61027
-1306.7095
-1513.7794
-2007.4127
-2473.9503
-2498.1199
-2468.4553
-3217.9148
-3568.6421
-4175.2859
-3233.6237
-2580.6918
-1427.4621
1383.24
683.96519
1156.5713
916.06999
872.4981
742.52138
659.5384
579.88762
519.80981
470.41178
432.10174
401.9869
378.96624
361.74036
349.55829
341.31535
338.7396
22.72657
24.213022
44.809976
58.973639
78.730451
100.05928
125.9641
156.67702
193.92248
239.06934
293.87548
359.36666
434.74994
524.27927
550.31892
738.64634
296.7168
-74.066104
-608.87306
-891.80279
-1492.77
-1176.3832
-2118.0033
-2449.625
-2860.8689
-3178.7425
-3477.4743
-3777.7557
-4054.8879
-4260.3613
-4105.7189
-2266.5873
2846.1598
1706.6525
1671.0291
1244.6727
1050.9084
855.50971
728.67841
626.09779
551.37538
493.18729
449.10884
415.21274
389.62598
370.66823
357.34238
348.36515
345.55792
18.364837
19.730756
39.05155
52.626646
71.940696
93.091932
119.28753
151.10769
190.98224
241.5816
307.15768
393.98693
509.37252
684.08089
847.33313
1501.0481
882.04704
139.31925
-420.8287
-916.61593
-1349.1293
-1761.031
0
0
0
0
0
0
0
0
0
0
4071.908
827.64572
1801.8309
1262.4524
1106.9932
893.46596
759.39814
649.23999
569.10791
506.96022
459.97765
423.99888
396.90766
376.89139
362.84694
353.40066
350.45068
30.604881
26.838358
50.748547
66.052194
88.685082
113.37149
144.13322
181.6709
229.01896
289.57222
368.62654
474.91371
611.32536
841.35502
964.38174
1630.7504
0
0
0
0
0
0
0
0
0
0
0
0
0
0
0
0
0
4396.9837
2247.0913
1711.2176
1231.2928
976.32011
796.45895
672.66052
583.13079
516.65098
466.92872
429.365
401.24541
380.57409
366.10814
356.39775
353.36245
18.409013
19.778912
39.145968
52.746255
72.10017
93.291879
119.53798
151.41882
191.37082
242.07289
307.79485
394.84767
510.64305
686.20071
850.30702
1517.3364
882.21786
141.31723
-418.99084
-916.71868
-1351.8576
-1766.8903
0
0
0
0
0
0
0
0
0
0
4173.0812
3645.6862
2068.9881
1569.5617
1177.5541
947.36511
783.37417
666.47195
580.39572
515.66654
466.80202
429.69998
401.81719
381.27782
366.88266
357.21219
354.19232
22.864386
24.338216
45.05377
59.281114
79.133183
100.55463
126.56847
157.40372
194.79294
240.11085
295.12788
360.88352
436.62484
526.80815
552.90559
746.13399
304.96202
-66.973923
-600.10221
-887.95667
-1486.6389
-1177.6262
-2130.211
-2466.3636
-2881.1205
-3203.447
-3507.5244
-3812.8019
-4096.8126
-4304.6442
-4139.3007
-2278.2266
2348.0777
2182.2667
1801.4426
1431.1142
1127.5196
920.49634
766.65199
655.29111
572.23288
509.73254
462.37574
426.40045
399.31985
379.35616
365.35084
355.93668
352.99316
17.053715
19.258443
36.962056
49.792153
67.506473
86.810298
110.32124
138.34286
172.50202
214.18541
265.20972
326.84172
399.32471
483.14704
533.28703
638.71602
300.67794
-68.333688
-493.60985
-851.4957
-1306.3688
-1515.7779
-2011.8431
-2479.9458
-2516.7822
-2498.2517
-3248.2405
-3606.9563
-4222.9352
-3315.7067
-2698.2618
-1733.1245
1468.839
1484.2744
1403.6603
1182.2609
990.72219
836.05435
715.31249
622.10508
550.19583
494.52241
451.53479
418.4288
393.26438
374.58848
361.42574
352.55054
349.7771
17.041667
19.296422
35.759597
47.30349
62.861497
79.237469
98.483826
120.37422
145.58522
174.15019
205.84213
239.13196
270.9047
295.83036
284.28984
283.33929
47.035555
-214.85715
-546.63049
-830.10825
-1173.8901
-1341.5337
-1781.8478
-2108.3604
-2366.1853
-2496.9942
-2734.7526
-2851.6137
-3045.669
-2756.7013
-2219.6895
-1231.2198
733.34725
922.48289
1069.3501
969.28306
864.17417
753.8506
661.19745
584.67657
523.59398
475.07212
436.96577
407.25699
384.47127
367.4516
355.40048
347.24842
344.69719
14.732373
17.27885
32.06273
42.844108
57.236077
72.565182
90.616342
111.22027
134.9342
161.67509
190.9369
220.76413
247.18507
262.50918
242.97763
198.5674
-8.1011725
-251.15266
-544.50272
-825.23711
-1137.5929
-1362.9008
-1684.7265
-1946.1262
-2116.3527
-2267.7264
-2534.5405
-2639.7627
-2670.6142
-2254.0689
-1757.6428
-994.75413
315.07548
566.28525
771.46391
757.15428
718.62617
653.48913
592.10055
536.01683
488.74401
449.52008
417.80591
392.53159
372.84133
357.9664
347.35125
340.1315
337.87267
11.427259
13.208702
24.897175
33.045409
43.7783
54.663415
66.933163
80.092342
94.14316
108.42221
121.79834
131.95641
135.15232
125.12728
87.490593
25.437373
-133.83532
-325.76996
-558.75157
-789.45496
-1040.5394
-1248.6601
-1518.7021
-1741.5414
-1913.6662
-2026.2812
-2149.8011
-2187.7143
-2172.2415
-1891.3883
-1467.4483
-851.76103
31.127243
310.92083
539.94893
583.77295
591.20841
561.09079
524.91856
486.55892
451.85473
421.55423
396.23805
375.56907
359.18856
346.65881
337.63915
331.46679
329.53214
11.526302
13.684241
24.545146
32.236795
42.129168
52.163733
63.317932
75.058853
87.161159
98.696492
108.12229
112.64389
107.92655
87.237987
38.8846
-39.774535
-187.21402
-364.9909
-574.51294
-788.03397
-1012.0761
-1208.8537
-1427.0565
-1610.7714
-1757.0969
-1869.4808
-1967.0996
-1969.104
-1887.8662
-1618.5117
-1254.3753
-764.4849
-140.02319
131.99499
352.83515
431.29312
469.93198
468.72191
455.02375
433.74554
411.67602
390.65609
372.13612
356.43447
343.66205
333.70847
326.45167
321.44168
319.87134
6.1670201
7.127719
13.983281
18.616259
24.577379
30.201559
36.03592
41.470605
46.093044
48.92106
48.49114
42.432576
27.313464
-1.8820061
-52.89046
-128.97793
-251.35037
-399.50568
-572.95311
-753.38363
-942.03138
-1116.6421
-1299.4057
-1453.3449
-1573.8768
-1655.18
-1708.9047
-1696.6262
-1614.9611
-1399.0767
-1096.2367
-705.66502
-248.096
5.1457272
210.9657
308.88504
367.09193
386.74891
390.29509
383.05931
371.88833
359.24982
347.09286
336.18716
326.98341
319.62613
314.17005
310.35871
309.16075
7.4704418
8.8223504
15.122087
19.203135
24.129643
28.538189
32.732315
36.044815
37.853401
36.985039
31.761922
19.699026
-2.5660393
-39.491027
-96.867773
-177.65716
-292.63119
-429.22183
-585.13977
-747.49723
-913.79926
-1069.3871
-1223.2395
-1353.6225
-1456.1582
-1524.1261
-1555.7723
-1524.1919
-1427.8502
-1235.68
-979.1049
-663.2155
-314.63971
-87.053958
99.490238
206.05722
276.07889
311.16271
328.5824
333.45555
332.11144
327.30794
321.25651
315.04887
309.39644
304.65463
301.02951
298.44574
297.63312
1.3957037
1.523003
3.7340278
4.9919936
6.4608781
7.2657723
7.3770882
6.1889351
3.0590203
-3.0606763
-13.61542
-30.641899
-56.808559
-95.521879
-150.91463
-225.53488
-325.33541
-443.09616
-576.32928
-715.99508
-858.53502
-993.61472
-1122.8709
-1231.2521
-1313.9929
-1364.9113
-1381.7967
-1348.5257
-1260.2687
-1099.1236
-885.02074
-628.17107
-354.2702
-152.36984
15.510178
124.10561
200.23641
245.62095
273.18407
287.57325
294.3543
296.31351
295.71333
293.81881
291.49892
289.25346
287.39735
286.0099
285.5696
2.9120343
3.3110145
4.8650375
5.3111855
5.4194151
4.6050602
2.6361477
-1.1021483
-7.3672444
-17.25063
-32.193767
-54.079604
-85.212279
-128.28354
-186.17798
-260.57525
-354.22778
-462.29615
-582.00246
-706.51643
-831.82128
-950.26131
-1060.4516
-1152.0425
-1220.1413
-1258.4707
-1262.7111
-1222.5936
-1135.8184
-994.43944
-812.37037
-599.8251
-378.24417
-200.43524
-49.959025
56.63445
135.31324
187.55235
222.70341
244.7526
258.40098
266.2925
270.61227
272.69989
273.51283
273.64811
273.49832
273.27542
273.20205
-2.8337239
-3.4619564
-5.5596033
-7.4100295
-10.031861
-13.503082
-18.330107
-25.022196
-34.313894
-47.154724
-64.782998
-88.756079
-120.93075
-163.39524
-218.25708
-286.77428
-370.2929
-465.61491
-570.1513
-678.66049
-787.17933
-889.59338
-982.95706
-1059.5647
-1114.9592
-1143.9656
-1142.782
-1104.4308
-1026.528
-905.42891
-751.26734
-573.90179
-390.69134
-234.25661
-99.273834
3.0343462
81.745821
137.97673
178.35102
206.16934
225.29568
238.1275
246.68259
252.28912
255.92748
258.24344
259.67377
260.53745
260.80199
-1.6890062
-2.2131552
-5.1835419
-8.0531059
-12.230756
-17.491315
-24.493708
-33.697153
-45.864363
-61.884788
-82.880724
-110.17131
-145.23572
-189.60798
-244.67
-311.09791
-389.22343
-476.59123
-570.72454
-667.39913
-762.90768
-852.27195
-932.09653
-996.39267
-1040.9676
-1061.2529
-1053.7948
-1014.2743
-941.6603
-835.14472
-702.38323
-551.88938
-397.18987
-259.13639
-137.67334
-40.67866
36.650994
95.020075
138.994
171.20391
194.74815
211.72707
223.94752
232.67354
238.86634
243.18624
246.08888
247.97786
248.56848
-6.5219505
-7.8047623
-13.767835
-18.372061
-24.584715
-31.709778
-40.639456
-51.726372
-65.710182
-83.362521
-105.65533
-133.68343
-168.63736
-211.69104
-263.81941
-325.41865
-396.38646
-474.80386
-558.41481
-643.73238
-727.36016
-805.09101
-873.49946
-927.81035
-964.35173
-979.33961
-969.88631
-932.93281
-867.78666
-774.9023
-660.32165
-531.38702
-398.71533
-276.33172
-166.59126
-75.306557
-0.28315448
58.801996
105.00982
140.37282
167.32546
187.6559
202.93972
214.3391
222.76282
228.85706
233.07497
235.88474
236.76022
-5.9420397
-7.2556499
-14.2466
-19.928875
-27.685691
-36.51038
-47.408711
-60.646379
-76.942968
-96.969275
-121.55766
-151.5841
-187.94751
-231.4571
-282.68483
-341.7078
-408.0907
-480.17797
-555.88806
-632.26041
-706.23399
-774.20928
-832.94808
-878.50504
-907.63696
-917.20154
-904.89958
-868.85165
-808.96484
-726.39491
-625.9724
-513.8074
-398.16848
-288.86643
-189.12176
-103.40554
-31.073373
27.870668
75.395914
113.01628
142.60607
165.65214
183.50177
197.19868
207.58201
215.26596
220.68574
224.35601
225.51342
-9.6790894
-11.493827
-20.793874
-27.724203
-36.951695
-47.058679
-59.247522
-73.688877
-91.086305
-112.01845
-137.20885
-167.37731
-203.23231
-245.361
-294.10785
-349.3862
-410.62051
-476.35782
-544.69738
-613.07533
-678.73938
-738.56394
-789.58905
-828.51539
-852.529
-859.01027
-846.09052
-812.45292
-758.22655
-684.83638
-596.26958
-497.6627
-395.5777
-297.22551
-206.01163
-125.53535
-56.058308
2.1534554
50.288794
89.429554
120.98838
146.17418
166.11766
181.73576
193.78632
202.83817
209.29731
213.71133
215.0972
-9.6021559
-11.50663
-21.858946
-29.775561
-40.363986
-51.90383
-65.688425
-81.790321
-100.87818
-123.43021
-150.05002
-181.29118
-217.66372
-259.53142
-307.01916
-359.8768
-417.41904
-478.31087
-540.80183
-602.63255
-661.33155
-714.15875
-758.44572
-791.38892
-810.56535
-813.82985
-799.739
-767.50372
-717.48511
-651.18876
-571.92644
-483.97571
-392.57803
-303.22615
-219.17064
-143.40597
-76.700728
-19.519499
28.772252
68.90502
101.9186
128.77756
150.41896
167.63859
181.11406
191.36664
198.76973
203.89472
205.54034
-12.322514
-14.493876
-26.544606
-35.3129
-46.935864
-59.341471
-73.986718
-90.861824
-110.62573
-133.68586
-160.56826
-191.71834
-227.52104
-268.20284
-313.75897
-363.84937
-417.74443
-474.20448
-531.61216
-587.94437
-640.96891
-688.25553
-727.40674
-756.00166
-771.93193
-773.39602
-759.23281
-728.92014
-682.91702
-622.70715
-551.11223
-471.75439
-388.92084
-306.97217
-228.90326
-157.28767
-93.168572
-37.156149
10.993378
51.731078
85.799673
113.95359
136.95938
155.49834
170.16809
181.43788
189.64179
195.36124
197.19979
-12.59012
-14.809288
-27.810325
-37.358407
-50.054557
-63.540889
-79.356664
-97.399936
-118.2991
-142.3802
-170.08197
-201.7367
-237.60432
-277.78062
-322.14315
-370.27139
-421.40291
-474.36475
-527.65091
-579.42649
-627.66508
-670.19288
-704.85868
-729.55673
-742.46389
-742.08752
-727.52004
-698.47444
-655.48717
-599.97012
-534.34881
-461.70705
-385.60661
-309.61701
-236.44984
-168.36926
-106.55366
-51.714907
-3.8823932
37.17757
71.975676
101.09258
125.15223
144.73773
160.37901
172.50517
181.42393
187.7383
189.89072
-14.533949
-16.74578
-30.942444
-41.005994
-54.393402
-68.433086
-84.802756
-103.32913
-124.63672
-148.99967
-176.80466
-208.31264
-243.70516
-282.99608
-325.99063
-372.22156
-420.91485
-470.95058
-520.91251
-569.10913
-613.67678
-652.63924
-684.04161
-706.01044
-716.93258
-715.52986
-701.0626
-673.37252
-633.02663
-581.35788
-520.50302
-453.14677
-382.33051
-311.08035
-241.85798
-176.70318
-116.85402
-63.091369
-15.633349
25.588924
60.908843
90.767556
115.67266
136.12403
152.5917
165.46734
175.02828
181.86382
184.29094
-15.024433
-17.103008
-32.059107
-42.621008
-56.745133
-71.490592
-88.615798
-107.87057
-129.86094
-154.80461
-183.03345
-214.73953
-250.03255
-288.85494
-330.95188
-375.81884
-422.67528
-470.44198
-517.77575
-563.09836
-604.67935
-640.70244
-669.37857
-689.02389
-698.20411
-695.8186
-681.26346
-654.48005
-616.05233
-567.23639
-509.94518
-446.55677
-379.73023
-312.10801
-245.94335
-183.1108
-124.86686
-72.037322
-24.968905
16.285328
51.926262
82.286352
107.78145
128.84479
145.89948
159.31702
169.36843
176.6463
179.66511
-16.639317
-18.169032
-33.931711
-44.691141
-59.220144
-74.264602
-91.702755
-111.22388
-133.43573
-158.52257
-186.78653
-218.37889
-253.36638
-291.64802
-332.93256
-376.6935
-422.14883
-468.24799
-513.69937
-557.00302
-596.5217
-630.54951
-657.41221
-675.55262
-683.65506
-680.73512
-666.27776
-640.28757
-603.35322
-556.66633
-501.98578
-441.47747
-377.54102
-312.56261
-248.64098
-187.5355
-130.50277
-78.396045
-31.645593
9.6112279
45.483276
76.226162
102.19175
123.76902
141.35271
155.31469
165.94489
173.78935
177.83995
-17.335295
-18.379396
-34.631881
-45.585175
-60.495145
-75.881891
-93.690464
-113.5592
-136.08926
-161.43516
-189.87288
-221.52101
-256.41355
-294.418
-335.21788
-378.27248
-422.80037
-467.77155
-511.93123
-553.83416
-591.90913
-624.52819
-650.10001
-667.15792
-674.47306
-671.14684
-656.71911
-631.21189
-595.2115
-549.87763
-496.86812
-438.21123
-376.14099
-312.88273
-250.43183
-190.4737
-134.25935
-82.658026
-36.150972
5.0701146
41.053941
72.003822
98.226321
120.07635
137.91966
152.12768
163.02412
170.78801
176.14718
-19.76766
-18.660716
-35.402595
-46.255529
-61.311295
-76.779073
-94.690194
-114.64326
-137.24472
-162.63578
-191.08334
-222.69251
-257.4837
-295.31073
-335.84586
-378.54175
-422.61686
-467.05006
-510.60303
-551.85524
-589.26567
-621.24191
-646.23015
-662.8037
-669.77031
-666.25877
-651.82939
-626.55913
-591.04558
-546.4007
-494.23302
-436.50244
-375.36375
-312.96528
-251.25104
-191.87005
-136.06861
-84.722771
-38.337311
2.8702559
38.920232
69.991766
96.372233
118.40594
136.45416
150.93557
162.22927
169.82603
181.3134
841.17093
864.58621
911.73299
931.65322
915.53992
882.04704
823.74253
762.95364
688.61599
619.05298
-450.85428
-441.45349
-435.90304
-420.8287
-419.75433
-403.6605
-407.6655
-393.21626
-402.03528
-395.86752
-615.11735
-605.93619
-601.11276
-584.91584
-583.51893
-564.17908
-566.63075
-546.10266
-551.17995
-533.7616
-781.80461
-770.90315
-764.55914
-745.39733
-742.68718
-719.79973
-721.35716
-696.63346
-703.08115
-682.53145
-933.64076
-922.46681
-916.61593
-896.03017
-893.1877
-867.1792
-867.56323
-837.13944
-839.70978
-800.93533
-1089.2918
-1075.8762
-1068.4076
-1044.7582
-1041.1326
-1012.1739
-1013.1464
-981.34314
-988.33492
-960.36347
-1228.8349
-1214.676
-1207.4087
-1181.9521
-1178.2744
-1145.7953
-1145.4574
-1107.1944
-1108.857
-1063.4556
-1363.2585
-1349.1293
-1342.9362
-1316.1666
-1313.1506
-1277.8869
-1277.9099
-1235.755
-1236.2733
-1188.6547
-3232.3555
-3168.6288
-3164.1345
-3068.0932
-3076.134
-2956.3806
-2967.9505
-2830.1276
-2836.5034
-2676.5005
-1623.9
-1607.8747
-1602.5795
-1571.9565
-1570.3193
-1529.0358
-1530.4324
-1480.0445
-1482.3154
-1423.1785
-1761.031
-1741.8715
-1735.039
-1700.3708
-1698.101
-1652.5277
-1654.1756
-1599.508
-1603.1135
-1542.6658
-1892.3514
-1870.2345
-1862.4314
-1824.0871
-1821.7061
-1771.653
-1773.2566
-1712.8242
-1715.5137
-1645.0158
-2011.9221
-1989.4777
-1983.3753
-1943.3483
-1942.8349
-1889.6841
-1893.0416
-1828.3292
-1830.4386
-1750.8289
-2134.6294
-2110.757
-2105.6519
-2062.9587
-2063.9798
-2007.5949
-2014.1098
-1948.165
-1959.702
-1901.4267
-2264.5033
-2236.2992
-2229.5894
-2181.4461
-2181.4099
-2118.0033
-2122.1504
-2044.4224
-2047.6141
-1952.2753
-2385.582
-2355.284
-2349.5127
-2298.042
-2299.6316
-2231.9555
-2238.2861
-2156.1059
-2161.1842
-2061.0607
-2505.857
-2473.3121
-2468.6386
-2413.4497
-2416.759
-2344.7278
-2354.3908
-2270.1391
-2285.5619
-2204.8821
-2632.3632
-2594.7395
-2588.7745
-2527.1699
-2529.7759
-2449.625
-2457.1075
-2360.3642
-2367.0995
-2249.1456
-2751.1698
-2710.2935
-2705.1541
-2638.7289
-2643.0201
-2557.0299
-2566.5152
-2464.0226
-2471.7075
-2350.2911
-2866.42
-2822.5505
-2818.932
-2747.5937
-2754.1683
-2662.4887
-2675.3188
-2569.0106
-2584.6587
-2476.2534
-2982.6783
-2934.1632
-2931.2502
-2853.2905
-2860.8689
-2760.8612
-2773.3232
-2655.8792
-2667.0994
-2534.8611
-3099.0267
-3045.9308
-3044.4693
-2959.3607
-2968.0868
-2859.2132
-2871.8293
-2744.9522
-2755.6923
-2612.9754
-1506.6821
-1489.0252
-1480.545
-1449.8847
-1446.1944
-1407.4227
-1408.2367
-1363.2238
-1367.6552
-1322.2254
353.77694
357.9166
359.66469
365.88653
360.03214
357.79715
339.304
324.64783
293.38046
264.19125
-266.91356
-259.02229
-255.1225
-243.04898
-243.68337
-231.41506
-236.91027
-226.87922
-235.84475
-230.57291
542.28586
549.96938
574.95491
594.80743
594.70793
587.80854
559.59714
529.23682
483.2451
433.72841
122.49452
129.54379
133.26097
142.16125
139.31925
143.74901
132.55865
129.62917
111.62251
104.48345
-77.912025
-70.392065
-66.879594
-56.99922
-59.48504
-52.162532
-61.980953
-61.660891
-81.044964
-100.45381
2691.4795
4096.8509
4163.8875
4173.0812
3954.2068
3668.5126
3332.2587
2984.3534
2624.6729
2206.5393
-3161.8835
-1394.9127
-1104.9312
-396.48811
-87.262729
189.66996
330.03093
406.89802
428.9329
395.90153
-3332.6878
-3267.8083
-3268.4979
-3166.6435
-3178.7425
-3050.5644
-3064.2633
-2918.7453
-2925.4352
-2764.0623
-3459.3576
-3384.9649
-3385.6212
-3272.6169
-3285.6765
-3145.8061
-3159.4214
-3003.0096
-3004.453
-2833.5613
-3582.6705
-3499.0793
-3500.8721
-3376.513
-3391.5071
-3239.6616
-3254.4927
-3088.0337
-3088.8738
-2920.5822
-3704.5266
-3611.2554
-3614.5002
-3477.4743
-3494.2041
-3328.4955
-3342.8855
-3162.2312
-3158.6827
-2976.4403
-3823.9228
-3720.819
-3726.7833
-3576.2198
-3595.2262
-3414.7034
-3428.201
-3232.5946
-3224.6865
-3020.9543
-3951.1618
-3835.1231
-3843.2536
-3676.7865
-3697.8307
-3501.1368
-3513.1398
-3302.6936
-3288.2443
-3065.0589
-4080.4219
-3950.1345
-3961.3408
-3777.7557
-3801.9855
-3589.0999
-3601.0078
-3378.3114
-3358.7286
-3126.1339
-4208.1797
-4062.5795
-4078.162
-3875.8558
-3903.9897
-3674.2134
-3686.6726
-3454.1124
-3435.6718
-3215.5499
-4339.3895
-4174.2266
-4193.4778
-3968.6246
-3999.182
-3748.7827
-3756.7391
-3506.819
-3472.8555
-3215.0018
-4465.3301
-4279.2183
-4304.2132
-4054.8879
-4089.0641
-3818.1019
-3823.4
-3562.4845
-3520.4877