/*--------------------------------*- C++ -*----------------------------------*\
| =========                 |                                                 |
| \\      /  F ield         | foam-extend: Open Source CFD                    |
|  \\    /   O peration     | Version:     4.1                                |
|   \\  /    A nd           | Web:         http://www.foam-extend.org         |
|    \\/     M anipulation  |                                                 |
\*---------------------------------------------------------------------------*/
FoamFile
{
    version     2.0;
    format      ascii;
    class       surfaceScalarField;
    location    "0.04";
    object      phi;
}
// * * * * * * * * * * * * * * * * * * * * * * * * * * * * * * * * * * * * * //

dimensions      [0 3 -1 0 0 0 0];

internalField   nonuniform List<scalar> 
8438
(
-0.60175725
0.00053021773
-0.60237928
0.00062203429
-0.60301243
0.00063314178
-0.60368079
0.00066836925
-0.60438379
0.00070299334
-0.60513191
0.00074812207
-0.60593288
0.00080096894
-0.60679555
0.00086267476
-0.60772785
0.00093229944
-0.60873685
0.0010089999
-0.60982793
0.0010910737
-0.61100409
0.0011761621
-0.61226511
0.001261019
-0.61360662
0.0013415156
-0.61501928
0.00141266
-0.61648807
0.0014687842
-0.61799189
0.0015038274
-0.61950367
0.0015117728
-0.62099087
0.0014872012
-0.62241661
0.0014257414
-0.62374118
0.0013245659
-0.62492387
0.0011826973
-0.62592519
0.0010013198
-0.62670908
0.00078389035
-0.62724539
0.00053630647
-0.62751215
0.00026675812
-0.62749776
-1.4390724e-05
-0.62720181
-0.00029594458
-0.62663722
-0.00056459038
-0.62583105
-0.00080617314
-0.62482231
-0.0010087433
-0.62365906
-0.0011632416
-0.62239449
-0.0012645705
-0.62108224
-0.0013122533
-0.61977205
-0.0013101898
-0.61850696
-0.0012650907
-0.61732112
-0.0011858436
-0.61623962
-0.0010814953
-0.61527873
-0.0009608903
-0.61444722
-0.00083150801
-0.61374772
-0.00069950009
-0.61317833
-0.00056938868
-0.61273399
-0.00044434372
-0.61240765
-0.00032634153
-0.61219107
-0.0002165835
-0.61207547
-0.00011559685
-0.61205007
-2.5395938e-05
-0.61209805
4.7978618e-05
0.00014689894
-0.61561766
0.00087743653
-0.61595325
0.00095763042
-0.61630556
0.00098544919
-0.61668425
0.0010470613
-0.61709758
0.0011163184
-0.61755502
0.0012055656
-0.61806518
0.001311134
-0.61863695
0.0014344388
-0.61927849
0.0015738463
-0.61999713
0.0017276338
-0.62079854
0.0018924825
-0.62168609
0.0020637142
-0.62265994
0.0022348679
-0.6237161
0.0023976729
-0.62484552
0.0025420833
-0.62603337
0.0026566375
-0.62725858
0.0027290371
-0.62849384
0.0027470264
-0.62970618
0.0026995493
-0.6308581
0.0025776561
-0.63190906
0.0023755282
-0.63281744
0.0020910798
-0.63354273
0.0017266031
-0.63404781
0.0012889743
-0.63430156
0.00079005688
-0.6342812
0.00024639838
-0.63397463
-0.00032096011
-0.63338311
-0.00088746905
-0.63252128
-0.0014264155
-0.63141632
-0.0019111394
-0.63010762
-0.0023174384
-0.62864389
-0.0026269739
-0.62707915
-0.0028293119
-0.62546788
-0.0029235199
-0.62386036
-0.0029177133
-0.62229987
-0.0028255789
-0.62082042
-0.0026652937
-0.61944678
-0.002455136
-0.6181947
-0.0022129659
-0.61707247
-0.0019537421
-0.61608224
-0.0016897289
-0.61522178
-0.0014298488
-0.61448583
-0.0011802913
-0.61386738
-0.00094478861
-0.61335859
-0.00072537651
-0.61295139
-0.0005227953
-0.61263833
-0.0003384597
-0.61241441
-0.00017593842
-2.2713594e-05
-0.61615162
0.0012064256
-0.61646872
0.0012747275
-0.61679877
0.0013154993
-0.61715296
0.001401251
-0.61754039
0.0015037465
-0.61797086
0.0016360401
-0.61845339
0.0017936655
-0.61899719
0.0019782394
-0.6196109
0.0021875536
-0.62030238
0.0024191147
-0.62107803
0.0026681281
-0.62194203
0.0029277149
-0.62289544
0.0031882769
-0.62393517
0.0034374047
-0.62505298
0.0036598993
-0.62623464
0.0038382894
-0.62745932
0.0039537181
-0.62869957
0.0039872817
-0.62992192
0.0039218917
-0.63108789
0.0037436346
-0.63215575
0.0034433872
-0.63308235
0.0030176722
-0.63382542
0.0024696803
-0.63434596
0.0018095126
-0.63461085
0.0010549414
-0.63459537
0.00023092299
-0.63428576
-0.00063056861
-0.63368114
-0.0014920882
-0.632795
-0.0023125597
-0.63165547
-0.0030506703
-0.63030431
-0.0036685952
-0.62879361
-0.0041376718
-0.62718133
-0.0044415971
-0.62552564
-0.0045792037
-0.62387949
-0.0045638638
-0.62228788
-0.0044171883
-0.62078525
-0.0041679277
-0.61939604
-0.0038443464
-0.618135
-0.0034740044
-0.61700916
-0.0030795868
-0.6160193
-0.0026795828
-0.61516194
-0.0022872155
-0.61443069
-0.0019115315
-0.61381769
-0.0015577914
-0.61331447
-0.001228595
-0.61291269
-0.00092457585
-0.61260503
-0.00064611864
-0.61238682
-0.00039415353
-0.00016458268
-0.61621049
0.0015068571
-0.61651163
0.0015758632
-0.61682993
0.0016337995
-0.61717302
0.0017443369
-0.61755025
0.0018809831
-0.61797095
0.002056733
-0.61844436
0.0022670818
-0.61897996
0.0025138333
-0.61958687
0.0027944673
-0.62027364
0.0031058905
-0.62104755
0.0034420352
-0.62191382
0.0037939812
-0.62287463
0.0041490864
-0.623928
0.0044907772
-0.62506661
0.0047985122
-0.62627675
0.0050484286
-0.62753759
0.0052145569
-0.62882095
0.0052706391
-0.63009196
0.0051928988
-0.63131016
0.0049618401
-0.63243135
0.0045645776
-0.63340955
0.0039958738
-0.63419949
0.0032596158
-0.63475895
0.002368975
-0.63505175
0.0013477382
-0.63505034
0.00022951585
-0.6347386
-0.00094230622
-0.63411415
-0.0021165462
-0.63319043
-0.0032362714
-0.63199741
-0.0042436951
-0.63058063
-0.0050853747
-0.62899749
-0.0057208068
-0.62731216
-0.0061269343
-0.62558867
-0.006302694
-0.62388404
-0.0062684919
-0.62224591
-0.0060553203
-0.62070924
-0.0057045965
-0.61929789
-0.00525569
-0.61802498
-0.0047469158
-0.61689557
-0.0042090026
-0.61590836
-0.0036667909
-0.61505799
-0.0031375864
-0.61433654
-0.0026329793
-0.613735
-0.0021593319
-0.61324425
-0.0017193433
-0.61285584
-0.0013129838
-0.61256289
-0.00093907003
-0.61236115
-0.00059589336
-0.00028078508
-0.61634293
0.0017990356
-0.61663706
0.0018699977
-0.61694174
0.0019384729
-0.6172688
0.0020713978
-0.61762786
0.0022400502
-0.6180292
0.0024580662
-0.61848277
0.0027206589
-0.61899889
0.0030299512
-0.61958772
0.0033832987
-0.62025908
0.003777249
-0.62102177
0.00420472
-0.62188275
0.004654964
-0.62284607
0.0051124071
-0.62391154
0.0055562466
-0.62507332
0.0059602911
-0.62631858
0.0062936943
-0.62762657
0.006522538
-0.62896807
0.0066121439
-0.63030628
0.0065311043
-0.63159789
0.0062534584
-0.63279525
0.0057619345
-0.63384838
0.0050490037
-0.63470771
0.0041189467
-0.63532642
0.0029876829
-0.63566377
0.0016850885
-0.63568796
0.00025370491
-0.63537928
-0.0012509818
-0.63473295
-0.0027628799
-0.63376209
-0.0042071269
-0.63249888
-0.0055069117
-0.6309942
-0.0065900499
-0.62931313
-0.0074018837
-0.62752885
-0.0079112129
-0.62571396
-0.0081175764
-0.62393113
-0.0080513281
-0.62223157
-0.0077548769
-0.62065069
-0.0072854803
-0.6192113
-0.0066950786
-0.61792399
-0.0060342215
-0.61679098
-0.0053420204
-0.61580796
-0.0046498034
-0.61496693
-0.0039786218
-0.61425771
-0.0033421929
-0.61366959
-0.0027474519
-0.61319226
-0.0021966739
-0.61281665
-0.001688594
-0.61253581
-0.0012199167
-0.61234583
-0.00078587385
-0.00038181184
-0.61647529
0.002054477
-0.6167395
0.0021342108
-0.61702202
0.0022209903
-0.6173298
0.0023791716
-0.6176716
0.0025818589
-0.6180569
0.0028433582
-0.61849568
0.0031594416
-0.6189986
0.0035328681
-0.61957658
0.0039612863
-0.62024058
0.0044412463
-0.62100089
0.0049650258
-0.6218663
0.0055203766
-0.6228429
0.0060890127
-0.62393258
0.0066459228
-0.62513127
0.0071589811
-0.62642726
0.007589688
-0.62779989
0.0078951623
-0.62921865
0.0080309029
-0.63064423
0.007956685
-0.63202972
0.0076389503
-0.63332309
0.0070553014
-0.63446936
0.0061952759
-0.63541367
0.0050632557
-0.63610347
0.0036774883
-0.63649251
0.0020741204
-0.63654376
0.00030495588
-0.63623318
-0.0015615619
-0.63555301
-0.0034430416
-0.63451585
-0.0052442878
-0.63315649
-0.0068662797
-0.63153275
-0.0082137804
-0.62971992
-0.009214718
-0.62780357
-0.0098275664
-0.62586811
-0.010053035
-0.62398339
-0.0099360458
-0.62220527
-0.0095330019
-0.62056911
-0.0089216331
-0.61909602
-0.008168175
-0.61779287
-0.0073373696
-0.61665793
-0.0064769552
-0.61568291
-0.0056248257
-0.61485631
-0.0048052238
-0.6141651
-0.0040334055
-0.61359635
-0.003316195
-0.61313817
-0.0026548577
-0.61278036
-0.0020464018
-0.61251507
-0.0014852069
-0.61233736
-0.00096358389
-0.00047422371
-0.61669706
0.0023050909
-0.61695332
0.0023904726
-0.61721684
0.0024845132
-0.61750146
0.0026637928
-0.61781636
0.0028967568
-0.61817242
0.003199416
-0.6185805
0.0035675245
-0.61905239
0.0040047555
-0.61960045
0.0045093467
-0.62023751
0.0050783101
-0.62097628
0.0057037893
-0.62182842
0.0063725154
-0.62280323
0.0070638302
-0.62390588
0.0077485724
-0.6251352
0.0083883038
-0.62648145
0.0089359322
-0.62792448
0.0093381947
-0.62943231
0.0095387275
-0.63096253
0.0094869058
-0.63246365
0.0091400711
-0.63387818
0.0084698325
-0.63514488
0.0074619751
-0.63620226
0.0061206394
-0.63699035
0.0044655804
-0.63745549
0.0025392546
-0.63755336
0.00040282781
-0.63725319
-0.0018617347
-0.63654173
-0.0041544961
-0.6354297
-0.0063563227
-0.63395467
-0.0083413032
-0.63218375
-0.0099847061
-0.63020605
-0.011192416
-0.62812434
-0.011909275
-0.62603952
-0.012137861
-0.62403033
-0.011945229
-0.62215846
-0.011404879
-0.62045832
-0.010621773
-0.61894823
-0.0096782626
-0.6176298
-0.0086557976
-0.61649604
-0.0076107195
-0.61553343
-0.0065874346
-0.61472615
-0.0056125031
-0.61405766
-0.0047018955
-0.61351244
-0.0038614091
-0.61307677
-0.0030905323
-0.61273928
-0.0023838869
-0.6124914
-0.0017330922
-0.61232754
-0.0011274398
-0.00055681629
-0.61688864
0.0025033271
-0.61709846
0.0026002875
-0.61732814
0.0027141927
-0.617583
0.0029186556
-0.61787118
0.0031849384
-0.6182022
0.0035304349
-0.61858684
0.003952165
-0.6190373
0.0044552116
-0.61956697
0.0050390222
-0.62019031
0.0057016454
-0.62092223
0.0064357063
-0.62177722
0.007227507
-0.62276788
0.0080544917
-0.62390286
0.008883551
-0.6251842
0.0096696472
-0.62660437
0.010356102
-0.62814384
0.010877665
-0.62976856
0.01116345
-0.63143224
0.011150584
-0.63307763
0.010785464
-0.63464061
0.010032811
-0.63605232
0.0088736783
-0.63724344
0.0073117609
-0.638145
0.0053671472
-0.6386947
0.0030889539
-0.63883987
0.00054799881
-0.63854239
-0.0021592179
-0.63778304
-0.0049138447
-0.63657007
-0.0075692953
-0.6349436
-0.0099677721
-0.63298198
-0.011946331
-0.63079193
-0.013382459
-0.62849913
-0.01420208
-0.62622702
-0.014409971
-0.6240646
-0.014107647
-0.62208061
-0.013388864
-0.62030672
-0.012395668
-0.61875691
-0.011228072
-0.61742528
-0.0099874279
-0.61629787
-0.0087381338
-0.61535447
-0.0075308323
-0.61457389
-0.0063930836
-0.61393531
-0.0053404675
-0.61342012
-0.0043766066
-0.61301232
-0.0034983282
-0.61269903
-0.0026971799
-0.61247052
-0.0019616046
-0.61232031
-0.0012776495
-0.00063232278
-0.61719224
0.0027028583
-0.61739725
0.0028052923
-0.61760526
0.0029222057
-0.61783193
0.0031453291
-0.61808597
0.0034389761
-0.6183787
0.0038231606
-0.61872174
0.0042952123
-0.61912851
0.0048619767
-0.61961403
0.0055245376
-0.62019511
0.006282726
-0.62088995
0.0071305477
-0.62171729
0.0080548469
-0.62269482
0.0090320258
-0.62383679
0.010025518
-0.62515061
0.010983467
-0.62663281
0.011838301
-0.62826575
0.01251061
-0.63001325
0.012910951
-0.63182444
0.012961773
-0.63363506
0.012596078
-0.63537312
0.011770873
-0.63696081
0.010461368
-0.63832001
0.0086709592
-0.63937086
0.0064180034
-0.64004038
0.0037584749
-0.64026478
0.00077239114
-0.63999437
-0.0024296288
-0.63919823
-0.005709981
-0.63787836
-0.0088891613
-0.63607627
-0.011769868
-0.63388508
-0.014137516
-0.63143528
-0.015832259
-0.62888439
-0.016752971
-0.62638798
-0.016906381
-0.6240462
-0.01644943
-0.62193639
-0.01549867
-0.6200843
-0.014247764
-0.61849739
-0.012814977
-0.61715931
-0.011325509
-0.61604714
-0.0098503044
-0.61513241
-0.0084455657
-0.6143876
-0.0071378892
-0.6137871
-0.0059409725
-0.61330891
-0.0048547951
-0.61293479
-0.0038724482
-0.61265037
-0.0029815965
-0.61244495
-0.0021670225
-0.61231127
-0.0014113373
-0.0006986389
-0.61742256
0.0028302206
-0.61756181
0.0029445417
-0.61772238
0.0030827689
-0.61790654
0.0033294986
-0.61812177
0.0036542035
-0.61837729
0.0040786735
-0.61868453
0.0046024602
-0.61905737
0.0052348177
-0.61951218
0.0059793405
-0.62006793
0.00683848
-0.62074596
0.0078085791
-0.62156915
0.0088780342
-0.62256027
0.010023148
-0.62373929
0.011204535
-0.62511926
0.012363438
-0.62670098
0.013420026
-0.62846881
0.014278434
-0.63038304
0.014825187
-0.63238676
0.01496549
-0.63440675
0.014616065
-0.63636165
0.013725775
-0.63816287
0.012262587
-0.63972219
0.010230282
-0.64094611
0.0076419195
-0.64174883
0.0045612021
-0.64205398
0.0010775345
-0.64180014
-0.0026834661
-0.6409444
-0.0065657197
-0.63948156
-0.010351999
-0.63745239
-0.013799037
-0.63496735
-0.016622564
-0.63218608
-0.018613529
-0.62930867
-0.019630376
-0.62653627
-0.019678781
-0.62397908
-0.01900662
-0.62172487
-0.017752879
-0.61978824
-0.016184397
-0.61816708
-0.014436135
-0.61683054
-0.012662051
-0.61574421
-0.010936637
-0.61486934
-0.0093204293
-0.61417097
-0.0078362648
-0.61361793
-0.006494009
-0.61318455
-0.0052881757
-0.61285014
-0.0042068561
-0.61259883
-0.0032329123
-0.61241895
-0.0023469025
-0.61230262
-0.0015276648
-0.00075630876
-0.61779668
0.0029682133
-0.61793836
0.0030862255
-0.61807785
0.0032222622
-0.61823205
0.0034836925
-0.61840889
0.0038310429
-0.61861957
0.0042893621
-0.61887605
0.0048589413
-0.61919302
0.0055517817
-0.61958818
0.006374499
-0.62008292
0.0073332201
-0.62070241
0.0084280694
-0.62147515
0.0096507809
-0.62243146
0.01097945
-0.6236004
0.01237348
-0.62500479
0.013767824
-0.62665368
0.015068915
-0.62853684
0.016161598
-0.63061117
0.016899513
-0.63281286
0.017167187
-0.63505774
0.016860944
-0.63725361
0.015921647
-0.63929944
0.014308411
-0.64109709
0.012027937
-0.64253755
0.0090823806
-0.64352122
0.0055448714
-0.64395701
0.0015133174
-0.64376559
-0.0028748796
-0.64287938
-0.0074519278
-0.64127567
-0.011955716
-0.63898856
-0.016086147
-0.6361515
-0.019459618
-0.6329639
-0.021801128
-0.62968651
-0.022907767
-0.6265889
-0.022776397
-0.62378691
-0.021808609
-0.62138076
-0.020159024
-0.61936518
-0.018199983
-0.61772405
-0.016077262
-0.61640672
-0.01397938
-0.61536446
-0.011978902
-0.61454632
-0.01013857
-0.61390903
-0.0084735462
-0.61341568
-0.0069873641
-0.61303697
-0.0056668845
-0.61275004
-0.0044937853
-0.61253779
-0.003445166
-0.61238786
-0.0024968256
-0.61229195
-0.00162358
-0.00080345742
-0.61804677
0.0030128102
-0.61810175
0.0031412018
-0.61817834
0.0032988512
-0.61827459
0.0035799505
-0.61839685
0.0039533036
-0.61855334
0.0044458533
-0.61875564
0.0050612324
-0.61901886
0.0058150092
-0.61936238
0.0067180147
-0.61981042
0.0077812593
-0.62039248
0.0090101278
-0.6211431
0.010401403
-0.62210043
0.011936777
-0.62330297
0.013576027
-0.6247836
0.015248454
-0.62655962
0.016844928
-0.62862647
0.018228451
-0.63093371
0.019206757
-0.63340737
0.019640846
-0.63594854
0.019402108
-0.6384525
0.018425608
-0.64080372
0.016659633
-0.64289449
0.014118709
-0.64459481
0.010782701
-0.6457865
0.0067365571
-0.64636037
0.0020871921
-0.64621942
-0.0030158345
-0.64527149
-0.0083998527
-0.64347667
-0.013750543
-0.64085584
-0.018706969
-0.63756843
-0.022747028
-0.63386006
-0.025509504
-0.63007276
-0.026695066
-0.62657903
-0.026270129
-0.62348795
-0.024899682
-0.62091533
-0.022731647
-0.61882285
-0.02029246
-0.6171749
-0.017725217
-0.61589427
-0.015260012
-0.6149145
-0.012958663
-0.61417018
-0.010882899
-0.61360875
-0.0090349714
-0.61318716
-0.0074089587
-0.61287256
-0.0059814771
-0.61264015
-0.004726201
-0.61247187
-0.003613438
-0.61235502
-0.0026136761
-0.61228116
-0.0016974466
-0.00083966518
-0.61847374
0.0030787158
-0.61854089
0.0032083578
-0.61860029
0.0033582461
-0.61866887
0.003648531
-0.61875313
0.0040375652
-0.61886314
0.0045558679
-0.61901017
0.0052082567
-0.61920917
0.0060140084
-0.61947971
0.0069885565
-0.61984744
0.0081489905
-0.62034523
0.0095079186
-0.62101387
0.011070046
-0.62190142
0.012824319
-0.62306034
0.014734952
-0.6245407
0.01672881
-0.62637628
0.01868051
-0.62857753
0.020429703
-0.63108693
0.021716154
-0.63381959
0.022373511
-0.63665845
0.022240966
-0.63948463
0.021251783
-0.64216465
0.019339654
-0.64458388
0.016537942
-0.64658778
0.012786601
-0.64804204
0.0081908118
-0.64882437
0.0028695267
-0.64881686
-0.0030233435
-0.64787626
-0.0093404586
-0.64591725
-0.015709548
-0.64292501
-0.021699214
-0.63909391
-0.026578123
-0.63473403
-0.029869386
-0.63030723
-0.031121867
-0.62635172
-0.03022564
-0.62294289
-0.028308513
-0.6202143
-0.025460235
-0.61807265
-0.022434107
-0.61645422
-0.019343647
-0.61524646
-0.01646777
-0.61436166
-0.013843466
-0.61371817
-0.01152639
-0.61325412
-0.0094990194
-0.61292087
-0.0077422085
-0.61268287
-0.006219477
-0.61251416
-0.0048949092
-0.61239649
-0.0037311102
-0.61231731
-0.0026928609
-0.61226844
-0.0017463133
-0.0008633059
-0.61872758
0.0030334095
-0.61868933
0.0031701008
-0.61867035
0.0033392667
-0.61866384
0.0036420226
-0.61867407
0.0040477974
-0.61870708
0.0045888831
-0.61877325
0.0052744185
-0.61888762
0.0061283848
-0.61907145
0.007172386
-0.61935381
0.0084313533
-0.61977337
0.0099274761
-0.62037972
0.011676393
-0.62123325
0.01367785
-0.62240252
0.015904225
-0.62395643
0.018282719
-0.62594515
0.020669228
-0.6283959
0.022880456
-0.63123229
0.024552537
-0.63434972
0.025490941
-0.63760389
0.02549514
-0.64085996
0.024507848
-0.64396479
0.022444485
-0.64680676
0.019379917
-0.64919794
0.015177782
-0.65097752
0.0099703839
-0.65199998
0.0038919935
-0.65212205
-0.0029012707
-0.65114569
-0.010316823
-0.64895042
-0.017904823
-0.64547152
-0.025178108
-0.64094366
-0.031105988
-0.63574161
-0.035071426
-0.63048507
-0.036378414
-0.62597706
-0.034733651
-0.62220269
-0.03208288
-0.61931928
-0.028343644
-0.61714872
-0.024604669
-0.61559026
-0.020902108
-0.61448642
-0.017571611
-0.61372464
-0.014605241
-0.61320537
-0.012045666
-0.6128572
-0.0098471849
-0.61262639
-0.0079730199
-0.61247536
-0.0063705094
-0.61237774
-0.0049925291
-0.61231569
-0.0037931537
-0.61227738
-0.0027311699
-0.61225533
-0.0017683681
-0.00087368472
-0.61917637
0.0030166202
-0.61915835
0.003152083
-0.61912775
0.0033086714
-0.61909942
0.0036136936
-0.61907735
0.0040257264
-0.61906901
0.0045805386
-0.61908337
0.0052887754
-0.61913377
0.0061787937
-0.6192396
0.0072782113
-0.61942881
0.0086205665
-0.61974086
0.010239521
-0.62022974
0.01216528
-0.62096612
0.014414222
-0.62203716
0.016975273
-0.62354029
0.019785849
-0.62555726
0.022686193
-0.62815754
0.025480743
-0.63124565
0.027640647
-0.63469769
0.028942971
-0.63833723
0.029134689
-0.64201501
0.028185626
-0.64554973
0.025979199
-0.64884077
0.022670962
-0.65164765
0.017984661
-0.65378631
0.012109048
-0.65511829
0.0052239683
-0.65550554
-0.0025140248
-0.65465116
-0.011171198
-0.65232424
-0.020231747
-0.64832763
-0.029174713
-0.64294582
-0.036487805
-0.63664861
-0.041368634
-0.63029846
-0.042728563
-0.62515524
-0.039876866
-0.62100398
-0.036234141
-0.61802276
-0.031324871
-0.61589867
-0.026728753
-0.61447734
-0.022323442
-0.61354419
-0.018504762
-0.61295873
-0.015190699
-0.6126039
-0.012400496
-0.61240083
-0.010050255
-0.61229312
-0.008080731
-0.61224336
-0.006420267
-0.61222657
-0.0050093194
-0.61222666
-0.0037930655
-0.61223344
-0.0027243919
-0.61224074
-0.0017610647
-0.00086947464
-0.61942812
0.0028818519
-0.61929544
0.0030193947
-0.61917543
0.0031886642
-0.61905691
0.0034951779
-0.6189406
0.0039094129
-0.61882858
0.0044685225
-0.61872754
0.0051877291
-0.61864946
0.0061007148
-0.61861412
0.0072428713
-0.61865228
0.0086587343
-0.61880991
0.010397144
-0.61915297
0.01250834
-0.61977144
0.015032699
-0.620781
0.017984829
-0.62231709
0.021321941
-0.62449615
0.024865246
-0.62744153
0.028426124
-0.63100318
0.0312023
-0.63501327
0.032953067
-0.6392385
0.033359913
-0.64350926
0.032456385
-0.6476087
0.030078642
-0.65149264
0.026554906
-0.65486366
0.021355677
-0.65750423
0.01474962
-0.65926544
0.0069851795
-0.65997661
-0.0018028553
-0.65919035
-0.011957456
-0.65661279
-0.022809309
-0.65190251
-0.033884991
-0.64542562
-0.042964699
-0.63770661
-0.049087643
-0.62990511
-0.050530063
-0.62404366
-0.045738321
-0.61949063
-0.040787164
-0.61645467
-0.03436083
-0.61443148
-0.028751942
-0.61320145
-0.023553479
-0.61248461
-0.019221599
-0.61211102
-0.015564289
-0.61194716
-0.012564357
-0.6119082
-0.010089213
-0.61193689
-0.0080520459
-0.61199743
-0.0063597203
-0.61206744
-0.0049393125
-0.61213346
-0.0037270441
-0.61218762
-0.0026702324
-0.61222553
-0.0017231573
-0.00085020276
-0.61984278
0.0027718894
-0.61972972
0.0029063308
-0.6196013
0.0030602539
-0.619467
0.0033608763
-0.61932693
0.0037693422
-0.61918412
0.0043257088
-0.61904314
0.0050467492
-0.61891297
0.0059705491
-0.61880927
0.0071391678
-0.61875811
0.0086075739
-0.6188011
0.010440138
-0.61900238
0.012709622
-0.61945639
0.015486703
-0.62029615
0.018824589
-0.62169776
0.022723555
-0.62383099
0.026998471
-0.62694294
0.031538078
-0.63082396
0.035083318
-0.63526453
0.037393639
-0.63996866
0.038064041
-0.64477108
0.037258802
-0.64940788
0.034715447
-0.65392868
0.031075707
-0.65788493
0.025311928
-0.66098102
0.017845704
-0.66312468
0.0091288413
-0.66430015
-0.00062738089
-0.66391223
-0.012345382
-0.66143314
-0.025288402
-0.65607572
-0.039242408
-0.64824588
-0.050794533
-0.63856536
-0.058768165
-0.62868455
-0.060410878
-0.62201851
-0.052404352
-0.6171302
-0.045675474
-0.61420892
-0.037282116
-0.61246402
-0.03049684
-0.61157667
-0.024440828
-0.61119255
-0.019605716
-0.61111342
-0.015643423
-0.6111967
-0.012481081
-0.61135851
-0.0099273967
-0.61154693
-0.0078636306
-0.61173225
-0.0061743946
-0.61189786
-0.0047737114
-0.61203504
-0.0035898645
-0.6121396
-0.0025656699
-0.61220977
-0.0016529854
-0.00081502216
-0.62011028
0.0025572832
-0.61989238
0.0026884291
-0.6196753
0.0028431736
-0.6194456
0.0031311697
-0.61919856
0.0035223094
-0.61893022
0.0040573628
-0.61863983
0.0047563652
-0.61833113
0.0056618505
-0.61801537
0.0068234074
-0.61771625
0.0083084456
-0.61747746
0.010201357
-0.61737398
0.012606137
-0.61752588
0.015638602
-0.61811456
0.019413267
-0.61939782
0.024006814
-0.62162521
0.029225866
-0.62523102
0.035143885
-0.62983864
0.039690944
-0.63512906
0.04268406
-0.64068516
0.043620132
-0.64631992
0.042893565
-0.65165591
0.040051435
-0.65696508
0.036384883
-0.6616782
0.030025046
-0.66546205
0.021629559
-0.66837431
0.012041097
-0.67040522
0.001403526
-0.67043608
-0.012314524
-0.66780798
-0.027916495
-0.66134653
-0.045703857
-0.65176337
-0.060377692
-0.63956538
-0.070966157
-0.62687886
-0.073097397
-0.61948285
-0.059800362
-0.61435621
-0.050802114
-0.6116788
-0.039959534
-0.61031329
-0.031862345
-0.60983703
-0.024917092
-0.60983168
-0.019611058
-0.61007555
-0.015399562
-0.61042391
-0.012132714
-0.6107972
-0.0095541132
-0.61115156
-0.0075092661
-0.611465
-0.0058609516
-0.6117278
-0.0045109144
-0.61193673
-0.0033809363
-0.61209176
-0.0024106365
-0.61219406
-0.0015506923
-0.00076412741
-0.62031776
0.0023448867
-0.62010216
0.0024728347
-0.61987112
0.0026121332
-0.61962466
0.0028847129
-0.61935735
0.003254992
-0.61906563
0.0037656465
-0.6187471
0.0044378315
-0.61840273
0.0053174868
-0.61803939
0.0064600605
-0.61767429
0.0079433546
-0.61734229
0.0098693489
-0.61710755
0.012371399
-0.61708039
0.015611447
-0.61744117
0.01977404
-0.6184858
0.025051449
-0.62051883
0.031258892
-0.62434615
0.038971204
-0.62940102
0.044745821
-0.63525546
0.048538497
-0.6413396
0.049704271
-0.64755531
0.049109276
-0.65343245
0.04592857
-0.65972837
0.042680803
-0.66540621
0.035702895
-0.66980967
0.026033019
-0.67299584
0.015227264
-0.67558476
0.0039924402
-0.6764783
-0.011420984
-0.67476538
-0.029629411
-0.6678937
-0.052575535
-0.65630955
-0.071961845
-0.64037737
-0.086898337
-0.6231712
-0.090303564
-0.61497628
-0.067995283
-0.60997811
-0.05580029
-0.60798024
-0.041957397
-0.60739407
-0.032448513
-0.60761689
-0.024694273
-0.6081872
-0.019040752
-0.60887696
-0.0147098
-0.60956433
-0.011445346
-0.61019128
-0.0089271599
-0.61073472
-0.0069658309
-0.61118825
-0.0054074207
-0.61155399
-0.0041451708
-0.61183712
-0.0030978107
-0.61204346
-0.0022042874
-0.61217807
-0.0014160831
-0.00069740147
-0.62026932
0.0020668525
-0.61998475
0.0021882577
-0.61968447
0.0023118564
-0.61935656
0.0025568073
-0.61898938
0.0028878116
-0.61857117
0.0033474297
-0.61808988
0.0039565438
-0.61753435
0.0047619616
-0.61689644
0.0058221473
-0.61617588
0.0072227931
-0.61538969
0.0090831609
-0.61459019
0.011571898
-0.61389607
0.014917327
-0.61354113
0.019419104
-0.61398499
0.025495305
-0.61572711
0.033001013
-0.62026771
0.043511801
-0.62650768
0.050985796
-0.63369107
0.055721889
-0.64104276
0.057055956
-0.64851225
0.056578769
-0.65520622
0.052622538
-0.66249224
0.049966825
-0.66899473
0.042205382
-0.67375836
0.030796647
-0.67801985
0.019488759
-0.68310733
0.009079915
-0.68579013
-0.0087381819
-0.68461333
-0.030806209
-0.67572381
-0.061465059
-0.6613531
-0.086332549
-0.64097807
-0.10727337
-0.61786205
-0.11341959
-0.6097885
-0.076068832
-0.60542348
-0.060165313
-0.60431581
-0.043065063
-0.60459178
-0.032172545
-0.60551198
-0.023774076
-0.6066404
-0.017912332
-0.60775251
-0.013597689
-0.60875952
-0.010438331
-0.6096247
-0.0080619835
-0.61034558
-0.0062449525
-0.61093039
-0.0048226083
-0.61139246
-0.0036831
-0.61174486
-0.0027454076
-0.61199901
-0.0019501412
-0.61216363
-0.0012514598
-0.00061608419
-0.61843741
0.0017431576
-0.61811352
0.0018643676
-0.6177757
0.001974038
-0.6174104
0.0021915096
-0.61700464
0.0024820528
-0.61654561
0.0028884002
-0.61602028
0.0034312122
-0.61541614
0.0041578196
-0.61472303
0.0051290372
-0.61393732
0.0064370892
-0.61307009
0.0082159249
-0.6121629
0.010664708
-0.61131766
0.014072084
-0.61073448
0.018835924
-0.61087223
0.025633058
-0.61212268
0.034251466
-0.6170723
0.048461421
-0.62402144
0.057934931
-0.63197398
0.063674433
-0.63965679
0.064738763
-0.64736321
0.064285191
-0.65372229
0.058981621
-0.66252951
0.058774047
-0.67082419
0.050500054
-0.67707317
0.037045629
-0.68141501
0.023830603
-0.68615993
0.01382483
-0.68960306
-0.0052950535
-0.69115695
-0.029252315
-0.68433319
-0.068288814
-0.66861651
-0.10204923
-0.64164259
-0.1342473
-0.60798835
-0.14707383
-0.59976805
-0.084289133
-0.59757994
-0.062353417
-0.59849726
-0.042147747
-0.6005562
-0.030113602
-0.60273792
-0.021592351
-0.60475684
-0.015893412
-0.60647212
-0.011882415
-0.60789131
-0.0090191412
-0.609039
-0.0069142844
-0.60995612
-0.0053278351
-0.61067846
-0.0041002724
-0.61123731
-0.0031242511
-0.61165722
-0.002325492
-0.61195697
-0.0016503949
-0.61214986
-0.0010585682
-0.00052099497
-0.61466478
0.0014133862
-0.61432699
0.0015265831
-0.613955
0.0016020477
-0.61354178
0.0017782897
-0.61306864
0.0020089101
-0.6125157
0.0023354617
-0.61185779
0.002773297
-0.61106414
0.003364171
-0.61009693
0.0041618264
-0.60891099
0.005251149
-0.60745637
0.0067613076
-0.60568904
0.008897381
-0.60360861
0.011991655
-0.60131623
0.016543536
-0.59942087
0.023737701
-0.59872946
0.033560056
-0.6045861
0.054318057
-0.61362084
0.066969674
-0.62340984
0.073463435
-0.63269423
0.074023148
-0.64225406
0.073845022
-0.64991625
0.066643817
-0.6600448
0.068902592
-0.66955761
0.060012863
-0.67280632
0.040294345
-0.67555223
0.026576511
-0.68782979
0.02610239
-0.69837696
0.0052521242
-0.70476565
-0.022863632
-0.69144823
-0.081606232
-0.66946022
-0.12403724
-0.63659807
-0.16710944
-0.59325439
-0.19041751
-0.59070524
-0.086838277
-0.59174801
-0.061310651
-0.59429338
-0.03960238
-0.59769024
-0.026716741
-0.60071101
-0.018571579
-0.60334846
-0.013255963
-0.60548709
-0.0097437855
-0.60720862
-0.0072976125
-0.60857003
-0.0055528694
-0.60964022
-0.0042576503
-0.61047221
-0.0032682772
-0.61110952
-0.002486942
-0.61158477
-0.0018502433
-0.61192214
-0.0013130279
-0.61213841
-0.00084229358
-0.00041460744
-0.60889654
0.00097425675
-0.60847743
0.001107476
-0.60804618
0.0011708011
-0.60757183
0.0013039393
-0.60703427
0.0014713479
-0.60640907
0.001710261
-0.60566913
0.0020333553
-0.60478135
0.0024763944
-0.60370624
0.003086712
-0.6023982
0.0039431139
-0.60081039
0.0051734925
-0.59890722
0.0069942167
-0.59671998
0.0098044095
-0.59436961
0.014193168
-0.59257882
0.021946911
-0.59141031
0.032391552
-0.59902652
0.061934268
-0.60982671
0.077769863
-0.62181083
0.085447551
-0.63158271
0.083795033
-0.64170395
0.08396626
-0.64402145
0.068961311
-0.65510458
0.038652635
-0.66330043
0.035304671
-0.67098109
0.018377235
-0.68257306
0.0097964103
-0.69422583
0.021721936
-0.70184476
0.011938453
-0.70207751
-0.0014271425
-0.69549511
-0.051802641
-0.66918108
-0.077814
-0.62603392
-0.095777328
-0.56490415
-0.25154729
-0.56642107
-0.085321352
-0.57744351
-0.050288208
-0.58561998
-0.031425915
-0.5926233
-0.019713421
-0.59771872
-0.013476158
-0.6015363
-0.0094383872
-0.60436735
-0.0069127345
-0.60650051
-0.0051644468
-0.6081175
-0.0039358839
-0.6093508
-0.0030243494
-0.61029032
-0.0023287573
-0.61099979
-0.0017774767
-0.61152371
-0.0013263237
-0.61189317
-0.00094356116
-0.61212905
-0.00060641659
-0.00029870621
-0.59741368
0.00062743842
-0.59708246
0.00077625906
-0.59670242
0.00079075827
-0.59627302
0.00087453993
-0.59577109
0.00096941672
-0.59517128
0.0011104578
-0.5944396
0.0013016766
-0.5935305
0.0015672895
-0.59238115
0.0019373598
-0.59090186
0.0024638219
-0.58896092
0.0032325531
-0.58635285
0.0043861537
-0.5827858
0.0062373587
-0.5776075
0.0090148696
-0.57041284
0.014752245
-0.56099468
0.02297339
-0.57315496
0.038016661
-0.58994566
0.043108181
-0.59541143
0.047122111
-0.58118066
0.042625643
-0.4861439
0.04380777
-0.2020794
0.024239132
0
0
0
0
0
0
0
0
0
0
0
0
0
0
0
0
0
0
-0.2508648
0
-0.51605765
-0.14662945
-0.56674047
-0.034638536
-0.57828352
-0.038745155
-0.58398267
-0.025726766
-0.59145636
-0.012239736
-0.59672584
-0.0082066773
-0.60082544
-0.0053387883
-0.60385397
-0.0038842007
-0.60614076
-0.0028776592
-0.60786864
-0.0022080009
-0.60918273
-0.0017102601
-0.61018053
-0.0013309588
-0.61093181
-0.0010261985
-0.61148523
-0.00077290332
-0.61187473
-0.00055405942
-0.61212304
-0.00035810969
-0.00017683844
-0.42206735
-0.00041651636
-0.42072849
-0.00056259239
-0.41936361
-0.00057412486
-0.41783786
-0.00065120381
-0.41613108
-0.0007373644
-0.414154
-0.0008666267
-0.41180923
-0.0010430876
-0.40895156
-0.0012903861
-0.40537609
-0.0016381096
-0.40077486
-0.0021374069