/*--------------------------------*- C++ -*----------------------------------*\
| =========                 |                                                 |
| \\      /  F ield         | foam-extend: Open Source CFD                    |
|  \\    /   O peration     | Version:     4.1                                |
|   \\  /    A nd           | Web:         http://www.foam-extend.org         |
|    \\/     M anipulation  |                                                 |
\*---------------------------------------------------------------------------*/
FoamFile
{
    version     2.0;
    format      ascii;
    class       volScalarField;
    location    "0.04";
    object      rAU;
}
// * * * * * * * * * * * * * * * * * * * * * * * * * * * * * * * * * * * * * //

dimensions      [0 0 1 0 0 0 0];

internalField   nonuniform List<scalar> 
4393
(
4.4622741e-05
4.4617254e-05
4.461221e-05
4.4606888e-05
4.4601283e-05
4.4595336e-05
4.4588963e-05
4.45821e-05
4.4574686e-05
4.4566665e-05
4.4557995e-05
4.4548652e-05
4.453864e-05
4.4527993e-05
4.451678e-05
4.4505143e-05
4.4493229e-05
4.4481253e-05
4.4469481e-05
4.4458201e-05
4.4447727e-05
4.4438379e-05
4.4430468e-05
4.4424276e-05
4.442004e-05
4.4417935e-05
4.4417935e-05
4.4418049e-05
4.4420385e-05
4.4424844e-05
4.4431211e-05
4.4439182e-05
4.4448376e-05
4.4458376e-05
4.4468757e-05
4.4479128e-05
4.4489146e-05
4.449854e-05
4.4507111e-05
4.4514729e-05
4.4521324e-05
4.4526873e-05
4.4531391e-05
4.4534917e-05
4.4537507e-05
4.4539227e-05
4.4540144e-05
4.4539965e-05
4.453827e-05
4.4509557e-05
4.450564e-05
4.450276e-05
4.4499479e-05
4.4495922e-05
4.4491948e-05
4.4487489e-05
4.4482472e-05
4.4476842e-05
4.4470547e-05
4.4463556e-05
4.4455863e-05
4.4447491e-05
4.4438507e-05
4.4429014e-05
4.4419198e-05
4.4409252e-05
4.439944e-05
4.4390072e-05
4.4381475e-05
4.437399e-05
4.4367951e-05
4.4363667e-05
4.4361401e-05
4.4361352e-05
4.4363636e-05
4.4365624e-05
4.4365821e-05
4.4368364e-05
4.4373251e-05
4.4380362e-05
4.4389461e-05
4.4400206e-05
4.4412177e-05
4.4424914e-05
4.443797e-05
4.4450932e-05
4.4463458e-05
4.4475282e-05
4.448622e-05
4.4496155e-05
4.4505033e-05
4.4512846e-05
4.4519618e-05
4.4525394e-05
4.4530232e-05
4.4534179e-05
4.4536866e-05
4.4538114e-05
4.4502573e-05
4.4498896e-05
4.4496061e-05
4.4492767e-05
4.4489141e-05
4.4485033e-05
4.4480376e-05
4.4475095e-05
4.4469135e-05
4.4462447e-05
4.4455008e-05
4.4446822e-05
4.4437934e-05
4.4428433e-05
4.4418457e-05
4.4408234e-05
4.4398003e-05
4.4388076e-05
4.4378815e-05
4.4370588e-05
4.4363769e-05
4.4358712e-05
4.4355731e-05
4.4355078e-05
4.435692e-05
4.4361323e-05
4.4360736e-05
4.4358713e-05
4.435923e-05
4.4362391e-05
4.4368167e-05
4.4376374e-05
4.4386686e-05
4.4398658e-05
4.4411768e-05
4.4425492e-05
4.4439333e-05
4.4452873e-05
4.4465776e-05
4.4477808e-05
4.4488814e-05
4.4498714e-05
4.4507487e-05
4.4515152e-05
4.4521753e-05
4.4527352e-05
4.4532003e-05
4.4535735e-05
4.4538154e-05
4.4499499e-05
4.4496044e-05
4.4493199e-05
4.4489802e-05
4.4485994e-05
4.4481624e-05
4.4476628e-05
4.4470927e-05
4.4464469e-05
4.4457204e-05
4.4449115e-05
4.4440216e-05
4.4430566e-05
4.4420279e-05
4.4409526e-05
4.4398578e-05
4.4387727e-05
4.4377343e-05
4.4367844e-05
4.4359654e-05
4.435319e-05
4.4348841e-05
4.4346937e-05
4.434773e-05
4.4351364e-05
4.4357863e-05
4.4354716e-05
4.4350388e-05
4.4348846e-05
4.4350306e-05
4.4354833e-05
4.4362296e-05
4.4372372e-05
4.438457e-05
4.4398282e-05
4.441289e-05
4.4427793e-05
4.4442491e-05
4.4456577e-05
4.4469768e-05
4.4481874e-05
4.44928e-05
4.4502515e-05
4.4511038e-05
4.4518418e-05
4.4524722e-05
4.4530013e-05
4.4534337e-05
4.4537231e-05
4.4496068e-05
4.4492663e-05
4.4489791e-05
4.4486325e-05
4.4482391e-05
4.447783e-05
4.4472575e-05
4.4466538e-05
4.445966e-05
4.4451887e-05
4.44432e-05
4.4433615e-05
4.4423201e-05
4.4412092e-05
4.4400488e-05
4.4388703e-05
4.4377086e-05
4.4366072e-05
4.4356146e-05
4.4347797e-05
4.4341501e-05
4.433769e-05
4.4336722e-05
4.4338861e-05
4.4344241e-05
4.4352853e-05
4.4347242e-05
4.4340431e-05
4.4336707e-05
4.4336419e-05
4.4339736e-05
4.4346576e-05
4.4356611e-05
4.4369279e-05
4.438385e-05
4.4399591e-05
4.441577e-05
4.44318e-05
4.4447196e-05
4.446163e-05
4.4474886e-05
4.4486859e-05
4.4497518e-05
4.4506893e-05
4.4515044e-05
4.4522052e-05
4.4527998e-05
4.453295e-05
4.453643e-05
4.4492706e-05
4.4489523e-05
4.4486743e-05
4.4483253e-05
4.4479203e-05
4.4474435e-05
4.4468885e-05
4.4462458e-05
4.4455092e-05
4.4446727e-05
4.4437339e-05
4.4426945e-05
4.4415621e-05
4.4403519e-05
4.4390869e-05
4.4378032e-05
4.4365417e-05
4.4353536e-05
4.4342954e-05
4.4334239e-05
4.4327933e-05
4.4324526e-05
4.4324414e-05
4.4327885e-05
4.4335068e-05
4.4345928e-05
4.4338081e-05
4.4328633e-05
4.4322625e-05
4.4320561e-05
4.4322732e-05
4.4329116e-05
4.4339368e-05
4.4352825e-05
4.4368588e-05
4.4385777e-05
4.4403503e-05
4.4421077e-05
4.4437934e-05
4.4453707e-05
4.446816e-05
4.448119e-05
4.4492777e-05
4.4502966e-05
4.4511841e-05
4.4519503e-05
4.4526059e-05
4.4531608e-05
4.4535696e-05
4.4488926e-05
4.4485737e-05
4.4482963e-05
4.4479457e-05
4.4475351e-05
4.4470472e-05
4.4464741e-05
4.4458054e-05
4.4450332e-05
4.4441502e-05
4.4431526e-05
4.442041e-05
4.4408226e-05
4.4395133e-05
4.4381387e-05
4.4367394e-05
4.4353627e-05
4.4340689e-05
4.4329237e-05
4.4319933e-05
4.4313403e-05
4.4310208e-05
4.4310794e-05
4.431549e-05
4.4324437e-05
4.4337581e-05
4.4327698e-05
4.4315267e-05
4.4306705e-05
4.4302699e-05
4.4303701e-05
4.430975e-05
4.4320475e-05
4.4335071e-05
4.4352396e-05
4.4371393e-05
4.4390966e-05
4.4410323e-05
4.4428806e-05
4.4446023e-05
4.4461727e-05
4.447583e-05
4.4488333e-05
4.4499311e-05
4.4508874e-05
4.4517152e-05
4.452428e-05
4.4530386e-05
4.4535041e-05
4.4485422e-05
4.4482557e-05
4.4479994e-05
4.4476557e-05
4.4472424e-05
4.4467417e-05
4.4461462e-05
4.4454441e-05
4.4446263e-05
4.443684e-05
4.4426116e-05
4.4414085e-05
4.4400812e-05
4.4386461e-05
4.4371312e-05
4.4355823e-05
4.4340543e-05
4.4326184e-05
4.4313514e-05
4.4303313e-05
4.4296302e-05
4.4293131e-05
4.429431e-05
4.4300227e-05
4.431104e-05
4.4326692e-05
4.4315224e-05
4.4299549e-05
4.4288224e-05
4.4282166e-05
4.4282033e-05
4.428795e-05
4.4299515e-05
4.4315732e-05
4.433511e-05
4.4356379e-05
4.4378176e-05
4.4399602e-05
4.4419903e-05
4.4438677e-05
4.4455679e-05
4.4470856e-05
4.4484244e-05
4.4495959e-05
4.4506151e-05
4.4514986e-05
4.4522632e-05
4.452925e-05
4.4534441e-05
4.448145e-05
4.4478531e-05
4.4475983e-05
4.447257e-05
4.4468444e-05
4.4463403e-05
4.4457353e-05
4.4450158e-05
4.4441705e-05
4.4431878e-05
4.4420592e-05
4.4407811e-05
4.4393576e-05
4.4378037e-05
4.4361485e-05
4.4344422e-05
4.4327477e-05
4.4311492e-05
4.4297366e-05
4.4286019e-05
4.4278286e-05
4.4274924e-05
4.4276515e-05
4.4283527e-05
4.4296154e-05
4.4314352e-05
4.4301694e-05
4.4282192e-05
4.4267607e-05
4.425915e-05
4.4257767e-05
4.4263686e-05
4.4276471e-05
4.4294859e-05
4.4316844e-05
4.4340911e-05
4.4365338e-05
4.4389135e-05
4.4411441e-05
4.4431872e-05
4.4450203e-05
4.4466437e-05
4.4480664e-05
4.4493053e-05
4.4503801e-05
4.4513118e-05
4.4521207e-05
4.4528262e-05
4.4533915e-05
4.4478046e-05
4.4475605e-05
4.4473409e-05
4.4470186e-05
4.4466151e-05
4.4461098e-05
4.4454934e-05
4.4447505e-05
4.4438673e-05
4.4428292e-05
4.4416243e-05
4.4402452e-05
4.4386928e-05
4.4369807e-05
4.4351388e-05
4.4332225e-05
4.4313045e-05
4.4294862e-05
4.4278737e-05
4.4265761e-05
4.4256905e-05
4.4253051e-05
4.4254862e-05
4.4262929e-05
4.427749e-05
4.4298534e-05
4.4285524e-05
4.4261784e-05
4.4243577e-05
4.4232473e-05
4.4229823e-05
4.4236011e-05
4.4250585e-05
4.4271939e-05
4.4297282e-05
4.4324845e-05
4.435242e-05
4.4378959e-05
4.4403488e-05
4.4425684e-05
4.4445367e-05
4.4462626e-05
4.4477625e-05
4.4490605e-05
4.4501822e-05
4.4511534e-05
4.4519986e-05
4.4527408e-05
4.4533457e-05
4.4474075e-05
4.4471521e-05
4.4469324e-05
4.4466151e-05
4.4462175e-05
4.4457159e-05
4.4450989e-05
4.4443484e-05
4.4434478e-05
4.4423783e-05
4.4411234e-05
4.4396698e-05
4.438013e-05
4.4361613e-05
4.4341428e-05
4.432016e-05
4.4298623e-05
4.4278046e-05
4.425968e-05
4.4244827e-05
4.4234602e-05
4.423004e-05
4.4231877e-05
4.4240866e-05
4.4257296e-05
4.4281199e-05
4.4268602e-05
4.4239677e-05
4.4216975e-05
4.4202558e-05
4.4198365e-05
4.420498e-05
4.4221961e-05
4.4247244e-05
4.4276798e-05
4.4308638e-05
4.4339886e-05
4.4369517e-05
4.4396438e-05
4.4420451e-05
4.4441452e-05
4.4459656e-05
4.4475319e-05
4.4488773e-05
4.450034e-05
4.4510334e-05
4.4519043e-05
4.452673e-05
4.4533083e-05
4.4471005e-05
4.4469108e-05
4.4467426e-05
4.4464596e-05
4.4460873e-05
4.4456018e-05
4.4449914e-05
4.4442356e-05
4.4433141e-05
4.4422029e-05
4.4408792e-05
4.4393224e-05
4.4375203e-05
4.4354752e-05
4.4332122e-05
4.4307943e-05
4.4283138e-05
4.4259251e-05
4.4237773e-05
4.4220278e-05
4.4208038e-05
4.4202267e-05
4.420375e-05
4.4213489e-05
4.4231846e-05
4.4258934e-05
4.4248264e-05
4.4213535e-05
4.4185736e-05
4.4167496e-05
4.4161622e-05
4.4169005e-05
4.4189326e-05
4.4219967e-05
4.4254906e-05
4.4292091e-05
4.4327695e-05
4.4360864e-05
4.4390381e-05
4.4416269e-05
4.4438543e-05
4.4457591e-05
4.4473792e-05
4.4487585e-05
4.449937e-05
4.4509524e-05
4.4518377e-05
4.4526231e-05
4.4532796e-05
4.4467272e-05
4.4465197e-05
4.446348e-05
4.4460714e-05
4.4457086e-05
4.4452329e-05
4.4446301e-05
4.4438771e-05
4.4429499e-05
4.4418198e-05
4.440457e-05
4.4388323e-05
4.4369227e-05
4.4347195e-05
4.4322388e-05
4.4295433e-05
4.4267307e-05
4.4239971e-05
4.4215183e-05
4.4194851e-05
4.4180399e-05
4.4173261e-05
4.4174211e-05
4.4184615e-05
4.4204873e-05
4.4235133e-05
4.4227862e-05
4.4185817e-05
4.4151389e-05
4.4128019e-05
4.4119856e-05
4.4128182e-05
4.4152931e-05
4.4190813e-05
4.4232472e-05
4.4276178e-05
4.4316755e-05
4.4353794e-05
4.4385965e-05
4.4413647e-05
4.4437029e-05
4.4456725e-05
4.4473261e-05
4.4487201e-05
4.449903e-05
4.4509187e-05
4.4518047e-05
4.4525943e-05
4.4532608e-05
4.4464743e-05
4.4463493e-05
4.4462457e-05
4.4460212e-05
4.4457046e-05
4.4452694e-05
4.4447013e-05
4.443974e-05
4.4430588e-05
4.4419193e-05
4.4405156e-05
4.4388052e-05
4.43675e-05
4.4343253e-05
4.4315346e-05
4.428441e-05
4.4251477e-05
4.421919e-05
4.4189674e-05
4.4165294e-05
4.4147607e-05
4.4138307e-05
4.4137993e-05
4.4148599e-05
4.4170575e-05
4.4204164e-05
4.4202961e-05
4.4152672e-05
4.4110642e-05
4.4081118e-05
4.4070235e-05
4.4079848e-05
4.4110578e-05
4.4158537e-05
4.420873e-05
4.4260586e-05
4.4306961e-05
4.4348329e-05
4.4383256e-05
4.4412664e-05
4.4436979e-05
4.4457111e-05
4.4473766e-05
4.448765e-05
4.4499339e-05
4.4509337e-05
4.4518061e-05
4.4525873e-05
4.4532526e-05
4.4461551e-05
4.4460085e-05
4.4458989e-05
4.4456818e-05
4.4453776e-05
4.4449571e-05
4.4444039e-05
4.4436891e-05
4.4427807e-05
4.4416372e-05
4.4402102e-05
4.4384454e-05
4.4362882e-05
4.4336928e-05
4.4306407e-05
4.427185e-05
4.4234147e-05
4.4196903e-05
4.4162611e-05
4.4134192e-05
4.411323e-05
4.4101776e-05
4.4100013e-05
4.4110874e-05
4.4134781e-05
4.417181e-05
4.4179547e-05
4.4118686e-05
4.40663e-05
4.4027897e-05
4.4012921e-05
4.4023904e-05
4.406264e-05
4.4124842e-05
4.4185651e-05
4.4247383e-05
4.4300096e-05
4.4345902e-05
4.4383328e-05
4.4414088e-05
4.4438928e-05
4.4459115e-05
4.4475551e-05
4.4489093e-05
4.4500404e-05
4.4510044e-05
4.4518464e-05
4.4526047e-05
4.4532559e-05
4.4459691e-05
4.4459142e-05
4.4458852e-05
4.4457377e-05
4.4455031e-05
4.4451537e-05
4.4446737e-05
4.4440319e-05
4.4431911e-05
4.4421008e-05
4.4406984e-05
4.4389088e-05
4.436649e-05
4.4338383e-05
4.4304206e-05
4.4264353e-05
4.4219397e-05
4.417467e-05
4.4133225e-05
4.4098825e-05
4.4072991e-05
4.4058281e-05
4.405381e-05
4.4064027e-05
4.4089176e-05
4.412907e-05
4.4150198e-05
4.4077244e-05
4.4013009e-05
4.3963721e-05
4.3943599e-05
4.3955936e-05
4.4005158e-05
4.4087865e-05
4.4161914e-05
4.4235885e-05
4.4295729e-05
4.4346261e-05
4.4386028e-05
4.441783e-05
4.4442822e-05
4.4462702e-05
4.4478597e-05
4.4491519e-05
4.4502219e-05
4.4511305e-05
4.4519255e-05
4.4526467e-05
4.4532712e-05
4.4457478e-05
4.4456757e-05
4.4456434e-05
4.4455072e-05
4.4452896e-05
4.4449613e-05
4.4445042e-05
4.4438855e-05
4.443065e-05
4.4419872e-05
4.4405811e-05
4.4387571e-05
4.4364101e-05
4.4334257e-05
4.4297008e-05
4.4252488e-05
4.4200261e-05
4.4148274e-05
4.4100037e-05
4.4060297e-05
4.4030029e-05
4.4012511e-05
4.4004783e-05
4.4014417e-05
4.4041644e-05
4.4085316e-05
4.4125657e-05
4.4037555e-05
4.3956499e-05
4.3890132e-05
4.3861457e-05
4.3874602e-05
4.3938152e-05
4.4051798e-05
4.4142196e-05
4.4230597e-05
4.4297478e-05
4.4352067e-05
4.4393189e-05
4.4425084e-05
4.4449414e-05
4.4468333e-05
4.4483178e-05
4.4495089e-05
4.4504876e-05
4.4513174e-05
4.4520467e-05
4.452715e-05
4.4532991e-05
4.4456232e-05
4.4456365e-05
4.4456865e-05
4.4456304e-05
4.4455019e-05
4.445275e-05
4.4449344e-05
4.4444482e-05
4.4437742e-05
4.4428504e-05
4.4415918e-05
4.4398826e-05
4.4375733e-05
4.4344813e-05
4.4304063e-05
4.4253056e-05
4.4189319e-05
4.41257e-05
4.4066558e-05
4.4018227e-05
4.3980813e-05
4.3959207e-05
4.3946301e-05
4.3954423e-05
4.3982909e-05
4.4027891e-05
4.4083019e-05
4.3987224e-05
4.3886999e-05
4.3799878e-05
4.3760833e-05
4.3773171e-05
4.3854253e-05
4.4014087e-05
4.4123859e-05
4.4229444e-05
4.4303645e-05
4.4362014e-05
4.4403882e-05
4.4435209e-05
4.445828e-05
4.447573e-05
4.4489115e-05
4.449969e-05
4.4508307e-05
4.451561e-05
4.4522076e-05
4.4528087e-05
4.4533395e-05
4.4456287e-05
4.4456427e-05
4.4457031e-05
4.4456702e-05
4.4455715e-05
4.4453799e-05
4.4450791e-05
4.4446355e-05
4.4440046e-05
4.4431197e-05
4.4418869e-05
4.4401743e-05
4.4378046e-05
4.4345479e-05
4.4301146e-05
4.4244272e-05
4.4168066e-05
4.4093232e-05
4.4024505e-05
4.3970124e-05
4.3927697e-05
4.3904274e-05
4.3884002e-05
4.3889258e-05
4.392005e-05
4.3969527e-05
4.4031884e-05
4.3947394e-05
4.3820273e-05
4.3697104e-05
4.3637569e-05
4.3645158e-05
4.3750613e-05
4.3985512e-05
4.4119027e-05
4.424276e-05
4.4321976e-05
4.438126e-05
4.4421362e-05
4.4450133e-05
4.4470518e-05
4.448549e-05
4.4496721e-05
4.4505477e-05
4.4512584e-05
4.4518644e-05
4.4524095e-05
4.452928e-05
4.4533925e-05
4.4458351e-05
4.4459063e-05
4.4460336e-05
4.4460774e-05
4.4460741e-05
4.4460018e-05
4.4458509e-05
4.4455945e-05
4.4451954e-05
4.4445924e-05
4.4436916e-05
4.4423467e-05
4.4403371e-05
4.4373349e-05
4.4328307e-05
4.4265894e-05
4.4170028e-05
4.4076423e-05
4.3991258e-05
4.3925396e-05
4.3872383e-05
4.3845339e-05
4.3814295e-05
4.3817948e-05
4.3855675e-05
4.3906102e-05
4.3953575e-05
4.3896221e-05
4.3735723e-05
4.3569724e-05
4.3490131e-05
4.348585e-05
4.3614644e-05
4.3963183e-05
4.4120506e-05
4.4262798e-05
4.4346189e-05
4.4405118e-05
4.4442498e-05
4.4467824e-05
4.4484862e-05
4.4496832e-05
4.4505519e-05
4.4512158e-05
4.451753e-05
4.4522172e-05
4.4526465e-05
4.4530702e-05
4.453457e-05
4.4475045e-05
4.447612e-05
4.4477816e-05
4.4478769e-05
4.4479353e-05
4.4479357e-05
4.4478693e-05
4.44771e-05
4.4474195e-05
4.4469328e-05
4.4461471e-05
4.4448964e-05
4.4429206e-05
4.4398274e-05
4.4349304e-05
4.4280501e-05
4.4159528e-05
4.404726e-05
4.3948967e-05
4.3879384e-05
4.3823754e-05
4.3805295e-05
4.375811e-05
4.3754025e-05
4.3793588e-05
4.3847116e-05
4.3890735e-05
4.389337e-05
4.3697563e-05
4.3452801e-05
4.3316894e-05
4.3277704e-05
4.3434372e-05
4.397711e-05
4.4164604e-05
4.431567e-05
4.4394202e-05
4.4444256e-05
4.4473364e-05
4.4491541e-05
4.4502983e-05
4.451057e-05
4.4515877e-05
4.4519884e-05
4.4523193e-05
4.4526199e-05
4.4529177e-05
4.4532342e-05
4.4535325e-05
4.4507492e-05
4.4508681e-05
4.451076e-05
4.4512312e-05
4.4513752e-05
4.4514923e-05
4.4515836e-05
4.4516368e-05
4.4516336e-05
4.4515368e-05
4.4512797e-05
4.4507395e-05
4.4496879e-05
4.4477306e-05
4.4438528e-05
4.4375982e-05
4.4218417e-05
4.4074072e-05
4.3953693e-05
4.3873834e-05
4.3803801e-05
4.3785699e-05
4.3709718e-05
4.3700248e-05
4.3778379e-05
4.3858819e-05
4.3841339e-05
4.3866564e-05
4.3642463e-05
4.3298964e-05
4.3146136e-05
4.3070211e-05
4.3219456e-05
4.4027577e-05
4.4218327e-05
4.4368774e-05
4.4443649e-05
4.448419e-05
4.4505408e-05
4.4516297e-05
4.4522045e-05
4.4525085e-05
4.4526871e-05
4.4528119e-05
4.4529262e-05
4.4530543e-05
4.4532129e-05
4.4534148e-05
4.4536169e-05
4.4555884e-05
4.4557784e-05
4.4560611e-05
4.456298e-05
4.4565412e-05
4.4567794e-05
4.4570195e-05
4.4572556e-05
4.4574762e-05
4.4576501e-05
4.4577119e-05
4.4575267e-05
4.4568057e-05
4.4550565e-05
4.4507683e-05
4.4439198e-05
4.4216094e-05
4.4033374e-05
4.3890469e-05
4.3810971e-05
4.3734732e-05
4.3772145e-05
3.5423512e-05
3.5319474e-05
3.5249861e-05
3.5166708e-05
3.4926964e-05
3.4833736e-05
3.4771634e-05
3.4969939e-05
3.5247604e-05
3.5743477e-05
4.2975818e-05
4.422863e-05
4.4417386e-05
4.450191e-05
4.4539261e-05
4.4548328e-05
4.4550076e-05
4.4547651e-05
4.4544594e-05
4.4541511e-05
4.4538956e-05
4.453702e-05
4.4535764e-05
4.4535187e-05
4.4535292e-05
4.4536096e-05
4.4537089e-05
4.4650797e-05
4.4651844e-05
4.4654371e-05
4.4656736e-05
4.4659398e-05
4.4662286e-05
4.4665548e-05
4.4669269e-05
4.4673574e-05
4.4678549e-05
4.4684226e-05
4.4690518e-05
4.4696568e-05
4.4702881e-05
4.4698403e-05
4.4690206e-05
3.6027316e-05
3.6061338e-05
3.603687e-05
3.6209892e-05
3.6736981e-05
3.9777052e-05
4.8052923e-05
4.9995665e-05
4.9995665e-05
4.9995665e-05
4.9995665e-05
4.9995665e-05
4.9981394e-05
4.9482828e-05
4.9229267e-05
4.9055671e-05
3.4930249e-05
4.4626418e-05
4.4502046e-05
4.4560127e-05
4.4607959e-05
4.4598115e-05
4.4588314e-05
4.4575795e-05
4.4565618e-05
4.4557209e-05
4.4550725e-05
4.4545813e-05
4.4542267e-05
4.4539885e-05
4.453853e-05
4.4538114e-05
4.4538057e-05
4.609434e-05
4.6102655e-05
4.6114051e-05
4.6125674e-05
4.6138667e-05
4.6153221e-05
4.6170083e-05
4.6190097e-05
4.621451e-05
4.6245091e-05
4.6284503e-05
4.6336905e-05
4.6408951e-05
4.6512812e-05
4.6664884e-05
3.5716119e-05
4.8511368e-05
4.9995665e-05
4.9995665e-05
4.9995665e-05
4.9995665e-05
4.9995665e-05
4.9995665e-05
4.9995665e-05
4.9995665e-05
4.9995665e-05
4.9995665e-05
4.9995665e-05
4.9995665e-05
4.9995665e-05
4.9995665e-05
4.9995665e-05
4.7255648e-05
3.098448e-05
4.5063904e-05
4.4849426e-05
4.4746372e-05
4.4680715e-05
4.4638421e-05
4.4608922e-05
4.458849e-05
4.4573603e-05
4.4562714e-05
4.4554669e-05
4.4548792e-05
4.4544606e-05
4.4541801e-05
4.4540169e-05
4.4539051e-05
4.4668036e-05
4.4669111e-05
4.4671663e-05
4.4674081e-05
4.4676814e-05
4.4679799e-05
4.4683184e-05
4.4687061e-05
4.4691558e-05
4.4696773e-05
4.4702748e-05
4.4709418e-05
4.4715963e-05
4.4722985e-05
4.471969e-05
4.4713501e-05
3.6057639e-05
3.6091937e-05
3.6069421e-05
3.6241585e-05
3.6771943e-05
3.980523e-05
4.8059744e-05
4.9995665e-05
4.9995665e-05
4.9995665e-05
4.9995665e-05
4.9995665e-05
4.9978905e-05
4.9485448e-05
4.9234308e-05
4.9066887e-05
3.4914505e-05
4.4502481e-05
4.4962081e-05
4.4812204e-05
4.4725958e-05
4.4673875e-05
4.4636333e-05
4.4609677e-05
4.4590298e-05
4.4575869e-05
4.4565017e-05
4.4556824e-05
4.4550682e-05
4.4546169e-05
4.4542999e-05
4.454098e-05
4.453946e-05
4.4572371e-05
4.4574329e-05
4.4577212e-05
4.4579662e-05
4.4582193e-05
4.45847e-05
4.4587255e-05
4.45898e-05
4.4592228e-05
4.4594234e-05
4.4595171e-05
4.45937e-05
4.4586943e-05
4.4569982e-05
4.4527691e-05
4.4460138e-05
4.4235861e-05
4.4052716e-05
4.3909628e-05
4.3829087e-05
4.3752539e-05
4.378838e-05
3.5444539e-05
3.5338305e-05
3.5266934e-05
3.5181652e-05
3.494265e-05
3.4847237e-05
3.4782516e-05
3.4980146e-05
3.5259858e-05
3.5727807e-05
4.287607e-05
4.4076819e-05
4.4557642e-05
4.460932e-05
4.4624377e-05
4.4611207e-05
4.459667e-05
4.458322e-05
4.4572051e-05
4.4563088e-05
4.4555979e-05
4.4550437e-05
4.45462e-05
4.4543085e-05
4.4540961e-05
4.4539751e-05
4.4538879e-05
4.4520768e-05
4.4522029e-05
4.4524189e-05
4.4525848e-05
4.4527416e-05
4.4528742e-05
4.4529843e-05
4.45306e-05
4.4530838e-05
4.4530196e-05
4.4528019e-05
4.4523094e-05
4.4513156e-05
4.4494278e-05
4.4456266e-05
4.4394589e-05
4.4236472e-05
4.4092166e-05
4.3972142e-05
4.3892459e-05
4.3823064e-05
4.3805311e-05
4.3729752e-05
4.3721206e-05
4.3798968e-05
4.3879607e-05
4.3863963e-05
4.3879106e-05
4.3640704e-05
4.3290962e-05
4.3125423e-05
4.3030666e-05
4.3119918e-05
4.3952367e-05
4.4342987e-05
4.4464802e-05
4.4524079e-05
4.45439e-05
4.455076e-05
4.4551116e-05
4.4549159e-05
4.4546449e-05
4.4543755e-05
4.4541421e-05
4.4539593e-05
4.4538343e-05
4.4537708e-05
4.453773e-05
4.4537914e-05
4.4479192e-05
4.4480334e-05
4.4482103e-05
4.448315e-05
4.4483846e-05
4.4483984e-05
4.4483479e-05
4.4482071e-05
4.4479383e-05
4.4474769e-05
4.4467204e-05
4.4455036e-05
4.4435667e-05
4.4405174e-05
4.435666e-05
4.4288398e-05
4.4167313e-05
4.4055146e-05
4.3956985e-05
4.3887398e-05
4.3831971e-05
4.3813465e-05
4.3766277e-05
4.3762726e-05
4.3802774e-05
4.3857575e-05
4.3903489e-05
4.388596e-05
4.3686852e-05
4.3437861e-05
4.3294208e-05
4.3243589e-05
4.3367424e-05
4.3921122e-05
4.4218835e-05
4.4368254e-05
4.4450301e-05
4.4490843e-05
4.4512222e-05
4.4522889e-05
4.4528278e-05
4.4530885e-05
4.4532129e-05
4.4532765e-05
4.4533225e-05
4.4533774e-05
4.4534588e-05
4.4535807e-05
4.4537005e-05
4.4458066e-05
4.4458841e-05
4.4460185e-05
4.4460715e-05
4.4460791e-05
4.4460197e-05
4.4458837e-05
4.4456448e-05
4.4452657e-05
4.4446856e-05
4.4438105e-05
4.4424943e-05
4.4405156e-05
4.4375452e-05
4.433069e-05
4.4268514e-05
4.4172474e-05
4.4078811e-05
4.3993612e-05
4.3927686e-05
4.387476e-05
4.3847751e-05
4.3816839e-05
4.3820824e-05
4.3858795e-05
4.3910069e-05
4.3959252e-05
4.3880622e-05
4.3716377e-05
4.3545675e-05
4.3459608e-05
4.3449249e-05
4.3566832e-05
4.3935382e-05
4.4161202e-05
4.4305625e-05
4.439355e-05
4.4445764e-05
4.4477422e-05
4.4496563e-05
4.4508449e-05
4.4515986e-05
4.4520969e-05
4.4524464e-05
4.4527141e-05
4.4529435e-05
4.4531649e-05
4.4534013e-05
4.4536169e-05
4.4453766e-05
4.4453976e-05
4.4454654e-05
4.4454418e-05
4.4453538e-05
4.4451747e-05
4.4448882e-05
4.444461e-05
4.4438487e-05
4.4429847e-05
4.4417753e-05
4.4400882e-05
4.437746e-05
4.4345177e-05
4.4301111e-05
4.424448e-05
4.4168291e-05
4.4093505e-05
4.402481e-05
4.3970451e-05
4.3928149e-05
4.3904875e-05
4.3884939e-05
4.3890857e-05
4.3922537e-05
4.3973462e-05
4.4037944e-05
4.3932338e-05
4.3802457e-05
4.367607e-05
4.3612505e-05
4.3616606e-05
4.3716956e-05
4.3965341e-05
4.4139314e-05
4.4269495e-05
4.4355861e-05
4.4412942e-05
4.4450366e-05
4.4475054e-05
4.4491627e-05
4.4502998e-05
4.4511052e-05
4.4516998e-05
4.4521635e-05
4.4525504e-05
4.4528994e-05
4.4532406e-05
4.4535429e-05
4.4452596e-05
4.4452795e-05
4.4453368e-05
4.4452898e-05
4.4451718e-05
4.4449571e-05
4.4446304e-05
4.4441598e-05
4.4435032e-05
4.4425986e-05
4.4413609e-05
4.4396736e-05
4.4373869e-05
4.4343167e-05
4.4302605e-05
4.4251749e-05
4.4188029e-05
4.4124449e-05
4.4065345e-05
4.4017068e-05
4.3979789e-05
4.3958364e-05
4.3945775e-05
4.3954426e-05
4.3983668e-05
4.4029908e-05
4.4077609e-05
4.3970387e-05
4.3867986e-05
4.377868e-05
4.3737654e-05
4.3749585e-05
4.3831342e-05
4.4003349e-05
4.4138814e-05
4.4250784e-05
4.433106e-05
4.4388595e-05
4.4428857e-05
4.4457167e-05
4.4477222e-05
4.4491663e-05
4.4502298e-05
4.4510369e-05
4.4516739e-05
4.4522018e-05
4.4526656e-05
4.4531006e-05
4.4534796e-05
4.4453202e-05
4.4452559e-05
4.4452318e-05
4.4451053e-05
4.4448988e-05
4.4445831e-05
4.4441402e-05
4.4435375e-05
4.4427347e-05
4.4416765e-05
4.4402917e-05
4.4384905e-05
4.4361673e-05
4.4332068e-05
4.4295046e-05
4.4250731e-05
4.4198637e-05
4.4146793e-05
4.4098708e-05
4.4059157e-05
4.4029168e-05
4.4012026e-05
4.4004851e-05
4.4015281e-05
4.4043565e-05
4.4088703e-05
4.4112589e-05
4.4022869e-05
4.394013e-05
4.3872165e-05
4.3842246e-05
4.3855489e-05
4.3920667e-05
4.4043232e-05
4.4150193e-05
4.4244975e-05
4.4317607e-05
4.437292e-05
4.4413682e-05
4.444375e-05
4.4465943e-05
4.4482512e-05
4.4495078e-05
4.4504828e-05
4.4512619e-05
4.4519083e-05
4.4524698e-05
4.4529847e-05
4.4534282e-05
4.4454716e-05
4.445424e-05
4.4454029e-05
4.4452648e-05
4.4450408e-05
4.4447036e-05
4.4442371e-05
4.4436103e-05
4.442786e-05
4.4417134e-05
4.4403301e-05
4.4385604e-05
4.4363211e-05
4.4335306e-05
4.430132e-05
4.4261641e-05
4.4216823e-05
4.4172247e-05
4.413097e-05
4.4096779e-05
4.407123e-05
4.40569e-05
4.4052962e-05
4.4063929e-05
4.4090099e-05
4.4131413e-05
4.4136744e-05
4.4062644e-05
4.3997375e-05
4.3947348e-05
4.3927102e-05
4.3940648e-05
4.3992647e-05
4.4082595e-05
4.4167841e-05
4.4247265e-05
4.4311775e-05
4.4363429e-05
4.4403272e-05
4.4433881e-05
4.445728e-05
4.4475283e-05
4.4489274e-05
4.450033e-05
4.4509265e-05
4.4516703e-05
4.4523128e-05
4.4528935e-05
4.453389e-05
4.4456131e-05
4.4454751e-05
4.4453743e-05
4.4451675e-05
4.4448746e-05
4.4444668e-05
4.4439277e-05
4.4432285e-05
4.4423372e-05
4.4412122e-05
4.4398051e-05
4.4380614e-05
4.4359261e-05
4.4333531e-05
4.4303232e-05
4.4268892e-05
4.4231392e-05
4.4194369e-05
4.4160326e-05
4.4132209e-05
4.4111635e-05
4.4100675e-05
4.4099561e-05
4.4111266e-05
4.4136248e-05
4.4174656e-05
4.4167309e-05
4.4105525e-05
4.4052356e-05
4.4013493e-05
4.399866e-05
4.4010918e-05
4.4052334e-05
4.4120136e-05
4.4188833e-05
4.4255346e-05
4.4312102e-05
4.4359441e-05
4.43974e-05
4.442757e-05
4.4451336e-05
4.44701e-05
4.4484996e-05
4.4496964e-05
4.4506743e-05
4.4514921e-05
4.4521971e-05
4.4528283e-05
4.4533624e-05
4.4458749e-05
4.4457577e-05
4.4456625e-05
4.4454478e-05
4.445142e-05
4.4447189e-05
4.4441641e-05
4.4434515e-05
4.4425521e-05
4.4414297e-05
4.4400442e-05
4.438353e-05
4.4363177e-05
4.4339134e-05
4.4311433e-05
4.4280705e-05
4.4247981e-05
4.4215925e-05
4.4186672e-05
4.4162611e-05
4.4145324e-05
4.4136529e-05
4.413687e-05
4.4148321e-05
4.4171376e-05
4.4206337e-05
4.4191068e-05
4.4140241e-05
4.4097874e-05
4.4068372e-05
4.4058098e-05
4.406926e-05
4.4102649e-05
4.4155092e-05
4.4211008e-05
4.4266808e-05
4.4316468e-05
4.4359357e-05
4.439494e-05
4.4424075e-05
4.4447645e-05
4.446668e-05
4.448208e-05
4.4494635e-05
4.4504999e-05
4.451371e-05
4.4521212e-05
4.4527882e-05
4.453348e-05
4.44609e-05
4.4458916e-05
4.4457293e-05
4.4454632e-05
4.4451118e-05
4.4446488e-05
4.4440598e-05
4.4433219e-05
4.442411e-05
4.4412986e-05
4.4399547e-05
4.4383499e-05
4.4364613e-05
4.4342798e-05
4.4318216e-05
4.4291494e-05
4.4263612e-05
4.4236546e-05
4.4212066e-05
4.4192099e-05
4.4178091e-05
4.4171498e-05
4.4173124e-05
4.4184364e-05
4.4205646e-05
4.4237155e-05
4.4216775e-05
4.4174341e-05
4.4139735e-05
4.4116537e-05
4.4109078e-05
4.4118887e-05
4.414602e-05
4.4187509e-05
4.4233517e-05
4.4280569e-05
4.4323942e-05
4.4362515e-05
4.4395469e-05
4.4423153e-05
4.4446076e-05
4.4464962e-05
4.44805e-05
4.4493338e-05
4.4504035e-05
4.451307e-05
4.4520852e-05
4.4527732e-05
4.4533457e-05
4.4464171e-05
4.4462357e-05
4.4460761e-05
4.4458032e-05
4.4454418e-05
4.4449684e-05
4.4443712e-05
4.4436297e-05
4.4427236e-05
4.4416291e-05
4.4403231e-05
4.4387851e-05
4.4370029e-05
4.4349787e-05
4.4327376e-05
4.430343e-05
4.4278876e-05
4.4255269e-05
4.4234113e-05
4.4217e-05
4.420522e-05
4.420001e-05
4.4202183e-05
4.4212765e-05
4.4232144e-05
4.4260457e-05
4.4237819e-05
4.4202954e-05
4.4175226e-05
4.4157378e-05
4.4152351e-05
4.4161194e-05
4.4183648e-05
4.4217218e-05
4.4255506e-05
4.4295444e-05
4.433335e-05
4.4367915e-05
4.4398206e-05
4.442423e-05
4.4446224e-05
4.4464667e-05
4.448007e-05
4.4492947e-05
4.4503767e-05
4.4512948e-05
4.4520856e-05
4.4527812e-05
4.4533544e-05
4.4466924e-05
4.4464465e-05
4.4462364e-05
4.4459299e-05
4.4455437e-05
4.4450546e-05
4.444451e-05
4.4437151e-05
4.4428302e-05
4.4417776e-05
4.4405406e-05
4.4391063e-05
4.4374697e-05
4.4356394e-05
4.4336437e-05
4.4315412e-05
4.429414e-05
4.4273859e-05
4.425583e-05
4.4241371e-05
4.4231611e-05
4.4227605e-05
4.4230106e-05
4.4239887e-05
4.4257255e-05
4.4282258e-05
4.4258772e-05
4.4229818e-05
4.4207292e-05
4.4193343e-05
4.4190012e-05
4.4197986e-05
4.4216851e-05
4.4244561e-05
4.4276803e-05
4.4310967e-05
4.4344174e-05
4.4375097e-05
4.4402789e-05
4.4427044e-05
4.4447912e-05
4.4465682e-05
4.4480718e-05
4.449342e-05
4.4504171e-05
4.4513328e-05
4.4521214e-05
4.4528115e-05
4.4533737e-05
4.4470528e-05
4.4468174e-05
4.4466068e-05
4.4462947e-05
4.4459022e-05
4.4454089e-05
4.4448055e-05
4.4440766e-05
4.4432085e-05
4.4421866e-05
4.440999e-05
4.4396384e-05
4.4381058e-05
4.4364148e-05
4.4345956e-05
4.432704e-05
4.4308131e-05
4.4290252e-05
4.4274476e-05
4.4261906e-05
4.4253528e-05
4.4250239e-05
4.4252718e-05
4.4261571e-05
4.427705e-05
4.4299147e-05
4.4276405e-05
4.4252783e-05
4.4234875e-05
4.4224321e-05
4.4222543e-05
4.4229986e-05
4.4246205e-05
4.4269569e-05
4.4297074e-05
4.4326564e-05
4.4355773e-05
4.438345e-05
4.4408691e-05
4.4431168e-05
4.4450804e-05
4.4467749e-05
4.4482251e-05
4.4494611e-05
4.4505139e-05
4.4514135e-05
4.4521874e-05
4.4528612e-05
4.4534024e-05
4.4473669e-05
4.4470848e-05
4.4468399e-05
4.4465093e-05
4.4461081e-05
4.4456162e-05
4.4450243e-05
4.4443189e-05
4.4434886e-05
4.442522e-05
4.4414107e-05
4.440151e-05
4.438747e-05
4.4372142e-05
4.4355817e-05
4.4339e-05
4.4322326e-05
4.4306645e-05
4.4292865e-05
4.4281914e-05
4.4274643e-05
4.4271819e-05
4.4274037e-05
4.4281778e-05
4.4295242e-05
4.4314389e-05
4.4293113e-05
4.4273806e-05
4.4259584e-05
4.4251711e-05
4.425118e-05
4.4258256e-05
4.4272492e-05
4.4292584e-05
4.4316364e-05
4.4342064e-05
4.4367886e-05
4.4392697e-05
4.4415665e-05
4.4436401e-05
4.445475e-05
4.4470765e-05
4.4484602e-05
4.4496483e-05
4.4506653e-05
4.4515358e-05
4.4522834e-05
4.4529299e-05
4.4534402e-05
4.4477353e-05
4.4474578e-05
4.4472108e-05
4.4468774e-05
4.4464751e-05
4.4459863e-05
4.4454034e-05
4.444715e-05
4.4439118e-05
4.4429852e-05
4.4419296e-05
4.4407445e-05
4.4394366e-05
4.4380224e-05
4.4365302e-05
4.435006e-05
4.4335056e-05
4.4321005e-05
4.4308687e-05
4.4298887e-05
4.429234e-05
4.4289705e-05
4.4291503e-05
4.4298127e-05
4.4309741e-05
4.4325889e-05
4.430733e-05
4.4291931e-05
4.4281026e-05
4.4275569e-05
4.4276252e-05
4.4283218e-05
4.4296049e-05
4.4313702e-05
4.4334567e-05
4.4357203e-05
4.4380172e-05
4.4402476e-05
4.4423366e-05
4.4442435e-05
4.4459487e-05
4.4474507e-05
4.4487585e-05
4.4498881e-05
4.4508587e-05
4.4516902e-05
4.4524023e-05
4.4530134e-05
4.4534855e-05
4.448064e-05
4.4477551e-05
4.4474877e-05
4.4471477e-05
4.4467483e-05
4.4462722e-05
4.4457119e-05
4.4450566e-05
4.4442988e-05
4.4434312e-05
4.44245e-05
4.4413559e-05
4.4401564e-05
4.4388674e-05
4.4375148e-05
4.4361396e-05
4.4347896e-05
4.4335256e-05
4.432414e-05
4.431522e-05
4.4309129e-05
4.4306436e-05
4.4307597e-05
4.4312946e-05
4.4322626e-05
4.4335535e-05
4.4320314e-05
4.4308215e-05
4.430011e-05
4.4296716e-05
4.4298502e-05
4.4305515e-05
4.4317363e-05
4.4333196e-05
4.435178e-05
4.4371939e-05
4.4392511e-05
4.4412632e-05
4.4431637e-05