/*--------------------------------*- C++ -*----------------------------------*\
| =========                 |                                                 |
| \\      /  F ield         | foam-extend: Open Source CFD                    |
|  \\    /   O peration     | Version:     4.1                                |
|   \\  /    A nd           | Web:         http://www.foam-extend.org         |
|    \\/     M anipulation  |                                                 |
\*---------------------------------------------------------------------------*/
FoamFile
{
    version     2.0;
    format      ascii;
    class       volScalarField;
    location    "2.15";
    object      p;
}
// * * * * * * * * * * * * * * * * * * * * * * * * * * * * * * * * * * * * * //

dimensions      [0 2 -2 0 0 0 0];

internalField   nonuniform List<scalar> 
4393
(
-46.418264
-92.981783
-146.74656
-201.53761
-258.52838
-318.02953
-380.42403
-446.02143
-515.04597
-587.60782
-663.67492
-743.04487
-825.31956
-909.88639
-995.91012
-1082.3382
-1167.9201
-1251.2384
-1330.7461
-1404.8058
-1471.7263
-1529.7971
-1577.3237
-1612.6681
-1634.303
-1640.8852
-1631.3604
-1605.1085
-1562.0229
-1502.6038
-1428.0623
-1340.3039
-1241.8232
-1135.5205
-1024.4764
-911.72573
-800.06777
-691.93521
-589.32516
-493.78581
-406.44458
-328.06256
-259.10029
-199.78363
-150.17393
-110.2402
-79.763123
-57.832181
-43.627885
-45.166099
-92.395962
-146.03397
-200.6738
-257.49544
-316.84181
-379.10947
-444.62005
-513.60966
-586.20049
-662.37212
-741.93219
-824.48964
-909.43438
-995.92794
-1082.9088
-1169.1127
-1253.1058
-1333.3243
-1408.1148
-1475.7715
-1534.5693
-1582.7971
-1618.7952
-1641.0073
-1648.0566
-1638.8537
-1612.7035
-1569.4359
-1509.5439
-1434.2446
-1345.4783
-1245.8053
-1138.2115
-1025.8678
-911.88861
-799.13354
-690.07187
-586.71514
-490.60817
-402.8627
-324.21725
-255.10971
-195.75314
-146.20038
-106.3601
-75.961465
-54.862531
-44.26436
-44.36186
-91.49921
-144.77569
-199.05474
-255.52556
-314.56069
-376.57881
-441.92384
-510.855
-583.51819
-659.91583
-739.87519
-823.01855
-908.73966
-996.19213
-1084.2944
-1171.753
-1257.0994
-1338.7351
-1414.9748
-1484.0841
-1544.3099
-1593.9089
-1631.1783
-1654.501
-1662.4206
-1653.7589
-1627.7378
-1584.0954
-1523.2531
-1446.4219
-1355.6117
-1253.5191
-1143.3089
-1028.3379
-911.88368
-796.9261
-686.00482
-581.15548
-483.91035
-395.34358
-316.14202
-246.68976
-187.15617
-137.55064
-97.687809
-67.257702
-46.702778
-37.92025
-43.571141
-90.203464
-142.87197
-196.57251
-252.4993
-311.05351
-372.68264
-437.76257
-506.58734
-579.33934
-656.05682
-736.59847
-820.60869
-907.48872
-996.38103
-1086.1738
-1175.5277
-1262.9211
-1346.7023
-1425.1385
-1496.4543
-1558.8581
-1610.562
-1649.8026
-1674.8747
-1684.1993
-1676.4521
-1650.704
-1606.5447
-1544.2892
-1465.1353
-1371.199
-1265.3938
-1151.1693
-1032.1786
-911.95587
-793.66695
-679.9573
-572.89532
-473.98945
-384.25259
-304.29088
-234.40459
-174.68788
-125.07511
-85.291278
-55.022092
-34.934143
-26.790019
-42.746007
-88.586043
-140.40158
-193.2978
-248.47657
-306.36988
-367.46072
-432.16647
-500.82776
-573.67691
-650.80193
-732.1061
-817.26609
-905.69512
-996.52094
-1088.5888
-1180.4944
-1270.6402
-1357.3004
-1438.6789
-1512.948
-1578.2699
-1632.8042
-1674.7129
-1702.178
-1713.4587
-1707.0289
-1681.7388
-1636.9528
-1572.8175
-1490.4975
-1392.2535
-1281.3115
-1161.5346
-1037.0025
-911.61315
-788.78882
-671.31359
-561.2901
-460.18287
-368.91147
-287.96531
-217.52569
-157.57753
-107.95354
-68.296486
-38.299634
-18.683276
-10.926868
-41.73743
-86.536855
-137.25302
-189.11394
-243.33032
-300.36935
-360.75678
-424.96179
-493.38462
-566.32271
-643.93047
-726.17205
-812.76995
-903.15656
-996.44193
-1091.4139
-1186.5791
-1280.2365
-1370.5623
-1455.6795
-1533.7001
-1602.7366
-1660.8933
-1706.249
-1736.8499
-1750.7504
-1746.1563
-1721.6149
-1676.1688
-1609.7096
-1523.33
-1419.4771
-1301.8087
-1174.7657
-1043.0177
-910.9545
-782.33304
-660.10532
-546.39992
-442.60506
-349.50296
-267.4195
-196.37213
-136.19497
-86.586599
-47.090326
-17.368579
1.8954706
9.4342925
-40.5955
-84.127139
-133.49114
-184.07002
-237.08785
-293.05292
-352.54151
-416.08536
-484.15845
-557.14055
-635.27194
-718.59789
-806.90476
-899.65502
-995.93923
-1094.4702
-1193.6348
-1291.5937
-1386.3951
-1476.0637
-1558.646
-1632.2096
-1694.81
-1744.4433
-1779.0047
-1796.301
-1794.1935
-1770.8248
-1724.7862
-1655.586
-1564.1761
-1453.232
-1326.9986
-1190.7117
-1049.8412
-909.42579
-773.64333
-645.63647
-527.53698
-420.60856
-325.43839
-242.13244
-170.49404
-110.16483
-60.679699
-21.460571
7.9042355
26.823801
34.191065
-39.185998
-81.205519
-128.9564
-178.00154
-229.57695
-284.23723
-342.61678
-405.32119
-472.91357
-545.87555
-624.55643
-709.10787
-799.40426
-894.95463
-994.83014
-1097.6465
-1201.6303
-1304.757
-1404.9085
-1499.9921
-1587.9887
-1666.9346
-1734.8565
-1789.681
-1829.1466
-1850.7723
-1851.9886
-1830.4102
-1784.0052
-1711.709
-1614.214
-1494.4631
-1357.4973
-1209.6429
-1057.4493
-906.79867
-762.38299
-627.54408
-504.37037
-393.9279
-296.53019
-211.99136
-139.84069
-79.481231
-30.253049
8.5657898
37.490289
56.043924
63.248679
-37.653439
-77.930907
-123.79682
-171.03279
-220.89015
-273.97542
-330.98864
-392.62096
-459.5415
-532.35636
-611.55176
-697.41803
-789.95082
-888.73154
-992.81664
-1100.698
-1210.3871
-1319.61
-1426.0326
-1527.4227
-1621.7031
-1706.9069
-1781.0684
-1842.0768
-1887.5228
-1914.6048
-1920.2262
-1901.3231
-1855.0119
-1779.3759
-1674.6454
-1544.0578
-1393.7392
-1231.524
-1065.4178
-902.39107
-747.74689
-605.01066
-476.14637
-361.91645
-262.25642
-176.59927
-104.1303
-43.963075
4.7914787
43.023803
71.374911
89.494236
96.517048
-35.748805
-74.004798
-117.69203
-162.83147
-210.68177
-261.90414
-317.27063
-377.56949
-443.59395
-516.1002
-595.74458
-682.99645
-778.01765
-880.5008
-989.4997
-1103.3486
-1219.7668
-1336.1394
-1449.8468
-1558.4919
-1659.9567
-1752.3183
-1833.6802
-1901.9525
-1954.611
-1988.5127
-1999.9351
-1984.9551
-1939.5401
-1860.5124
-1747.2972
-1603.4217
-1436.5073
-1256.5008
-1073.3827
-895.51866
-728.91341
-577.21768
-442.13776
-323.98083
-222.16715
-135.63939
-63.159419
-3.4979358
44.496676
81.904506
109.50761
127.08902
133.89273
-33.798625
-69.806212
-111.02784
-153.76785
-199.29473
-248.32723
-301.71443
-360.35238
-425.17724
-497.12391
-577.05804
-665.67837
-763.37392
-870.00832
-984.65993
-1105.4659
-1229.746
-1354.4134
-1476.4671
-1593.317
-1702.8399
-1803.231
-1892.756
-1969.4399
-2030.7074
-2073.0753
-2092.1036
-2082.7927
-2039.5855
-1957.4485
-1834.424
-1674.2472
-1486.6342
-1284.5442
-1080.6574
-885.11594
-704.69053
-543.02734
-401.36494
-279.34211
-175.68577
-88.716455
-16.683724
42.039591
88.898582
125.1789
151.81139
168.7173
175.25006
-31.32272
-64.748326
-103.16393
-143.16704
-186.01785
-232.49036
-283.51334
-340.10032
-403.35011
-474.40894
-554.39841
-644.30946
-744.84073
-856.11828
-977.29886
-1106.2774
-1239.8194
-1374.1692
-1505.8012
-1631.8962
-1750.3823
-1859.6799
-1958.3488
-2044.6711
-2116.1354
-2168.9571
-2197.9197
-2196.6906
-2157.7324
-2073.3253
-1939.1481
-1758.8895
-1545.2549
-1315.6016
-1086.3276
-869.81842
-673.60673
-501.08683
-352.70776
-227.14586
-122.20847
-35.43965
35.518411
92.743072
137.9975
172.78093
198.17314
214.23514
220.43267
-28.935344
-59.574989
-94.898026
-131.84681
-171.67517
-215.21012
-263.4596
-317.56059
-378.79192
-448.54465
-528.24805
-619.25829
-722.68921
-839.06403
-967.7165
-1106.2529
-1250.6593
-1396.2151
-1538.6633
-1674.9217
-1803.0776
-1921.945
-2030.5691
-2127.6996
-2211.0798
-2276.7103
-2318.5364
-2328.6704
-2297.0935
-2212.192
-2065.6518
-1860.4851
-1613.7492
-1349.4068
-1089.011
-847.7383
-633.73461
-449.70504
-294.8272
-166.41688
-61.081361
24.586061
93.645883
148.66941
191.75114
224.60069
248.43747
263.45912
269.24631
-25.834177
-53.29339
-85.133284
-118.63352
-155.00877
-195.12755
-240.07103
-291.10179
-349.69453
-417.52224
-496.38329
-588.08817
-694.30504
-816.16043
-953.35316
-1103.1784
-1260.5217
-1419.2469
-1574.053
-1721.5571
-1860.1743
-1989.336
-2108.7967
-2218.0397
-2315.3459
-2396.6698
-2455.0968
-2481.0198
-2461.4974
-2379.4188
-2219.758
-1983.4123
-1693.8846
-1385.4099
-1086.7044
-816.33246
-582.61603
-386.83325
-226.18354
-96.095737
8.3587313
91.722791
157.84479
209.81621
250.05846
280.47314
302.39861
316.15968
321.45248
-22.988266
-47.105587
-75.194206
-104.93101
-137.49251
-173.77993
-214.939
-262.3544
-317.70618
-382.98357
-460.41837
-552.36983
-661.22058
-788.98765
-936.05505
-1099.4239
-1272.3859
-1446.6586
-1615.3974
-1774.8819
-1924.1579
-2063.6283
-2194.0744
-2316.1131
-2429.0545
-2529.1505
-2608.6683
-2656.1731
-2655.5153
-2582.0933
-2409.6774
-2133.8909
-1787.8781
-1422.5327
-1076.4501
-772.13827
-517.10635
-310.00224
-145.03269
-15.064482
86.74902
166.26572
228.18007
276.10009
312.74399
340.16731
359.79291
372.05528
376.76312
-19.233997
-39.566108
-63.483942
-89.02862
-117.28545
-149.1609
-185.84172
-228.81595
-279.96323
-341.61477
-416.5047
-507.6451
-618.31801
-751.84257
-909.86953
-1089.2871
-1281.1049
-1473.7723
-1658.1736
-1830.2914
-1990.3737
-2140.3273
-2282.2795
-2418.371
-2549.5395
-2672.7613
-2779.482
-2856.4145
-2884.436
-2829.5601
-2647.2459
-2321.087
-1898.5224
-1458.8316
-1053.8856
-710.45787
-433.22521
-216.29686
-49.466835
77.789753
174.63829
248.39184
304.59748
347.33028
379.54041
403.3752
420.29177
430.80764
434.83669
-15.909554
-32.367225
-51.889413
-72.946105
-96.528036
-123.52991
-155.16104
-192.99609
-239.10665
-296.19266
-367.57374
-457.02981
-568.92145
-708.39559
-879.33985
-1079.0094
-1295.0587
-1510.7433
-1713.4124
-1898.7623
-2069.1468
-2228.6983
-2381.1214
-2530.4771
-2680.3854
-2829.6036
-2969.1764
-3084.3378
-3154.0986
-3134.0109
-2949.9598
-2559.1605
-2029.2975
-1490.9053
-1012.5344
-624.92446
-325.99146
-102.36326
62.502689
183.47671
272.4019
338.09612
386.87979
423.18047
450.07147
469.70195
483.4964
492.01886
495.27614
-11.483927
-23.591244
-38.294665
-54.438623
-72.848077
-94.363164
-120.1699
-151.87505
-191.68056
-242.61928
-308.63665
-394.36233
-505.33279
-649.10772
-833.41803
-1057.1177
-1303.0122
-1546.0295
-1768.1205
-1964.9806
-2142.9739
-2309.8844
-2471.3077
-2633.6115
-2804.7351
-2986.7698
-3170.3477
-3338.498
-3469.9064
-3511.2588
-3344.1365
-2870.7981
-2184.143
-1512.8699
-942.74496
-506.9616
-189.29455
35.498728
192.78364
302.75067
380.12579
435.11304
474.59774
503.16017
523.83646
538.65837
548.93485
555.23097
557.62929
-7.5459493
-15.399247
-25.214339
-36.272597
-49.20826
-64.76805
-84.068902
-108.69881
-140.93282
-184.11068
-242.9031
-322.9822
-431.1488
-577.96526
-777.58685
-1033.2894
-1320.8798
-1601.2871
-1847.8975
-2056.6834
-2241.3068
-2415.2339
-2585.4238
-2759.5246
-2951.4772
-3168.7935
-3401.8411
-3630.6649
-3839.9338
-3979.4503
-3868.0217
-3294.13
-2367.8696
-1515.4533
-830.2932
-345.15958
-15.87191
201.09523
342.9265
435.89043
497.45829
538.82672
567.05996
586.58921
600.1989
609.65739
616.06266
619.92851
621.3921
-2.4940571
-5.6554045
-10.10529
-15.573817
-22.444977
-31.342371
-43.273836
-59.749348
-83.012948
-116.56742
-165.75598
-237.36399
-339.18006
-484.64127
-697.71859
-992.03905
-1333.7669
-1659.6111
-1930.1026
-2142.1463
-2323.1196
-2495.6055
-2666.7926
-2843.1719
-3048.9945
-3303.1736
-3599.0873
-3914.1973
-4241.4068
-4553.2173
-4583.0232
-3903.4781
-2589.311
-1483.2201
-653.43078
-124.34821
202.50746
397.84724
513.68357
582.39894
623.43332
648.1774
663.26859
672.58005
678.38243
682.01643
684.26802
685.54485
686.01541
2.9587886
3.972993
4.5462658
4.3727759
3.3873376
1.1546839
-3.1201442
-10.724009
-23.652264
-45.261065
-81.374209
-140.13063
-230.27306
-367.388
-589.87724
-934.91004
-1357.8533
-1750.6929
-2054.8897
-2266.9248
-2439.8804
-2611.5586
-2788.5984
-2969.4135
-3193.9259
-3500.0124
-3883.297
-4313.0919
-4763.903
-5291.5199
-5573.81
-4825.3575
-2837.3017
-1376.2417
-376.92562
174.90858
474.14924
627.83453
704.34018
740.62138
756.28043
761.57928
761.89128
760.03437
757.47745
754.96737
752.88236
751.47265
750.91512
8.285114
13.265331
19.323541
25.15799
31.020675
36.677905
41.595165
44.763157
44.510522
37.799983
18.452325
-23.538896
-98.146409
-220.10601
-443.94151
-853.46373
-1397.2816
-1876.4145
-2210.7427
-2392.8792
-2530.4282
-2685.6832
-2862.7824
-3027.8148
-3238.6398
-3573.5314
-4023.7136
-4561.7458
-5089.7115
-5960.3607
-6823.7178
-6299.5143
-3074.0127
-1170.9513
36.506867
572.65506
805.01218
890.17376
911.79921
907.31733
893.25935
876.87545
861.26386
847.6613
836.46186
827.67557
821.19689
817.0783
815.48598
17.841144
25.859719
36.761766
47.719782
59.416677
71.801428
84.631604
97.258569
108.52242
116.23596
114.96673
93.715673
41.620378
-49.537894
-244.67487
-715.15073
-1441.8796
-2033.6096
-2413.3727
-2545.712
-2643.018
-2787.1988
-2982.1457
-3113.6795
-3276.6772
-3677.6986
-4224.3712
-4961.703
-5679.3053
-7242.8537
-8882.0923
-9068.3524
-3578.1295
-1038.2192
635.19338
1099.0923
1197.3511
1178.9796
1129.5275
1077.2886
1030.5876
991.36672
959.44131
934.02448
914.23868
899.26872
888.4849
881.72038
879.11841
22.150588
30.895264
46.136779
62.238274
80.171604
100.10835
122.29221
146.74795
173.26304
201.23866
227.41531
240.7149
225.96361
180.34603
45.409301
-483.28369
-1555.1583
-2311.499
-2773.6622
-2771.0086
-2749.6656
-2813.1449
-3022.6406
-3099.9054
-3207.1634
-3763.2632
-4232.9944
-5185.2217
-6470.8429
-7863.4474
-9589.1438
-12103.54
-4823.2655
-72.514797
1722.8308
1811.9828
1641.1423
1478.7603
1346.2297
1243.2035
1163.5573
1101.9566
1054.3115
1017.6218
989.69048
968.87452
954.02893
944.77073
941.21744
36.937097
46.533266
66.460144
87.314067
110.74813
137.0775
166.90668
200.72096
238.86224
281.66285
327.57486
365.3553
371.82695
347.26673
293.74229
-191.10877
-1818.0777
-2617.1347
-3115.4961
-2772.7574
-2626.8083
-2732.5427
-3131.7554
-3271.1272
-3302.4336
0
0
0
0
0
0
0
0
6202.3752
3402.4563
2582.4955
2068.2386
1755.8595
1545.1253
1396.0885
1287.0015
1205.4551
1143.7778
1096.9952
1061.747
1035.6642
1017.1505
1005.6369
1001.2225
35.36676
42.182771
64.02846
87.075143
113.20499
142.7398
176.57938
215.6767
261.07492
314.42476
377.59042
445.98965
502.79999
560.82626
710.68154
552.80527
-1996.7847
-2776.9622
-3646.9057
-2968.6372
-3044.336
-3012.3245
0
0
0
0
0
0
0
0
0
0
10129.574
6286.2537
4123.9548
3000.3244
2361.313
1969.1781
1709.0493
1527.5633
1396.2859
1299.0428
1225.9924
1170.8554
1129.457
1098.8967
1077.2397
1063.784
1058.6266
44.26381
54.950291
80.950103
106.97767
136.15449
169.03613
206.87583
251.10431
303.5063
367.08059
447.11684
546.08884
653.28914
754.39164
842.19657
568.47402
-3108.2252
-3581.5985
-3205.2808
0
0
0
0
0
0
0
0
0
0
0
1780.6716
3364.5941
5756.1163
5236.0896
3961.3824
3100.1685
2507.1431
2107.7402
1830.6544
1632.9921
1488.4298
1380.7309
1299.5698
1238.1936
1192.0514
1157.9577
1133.7808
1118.7536
1112.9926
22.191632
42.166378
66.371082
91.285012
118.7525
149.54739
184.74338
225.50547
273.13259
329.82997
399.50011
478.02751
537.53051
536.24802
558.10752
702.38794
0
0
0
0
0
0
-1132.0673
-1103.523
-1011.3054
-917.55615
-790.0851
-495.29899
-94.947447
697.08369
2026.4396
3361.9105
4750.9872
4489.8576
3714.8021
3058.6866
2552.6655
2182.2203
1911.4457
1711.6615
1562.3547
1449.5321
1363.6925
1298.345
1248.9834
1212.3854
1186.3705
1170.1779
1163.9662
19.954029
50.022232
74.970571
100.54392
127.96172
158.0569
191.4798
228.66506
269.57212
313.41813
357.89993
396.56257
406.14949
338.09241
142.01857
-338.13428
-1284.415
-1227.4731
-1147.1005
-1100.4773
-1051.0804
-1021.6121
-1010.3637
-803.28892
-838.68196
-583.18162
-362.34504
-204.6174
259.08271
904.85446
1960.2925
3049.3232
3956.5654
3851.8966
3404.2981
2933.5971
2528.4617
2206.0156
1956.7041
1765.4224
1618.5288
1505.3809
1418.1055
1351.0013
1299.9424
1261.8834
1234.7284
1217.7885
1211.284
20.663351
46.485466
72.120346
97.971886
125.2865
154.81526
187.13925
222.62508
261.25923
302.13429
342.03525
373.73596
384.81925
353.15909
205.2167
-227.92095
-792.30349
-920.95768
-962.547
-966.14989
-887.8021
-842.31969
-818.54905
-691.7998
-620.94349
-417.54024
-179.14329
77.742881
510.88687
1096.4662
1896.1867
2721.5881
3334.8854
3356.8267
3105.6568
2777.1432
2463.3574
2193.8101
1973.5975
1797.6786
1658.5138
1548.9432
1463.0388
1396.1804
1344.8435
1306.3178
1278.698
1261.4185
1254.7757
14.996606
36.230646
58.79707
81.291122
104.29094
128.0356
152.53059
177.41606
201.7901
223.68932
238.89712
240.18149
218.24947
159.21515
15.076003
-283.91097
-606.90194
-732.4635
-784.51754
-794.28562
-753.12456
-703.47362
-642.23457
-537.76183
-423.88618
-238.24303
-11.498525
269.88383
668.60842
1187.7221
1823.2422
2450.8964
2889.5204
2967.0586
2834.9721
2613.0012
2376.1815
2157.6762
1969.1885
1812.3856
1684.4723
1581.3762
1499.091
1434.1697
1383.8
1345.7039
1318.2395
1300.9995
1294.3627
23.838384
46.444945
70.189957
93.656258
117.54434
141.96111
166.72607
191.21057
214.09587
232.8153
242.68458
236.6703
205.98923
135.39823
-7.2585387
-236.55005
-460.15364
-579.80477
-635.38232
-644.54015
-615.834
-568.29222
-497.28067
-394.4597
-264.34889
-82.932749
139.1611
416.1135
777.02661
1223.772
1735.5102
2221.7454
2557.23
2658.5602
2599.6227
2454.8463
2280.1779
2107.1228
1949.7497
1813.469
1698.7943
1604.1109
1527.1062
1465.4576
1417.0851
1380.1846
1353.4179
1336.5534
1330.0512
12.024215
29.927751
50.032269
70.035849
90.04114
109.92737
129.38629
147.74704
163.7609
175.1829
178.31593
168.0619
137.639
74.654936
-40.054377
-203.50679
-358.80623
-456.74659
-506.07823
-514.23293
-488.92952
-440.00515
-365.6889
-262.60059
-128.53833
46.964336
261.85459
525.19103
849.67435
1232.3374
1648.6363
2032.8057
2301.9488
2411.5832
2398.1277
2308.5355
2183.1595
2048.951
1920.3868
1804.4654
1703.8311
1618.6751
1548.0641
1490.6662
1445.0904
1410.0051
1384.3869
1368.1814
1361.9233
21.407276
40.632477
60.854176
80.367834
99.453713
117.84358
135.02377
150.10185
161.62911
167.32383
163.94566
147.54887
113.08152
52.274218
-43.556217
-165.61449
-279.0025
-356.12394
-395.68929
-400.4561
-375.18694
-324.72519
-248.67375
-145.28245
-11.774008
156.79258
361.05923
606.02204
895.95183
1224.416
1567.8664
1878.5076
2101.9971
2212.1876
2227.1466
2176.7607
2089.8437
1988.0677
1885.0999
1788.3898
1701.7412
1626.5697
1562.9908
1510.491
1468.2866
1435.4859
1411.3699
1396.0508
1390.1249
11.864151
27.968697
45.959826
63.611724
80.820639
97.23206
112.31679
125.22218
134.61727
138.50983
134.22509
118.55941
87.502732
35.680242
-40.001559
-130.43096
-213.52398
-271.82995
-300.84836
-300.62594
-273.46158
-221.63352
-145.03164
-42.510898
87.99439
248.90875
441.01384
666.30053
924.57422
1207.7344
1495.177
1752.1624
1942.6282
2049.7639
2082.4753
2059.9382
2002.6782
1927.6336
1846.8494
1767.6916
1694.4093
1629.1883
1572.8939
1525.6524
1487.1885
1456.9988
1434.6431
1420.3806
1414.8538
17.14037
33.237364
50.220079
66.364873
81.714439
95.886852
108.32938
118.22227
124.38341
125.1858
118.6125
102.36277
73.691492
29.626004
-29.988191
-97.381405
-158.13572
-200.46141
-219.38428
-213.53389
-183.55732
-130.34285
-53.764044
46.960533
173.1057
325.77675
505.17507
711.24645
941.41837
1187.1582
1431.2314
1648.3114
1813.9322
1916.4939
1960.2187
1957.4979
1922.9611
1869.6952
1807.8366
1744.3105
1683.4266
1627.7751
1578.719
1536.8593
1502.3257
1474.9438
1454.5175
1441.4277
1436.3464
11.965887
26.365757
42.104263
57.216697
71.535866
84.633867
95.95562
104.72793
109.89858
110.11366
103.80226
89.276995
64.758732
28.907893
-17.018981
-66.702945
-110.24934
-139.22817
-148.99392
-137.55082
-104.54743
-50.079283
26.068192
124.39902
245.54604
389.7856
556.64743
744.78774
950.46877
1165.4735
1375.7035
1562.5376
1708.9273
1806.4499
1856.8891
1868.2991
1851.1311
1815.4434
1769.5685
1719.7248
1670.0959
1623.4069
1581.3249
1544.783
1514.2209
1489.7315
1471.3238
1459.4742
1454.8659
13.672532
27.359621
41.871735
55.55085
68.315832
79.771299
89.415559
96.581261
100.40731
99.84914
93.763827
81.007518
60.559996
32.099012
-2.5887469
-38.475893
-68.500999
-86.407019
-88.109456
-71.430772
-35.489212
20.054354
95.479609
191.07398
307.00144
442.97366
597.96311
769.86582
954.48582
1144.3019
1327.897
1491.4046
1622.6062
1715.1567
1769.5578
1791.0637
1787.1664
1765.5772
1733.0732
1695.058
1655.4634
1616.9944
1581.471
1550.0421
1523.3733
1501.7674
1485.4
1474.8151
1470.6913
11.353758
24.027876
37.645187
50.500652
62.432476
73.046894
81.880153
88.352138
91.760829
91.312823
86.20633
75.733068
59.446458
37.651601
12.27666
-12.651721
-31.896208
-40.644513
-35.404525
-14.037392
24.575814
80.98864
155.4987
248.21874
358.97863
487.10033
631.1627
788.66214
955.34909
1124.5375
1286.9999
1432.2482
1551.2804
1639.181
1695.7797
1724.5053
1730.7501
1720.4243
1699.0133
1671.1269
1640.3515
1609.2937
1579.8156
1553.1932
1530.2479
1511.4414
1497.0798
1487.7493
1484.1077
11.407425
23.296037
35.923536
47.754427
58.666284
68.305125
76.268562
82.076832
85.182694
85.010546
81.033492
72.87667
60.489525
44.52259
26.847857
10.721787
0.1631011
-1.0277068
10.105914
35.554354
76.499111
133.57377
207.05526
296.915
402.74686
523.60926
657.83551
802.7592
954.29724
1106.6007
1252.1845
1382.9755
1492.1646
1575.8547
1633.5315
1667.4214
1681.4224
1680.0721
1667.8003
1648.5063
1625.3922
1600.9184
1576.9178
1554.727
1535.2678
1519.1187
1506.6846
1498.5704
1495.3986
10.343709
21.515251
33.418536
44.560613
54.805751
63.829516
71.285824
76.787118
79.922968
80.301806
77.620849
71.763006
62.951501
52.020031
40.712325
31.705445
28.182687
33.207012
49.281784
78.204808
121.12247
178.66817
251.0728
338.19343
439.45914
553.75827
679.29328
813.38263
952.21551
1090.7115
1222.7515
1342.0032
1443.1851
1523.1435
1581.1972
1618.7739
1638.7038
1644.4829
1639.6904
1627.6167
1611.0828
1592.3713
1573.2515
1555.0721
1538.813
1525.135
1514.5165
1507.561
1504.8394
9.9406178
20.476397
31.670361
42.130081
51.74014
60.213381
67.259791
72.575259
75.86537
76.886874
75.510629
71.807788
66.17871
59.538721
53.482086
50.250631
52.432422
62.544609
82.715726
114.54338
159.08987
216.94424
288.27831
372.857
469.99621
578.48232
696.46784
821.34188
949.60224
1076.8387
1197.9927
1307.9984
1402.6585
1479.37
1537.3815
1577.5852
1602.0458
1613.4717
1614.7641
1608.7017
1597.7597
1584.0284
1569.1942
1554.5866
1541.2123
1529.7897
1520.8526
1514.9872
1512.6935
9.3564992
19.36472
30.00837
39.956394
49.101939
57.191926
63.988347
69.261578
72.816058
74.529433
74.408206
72.66149
69.802087
66.770228
65.018625
66.460211
73.250135
87.496123
111.02169
145.23618
191.09867
249.13312
319.44871
401.73675
495.23722
598.68222
710.22659
827.37322
946.92388
1065.0321
1177.4573
1280.0605
1369.4253
1443.3601
1501.0942
1543.1583
1571.0667
1586.9345
1593.1294
1592.0069
1585.7417
1576.2384
1565.092
1553.596
1542.7635
1533.3523
1525.9436
1521.096
1519.2105
8.9349362
18.485971
28.650127
38.160528
46.922898
54.715739
61.346615
66.64862
70.506417
72.892411
73.915396
73.882049
73.373322
73.324167
75.062681
80.252672
90.730539
108.29506
134.52518
170.66383
217.56553
275.68347
345.06688
425.34922
515.72105
614.89186
721.04879
831.82343
944.29389
1055.0746
1160.5507
1257.2641
1342.3651
1413.9708
1471.3165
1514.6885
1545.2058
1564.5397
1574.6427
1577.529
1575.12
1569.1526
1561.1297
1552.3026
1543.6751
1536.0297
1529.9955
1526.1075
1524.6262
8.5491006
17.74347
27.539723
36.720665
45.201199
52.788174
59.32884
64.708764
68.877195
71.880098
73.902429
75.318623
76.749134
79.110153
83.626161
91.773567
105.15384
125.33367
153.69976
191.35508
239.05888
297.19724
365.76631
444.35513
532.12338
627.77726
729.54983
835.19762
942.03538
1047.0436
1147.0793
1239.1827
1320.9148
1390.6226
1447.5583
1491.8426
1524.3119
1546.3086
1559.4681
1565.5345
1566.2221
1563.1245
1557.6591
1551.0352
1544.2389
1538.0664
1533.2129
1530.2279
1529.1731
8.1798069
17.102111
26.616422
35.549432
43.821745
51.264926
57.759
63.231211
67.680479
71.207721
74.052841
76.636126
79.599838
83.837907
90.492931
100.90293
116.4985
138.67504
168.6726
207.48226
255.78306
313.90326
381.79501
459.01415
544.70195
637.5712
735.9027
837.56236
940.05612
1040.6447
1136.5327
1225.119
1304.2584
1372.466
1429.0139
1473.9121
1507.7983
1531.7773
1547.249
1555.752
1558.8387
1557.9875
1554.5458
1549.6888
1544.386
1539.4367
1535.6169
1533.5682
1533.0776
7.8074773
16.603288
25.940319
34.712526
42.84704
50.199394
56.676633
62.238066
66.919355
70.860921
74.340748
77.808934
81.918665
87.542839
95.762205
107.8166
125.01795
148.64125
179.82065
219.46381
268.18794
326.27604
393.64672
469.83244
553.96421
644.76506
740.55756
839.29452
938.62577
1036.0149
1128.9111
1214.9614
1292.2231
1359.3288
1415.5684
1460.8801
1495.7669
1521.1689
1538.3192
1548.6077
1553.4681
1554.2919
1552.3722
1548.8589
1544.7053
1540.6821
1537.614
1536.3936
1536.6787
7.3041721
16.16772
25.424216
34.111444
42.165252
49.465629
55.940399
61.571047
66.417335
70.644727
74.554539
78.613944
83.480363
90.010958
99.246576
112.36709
130.61085
155.17421
187.12106
227.30361
276.29723
334.3541
401.37032
476.86343
559.95915
649.3894
743.50689
840.32399
937.58602
1032.8879
1123.8347
1208.2293
1284.2564
1350.6234
1406.6335
1452.1814
1487.687
1513.9861
1532.2048
1543.6366
1549.6371
1551.5382
1550.5926
1547.936
1544.5155
1541.047
1538.3506
1537.9199
1540.1131
6.0814718
15.835502
25.143214
33.822855
41.845976
49.124598
55.600766
61.268162
66.198853
70.570832
74.697161
79.053763
84.30093
91.290654
101.04857
114.71838
133.4908
158.52528
190.85581
231.30769
280.43543
338.47553
405.3126
480.45665
563.03081
651.77187
745.04827
840.9029
937.12943
1031.3886
1121.3626
1204.9314
1280.3424
1346.3407
1402.2365
1447.9044
1483.7238
1510.4798
1529.2465
1541.2703
1547.8634
1550.3271
1549.9021
1547.7274
1544.7603
1541.676
1539.2602
1539.7832
1545.6254
-2227.758
-2483.6245
-2699.5386
-2881.4833
-3023.9671
-3106.2143
-3108.2252
-3029.2211
-2857.2784
-2664.003
-3205.3888
-3205.2808
-3198.4353
-3187.4484
-3173.3341
-3160.5813
-3148.7455
-3158.2122
-3158.8144
-3131.41
-3183.0312
-3181.9067
-3167.1523
-3150.1891
-3133.274
-3124.2832
-3105.9906
-3113.2076
-3100.076
-3046.5499
-3137.8417
-3135.1797
-3126.5765
-3117.8807
-3109.0872
-3112.0995
-3101.0039
-3098.9712
-3085.57
-3048.708
-3078.1496
-3076.715
-3072.1695
-3066.2522
-3057.7467
-3058.1467
-3057.8124
-3057.1422
-3055.6637
-3059.4005
-3030.1689
-3029.3766
-3023.6157
-3013.4545
-2998.1996
-2968.6372
-2990.8012
-3003.1021
-3009.7478
-3023.0966
-3013.4126
-3015.1067
-3018.3584
-3021.7456
-3032.6622
-3008.5363
-3008.2143
-3004.5871
-2989.669
-2966.6809
-3027.9229
-3029.5537
-3035.6396
-3044.336
-3068.3861
-3076.1026
-3056.7214
-3030.7038
-3000.867
-2965.4631
-3848.4525
-3860.7648
-3831.726
-3787.3164
-3749.7566
-3717.6914
-3696.1881
-3682.462
-3673.5221
-3675.2642
-2986.9814
-2985.7893
-2977.9083
-2960.9533
-2921.5851
-2946.946
-2958.9508
-2961.1435
-2950.6576
-2923.5507
-3009.248
-3012.3245
-3018.6877
-3037.9311
-3013.9711
-3005.2506
-3001.2989
-2993.8833
-2979.8932
-2964.7514
-3048.5064
-3050.959
-3056.1369
-3080.726
-3093.4958
-3069.4236
-3042.6916
-3022.4071
-3003.5382
-2987.0525
-2999.6591
-2995.8305
-2976.9416
-2951.6606
-2974.5976
-2992.0786
-3003.3177
-3010.7376
-3013.0007
-3020.0182
-3033.2647
-3035.7252
-3034.8616
-2997.9704
-3007.1038
-3020.7166
-3031.5168
-3038.7499
-3041.7993
-3051.364
-3156.8897
-3164.6837
-3188.917
-3187.4462
-3159.5464
-3131.7554
-3111.0619
-3095.6691
-3080.2517
-3063.0189
-3141.9776
-3137.1429
-3129.6593
-3149.8304
-3150.4242
-3144.6315
-3138.409
-3132.9739
-3126.9759
-3128.8782
-3162.7551
-3162.0345
-3137.75
-3147.9041
-3159.3498
-3167.4859
-3171.906
-3173.7098
-3173.0003
-3177.7017
-3277.1159
-3289.5192
-3285.4684
-3271.1272
-3255.8054
-3243.7646
-3235.033
-3229.2394
-3222.4241
-3213.8637
-3282.4885
-3286.5601
-3294.0147
-3285.9368
-3276.2937
-3270.7936
-3270.5585
-3274.9996
-3280.0403
-3292.3428
-3186.3246
-3172.2146
-3189.551
-3215.4279
-3244.9012
-3273.5982
-3300.5721
-3325.1449
-3345.2977
-3370.2629
-3326.0528
-3302.4336
-3312.0411
-3332.3487
-3359.1121
-3384.36
-3406.8255
-3425.2568
-3437.7752
-3453.4901
-3701.6745
-3692.6552
-3661.9564
-3627.8853
-3602.8065
-3583.3212
-3571.2311
-3564.0732
-3557.9582
-3555.0922
-3016.6785
-3015.1529
-3009.7378
-2998.1196
-2992.6336
-2999.8925
-2999.5296
-2994.179
-2984.9468
-2983.923
-3540.5379
-3549.1347
-3563.569
-3610.8528
-3667.0284
-3718.8599
-3739.9422
-3721.8032
-3638.1025
-3466.2529
-3268.7583
-3268.9932
-3271.9427
-3276.8107
-3277.9215
-3277.0254
-3275.0641
-3269.9195
-3265.7618
-3219.2847
-3179.5258
-3227.5519
-3289.6663
-3394.3694
-3505.6947
-3592.5204
-3635.0761
-3595.2068
-3447.0635
-3214.6347
-3480.2766
-3490.3202
-3511.2509
-3547.9502
-3581.5985
-3610.2581
-3618.8292
-3618.3244
-3582.5464
-3470.1572
-3367.3451
-3371.735
-3385.9146
-3409.8728
-3430.8337
-3448.4897
-3456.6152
-3446.1963
-3433.5786
-3381.8271
11318.722
10715.546
10129.574
9489.9391
8832.8459
8179.539
7545.1802
6936.7836
6347.344
5770.304
8301.8482
8224.5313
8101.2594
7839.6073
7501.719
7111.2847
6689.6064
6254.566
5816.3989
5360.0009
-3709.5005
-3727.9361
-3745.3438
-3751.3102
-3759.9989
-3763.2632
-3768.0587
-3771.4945
-3772.8197
-3776.3113
-3705.8517
-3709.7029
-3745.0492
-3776.2799
-3815.3389
-3842.5106
-3866.4369
-3882.4669
-3891.1144
-3895.3023
-3946.5152
-3939.2798
-3955.5086
-3963.0857
-3991.4656
-4009.8454
-4029.6723
-4042.6485
-4048.0679
-4043.6179
-4222.4229
-4212.068
-4226.3368
-4216.9232
-4232.9944
-4234.8763
-4241.399
-4242.4475
-4238.8755
-4234.5144
-4544.8764
-4526.7367
-4538.4819
-4511.4467
-4515.2325
-4497.3856
-4484.9275
-4464.9005
-4437.233
-4404.8723
-4901.1052
-4873.883
-4883.4901
-4837.0688
-4828.6369
-4790.1479
-4757.317
-4713.8949
-4659.2254
-4599.0144
-5281.8493
-5243.3989
-5252.039
-5185.2217
-5165.6716
-5107.5829
-5056.1874
-4992.7185
-4916.4631
-4831.1512
-5682.8599
-5630.7848
-5639.6095
-5550.5884
-5519.7715
-5441.5435
-5370.8772
-5288.4423
-5198.4683
-5115.9179
-6105.0437
-6035.9212
-6045.7703
-5931.7759
-5888.3053
-5787.8965
-5693.529
-5583.5005
-5458.1873
-5322.5868
-6548.5
-6458.4122
-6470.8429
-6329.198
-6271.9438
-6149.0591
-6030.8961
-5896.7839
-5747.1778
-5585.4185
-7019.341
-6902.21
-6917.9741
-6744.4913
-6670.3451
-6522.7542
-6376.8529
-6214.628
-6036.1365
-5850.2659
-7516.4399
-7366.2085
-7388.326
-7179.8866
-7085.7235
-6911.6631
-6733.8681
-6537.7857
-6319.1646
-6081.8844
-8058.1144
-7863.4474
-7892.3973