/*--------------------------------*- C++ -*----------------------------------*\
| =========                 |                                                 |
| \\      /  F ield         | foam-extend: Open Source CFD                    |
|  \\    /   O peration     | Version:     4.1                                |
|   \\  /    A nd           | Web:         http://www.foam-extend.org         |
|    \\/     M anipulation  |                                                 |
\*---------------------------------------------------------------------------*/
FoamFile
{
    version     2.0;
    format      ascii;
    class       volVectorField;
    location    "2.15";
    object      U;
}
// * * * * * * * * * * * * * * * * * * * * * * * * * * * * * * * * * * * * * //

dimensions      [0 1 -1 0 0 0 0];

internalField   nonuniform List<vector> 
4393
(
(146.0489 -0.156503 0)
(146.5975 -0.16293698 0)
(147.0118 -0.1659511 0)
(147.45302 -0.16960183 0)
(147.90407 -0.17400968 0)
(148.36986 -0.17926014 0)
(148.8526 -0.18527503 0)
(149.35444 -0.1919081 0)
(149.87699 -0.19895367 0)
(150.42114 -0.20614874 0)
(150.98694 -0.21317309 0)
(151.57338 -0.21965254 0)
(152.17825 -0.22516774 0)
(152.79805 -0.22926999 0)
(153.42788 -0.23150438 0)
(154.06149 -0.23143761 0)
(154.69139 -0.22868563 0)
(155.30905 -0.22293507 0)
(155.90508 -0.21395433 0)
(156.46956 -0.20159369 0)
(156.99221 -0.18577844 0)
(157.46262 -0.16650102 0)
(157.87046 -0.14381871 0)
(158.20564 -0.117862 0)
(158.4586 -0.088857103 0)
(158.62065 -0.057159574 0)
(158.68448 -0.023276072 0)
(158.64488 0.012126568 0)
(158.49853 0.047973237 0)
(158.24628 0.082848772 0)
(157.89311 0.11530703 0)
(157.44834 0.14393707 0)
(156.92537 0.16751054 0)
(156.3408 0.18513466 0)
(155.71333 0.19635096 0)
(155.0623 0.20115492 0)
(154.40645 0.19994209 0)
(153.76286 0.19340541 0)
(153.14622 0.18241419 0)
(152.56855 0.16790046 0)
(152.03911 0.15076882 0)
(151.56467 0.13183513 0)
(151.14978 0.11179339 0)
(150.79719 0.091217223 0)
(150.50827 0.070610785 0)
(150.28348 0.05043247 0)
(150.12222 0.030837467 0)
(150.02092 0.011723073 0)
(149.97389 -0.0031700233 0)
(149.47194 -0.39491477 0)
(149.94134 -0.40586635 0)
(150.28758 -0.41396607 0)
(150.65757 -0.42450815 0)
(151.03721 -0.43760788 0)
(151.43148 -0.4533011 0)
(151.84275 -0.47131763 0)
(152.27326 -0.49121204 0)
(152.72471 -0.51237196 0)
(153.19807 -0.53401636 0)
(153.69348 -0.5551935 0)
(154.20999 -0.57478878 0)
(154.74548 -0.59154958 0)
(155.29645 -0.60413159 0)
(155.85801 -0.61116759 0)
(156.42389 -0.61135157 0)
(156.98653 -0.60352306 0)
(157.53727 -0.58673315 0)
(158.06664 -0.56027891 0)
(158.56461 -0.52370443 0)
(159.02077 -0.47678024 0)
(159.42465 -0.4194805 0)
(159.76578 -0.35197787 0)
(160.03397 -0.27467249 0)
(160.2195 -0.18826595 0)
(160.31345 -0.093877182 0)
(160.3083 0.0068450217 0)
(160.19843 0.11165835 0)
(159.98172 0.21748519 0)
(159.65888 0.32051335 0)
(159.23466 0.41654776 0)
(158.71823 0.50139294 0)
(158.12299 0.57135835 0)
(157.46573 0.62373675 0)
(156.76535 0.65710932 0)
(156.04147 0.67140888 0)
(155.31302 0.66776013 0)
(154.59716 0.64817292 0)
(153.90862 0.61518104 0)
(153.25934 0.57150304 0)
(152.6585 0.51977209 0)
(152.11272 0.46235043 0)
(151.62645 0.40122598 0)
(151.20242 0.33800172 0)
(150.84201 0.27399614 0)
(150.54554 0.21026765 0)
(150.31218 0.14710529 0)
(150.14086 0.084344858 0)
(150.03531 0.028580557 0)
(149.73739 -0.62939368 0)
(150.19159 -0.63857061 0)
(150.52687 -0.65072032 0)
(150.88501 -0.66771111 0)
(151.25284 -0.68939174 0)
(151.63542 -0.71554 0)
(152.03526 -0.7456463 0)
(152.45473 -0.77895189 0)
(152.89563 -0.81443461 0)
(153.35911 -0.85079296 0)
(153.84544 -0.88643712 0)
(154.35385 -0.91949883 0)
(154.88235 -0.94787071 0)
(155.42757 -0.96928362 0)
(155.98467 -0.98142412 0)
(156.54738 -0.98208079 0)
(157.10806 -0.96929248 0)
(157.65797 -0.94146399 0)
(158.18754 -0.89742404 0)
(158.68661 -0.83642206 0)
(159.14472 -0.75808525 0)
(159.55126 -0.66237103 0)
(159.89571 -0.54955184 0)
(160.16766 -0.42026151 0)
(160.35713 -0.2756224 0)
(160.45481 -0.11745662 0)
(160.45263 0.051463218 0)
(160.34438 0.22725296 0)
(160.1264 0.40485496 0)
(159.79877 0.57802907 0)
(159.36598 0.73967599 0)
(158.83741 0.88259883 0)
(158.22711 1.0004399 0)
(157.55291 1.088546 0)
(156.83491 1.1445114 0)
(156.09388 1.1682799 0)
(155.34967 1.1618476 0)
(154.6201 1.1287114 0)
(153.9202 1.073232 0)
(153.26196 1.0000462 0)
(152.6544 0.91360623 0)
(152.10385 0.81786968 0)
(151.61442 0.71613369 0)
(151.18849 0.61100871 0)
(150.82718 0.50451243 0)
(150.53034 0.39807287 0)
(150.29671 0.29220454 0)
(150.12702 0.1872053 0)
(150.02928 0.087413773 0)
(149.82993 -0.85840968 0)
(150.2762 -0.8681868 0)
(150.60689 -0.88443533 0)
(150.96021 -0.90797672 0)
(151.32346 -0.93842255 0)
(151.70181 -0.9753222 0)
(152.09796 -1.0179329 0)
(152.51447 -1.0651977 0)
(152.95336 -1.1157037 0)
(153.41601 -1.1676448 0)
(153.90293 -1.2188013 0)
(154.41357 -1.2665464 0)
(154.94611 -1.3078957 0)
(155.49728 -1.3396153 0)
(156.06222 -1.3583907 0)
(156.63452 -1.3610452 0)
(157.20631 -1.3447649 0)
(157.76854 -1.3072738 0)
(158.31127 -1.2469182 0)
(158.82403 -1.162652 0)
(159.29606 -1.0539579 0)
(159.71652 -0.92076056 0)
(160.07456 -0.7633879 0)
(160.35947 -0.58262768 0)
(160.56077 -0.37990573 0)
(160.66846 -0.15759503 0)
(160.67364 0.080594102 0)
(160.56908 0.32929727 0)
(160.35013 0.58129829 0)
(160.01601 0.82757869 0)
(159.57083 1.0577952 0)
(159.02428 1.2613673 0)
(158.39144 1.428911 0)
(157.69177 1.5535891 0)
(156.94728 1.6319471 0)
(156.18053 1.6640467 0)
(155.41286 1.6529778 0)
(154.66304 1.6039959 0)
(153.94658 1.5235518 0)
(153.2755 1.4184203 0)
(152.65854 1.2950353 0)
(152.10159 1.1590617 0)
(151.60818 1.0151825 0)
(151.1802 0.86707312 0)
(150.81825 0.71749256 0)
(150.52164 0.56832286 0)
(150.28881 0.42059241 0)
(150.12121 0.27534749 0)
(150.02715 0.13502558 0)
(149.93892 -1.0819503 0)
(150.37711 -1.0932723 0)
(150.70246 -1.1137397 0)
(151.05041 -1.1439484 0)
(151.40865 -1.183339 0)
(151.78247 -1.2312719 0)
(152.17479 -1.2867841 0)
(152.58843 -1.3485309 0)
(153.02568 -1.4147157 0)
(153.48825 -1.4830291 0)
(153.97695 -1.5506106 0)
(154.49154 -1.6140466 0)
(155.03044 -1.6694263 0)
(155.59049 -1.7124781 0)
(156.16684 -1.7387976 0)
(156.75286 -1.7441532 0)
(157.34035 -1.7248086 0)
(157.91977 -1.6777756 0)
(158.48071 -1.6009272 0)
(159.01225 -1.4929607 0)
(159.50327 -1.3532604 0)
(159.94259 -1.1817475 0)
(160.31906 -0.97880068 0)
(160.62154 -0.74531326 0)
(160.83897 -0.48292637 0)
(160.96048 -0.1944519 0)
(160.97602 0.1155732 0)
(160.877 0.44040864 0)
(160.65725 0.77075454 0)
(160.31472 1.0946355 0)
(159.85287 1.3980362 0)
(159.28173 1.6664148 0)
(158.61786 1.8868023 0)
(157.88307 2.0498081 0)
(157.10209 2.1508395 0)
(156.3001 2.1902455 0)
(155.50046 2.1725458 0)
(154.72327 2.1051452 0)
(153.98459 1.9969415 0)
(153.29645 1.8571162 0)
(152.66714 1.6942487 0)
(152.10183 1.5157729 0)
(151.60332 1.3277343 0)
(151.17272 1.1347784 0)
(150.80995 0.94026451 0)
(150.51371 0.74638679 0)
(150.28219 0.55444174 0)
(150.11706 0.36561714 0)
(150.02586 0.18119233 0)
(150.07649 -1.302951 0)
(150.50472 -1.31631 0)
(150.82324 -1.3411829 0)
(151.16438 -1.3782814 0)
(151.51625 -1.4269412 0)
(151.88433 -1.4863906 0)
(152.27176 -1.5554853 0)
(152.68167 -1.6326269 0)
(153.11673 -1.7156629 0)
(153.57904 -1.8017984 0)
(154.06983 -1.8875312 0)
(154.58926 -1.9686337 0)
(155.13607 -2.0402083 0)
(155.70733 -2.0968472 0)
(156.29815 -2.132927 0)
(156.90166 -2.1430232 0)
(157.50916 -2.1223631 0)
(158.1105 -2.0671829 0)
(158.69463 -1.9748781 0)
(159.25004 -1.8439241 0)
(159.76515 -1.6736482 0)
(160.22843 -1.4639797 0)
(160.62838 -1.2153026 0)
(160.95342 -0.92849882 0)
(161.19179 -0.60523989 0)
(161.33155 -0.248549 0)
(161.36114 0.13642457 0)
(161.27019 0.54165207 0)
(161.05039 0.95566175 0)
(160.69784 1.3632365 0)
(160.21494 1.7460856 0)
(159.61207 2.084871 0)
(158.90778 2.3622192 0)
(158.12713 2.5656595 0)
(157.29869 2.6893646 0)
(156.45114 2.7342645 0)
(155.61059 2.7068429 0)
(154.79877 2.6172583 0)
(154.0324 2.4774017 0)
(153.32335 2.2992818 0)
(152.67921 2.0939002 0)
(152.10416 1.8706088 0)
(151.59994 1.636863 0)
(151.16662 1.3982521 0)
(150.80317 1.1586722 0)
(150.50754 0.92055149 0)
(150.27748 0.68523069 0)
(150.11443 0.4535392 0)
(150.02513 0.22567275 0)
(150.24333 -1.5149128 0)
(150.66 -1.530604 0)
(150.9702 -1.5601506 0)
(151.30294 -1.6044733 0)
(151.64694 -1.662834 0)
(152.00783 -1.7343726 0)
(152.38907 -1.817803 0)
(152.79415 -1.9113111 0)
(153.22619 -2.0124227 0)
(153.68777 -2.117879 0)
(154.18067 -2.2235382 0)
(154.70559 -2.3243299 0)
(155.26171 -2.4142972 0)
(155.84638 -2.4867747 0)
(156.45474 -2.534754 0)
(157.07958 -2.5514384 0)
(157.71159 -2.5308752 0)
(158.33976 -2.4684614 0)
(158.9522 -2.3611428 0)
(159.53666 -2.2072657 0)
(160.08103 -2.0062061 0)
(160.57343 -1.7579679 0)
(161.00204 -1.4629274 0)
(161.35486 -1.1218401 0)
(161.61936 -0.7361884 0)
(161.78236 -0.30890668 0)
(161.83045 0.15456202 0)
(161.7509 0.64516086 0)
(161.53252 1.1493539 0)
(161.16872 1.6483678 0)
(160.66021 2.1188352 0)
(160.01761 2.535431 0)
(159.26211 2.8751739 0)
(158.42322 3.1217392 0)
(157.5347 3.267934 0)
(156.62999 3.3156979 0)
(155.73869 3.274224 0)
(154.88454 3.1572319 0)
(154.08491 2.9802983 0)
(153.35126 2.7587566 0)
(152.69013 2.5063246 0)
(152.10436 2.234398 0)
(151.59425 1.9518489 0)
(151.15854 1.6651486 0)
(150.79505 1.3786522 0)
(150.50078 1.094956 0)
(150.27284 0.81535752 0)
(150.11214 0.54028882 0)
(150.02456 0.2691663 0)
(150.43875 -1.7254232 0)
(150.84135 -1.7434638 0)
(151.14159 -1.7777055 0)
(151.46428 -1.82936 0)
(151.79881 -1.8976652 0)
(152.15099 -1.9817283 0)
(152.52461 -2.0801782 0)
(152.92362 -2.1910437 0)
(153.35163 -2.3115832 0)
(153.81186 -2.4381157 0)
(154.30676 -2.5658758 0)
(154.8377 -2.6889261 0)
(155.40448 -2.8001691 0)
(156.00486 -2.8915278 0)
(156.63403 -2.9543846 0)
(157.28442 -2.9803142 0)
(157.94584 -2.9619703 0)
(158.60621 -2.8938099 0)
(159.25248 -2.7723624 0)
(159.87151 -2.595973 0)
(160.45059 -2.364211 0)
(160.9775 -2.0772436 0)
(161.44023 -1.7354191 0)
(161.82644 -1.3392084 0)
(162.12287 -0.88960205 0)
(162.31495 -0.38902785 0)
(162.38701 0.15723894 0)
(162.32337 0.73946627 0)
(162.10896 1.3421775 0)
(161.73338 1.94273 0)
(161.19461 2.5116547 0)
(160.50329 3.0159744 0)
(159.68399 3.4253634 0)
(158.77235 3.7185539 0)
(157.80919 3.8868759 0)
(156.83422 3.9339774 0)
(155.88146 3.8728718 0)
(154.977 3.7219814 0)
(154.1387 3.5015019 0)
(153.3772 3.2307236 0)
(152.6975 2.9264238 0)
(152.10061 2.6021561 0)
(151.58495 2.2681655 0)
(151.14761 1.9316697 0)
(150.78497 1.5973062 0)
(150.49295 1.2676448 0)
(150.26784 0.9437349 0)
(150.10983 0.62551186 0)
(150.02402 0.31173437 0)
(150.66219 -1.9210451 0)
(151.0492 -1.9416729 0)
(151.33789 -1.9810149 0)
(151.64881 -2.0405627 0)
(151.97212 -2.1195445 0)
(152.31385 -2.2170817 0)
(152.6782 -2.331778 0)
(153.06956 -2.4615708 0)
(153.49222 -2.6035168 0)
(153.95009 -2.7535662 0)
(154.44648 -2.9063552 0)
(154.98362 -3.0550567 0)
(155.56213 -3.1913397 0)
(156.18036 -3.3055237 0)
(156.83368 -3.3870846 0)
(157.51403 -3.4256152 0)
(158.21014 -3.4120774 0)
(158.90842 -3.3398596 0)
(159.59436 -3.2051556 0)
(160.25367 -3.0065363 0)
(160.87299 -2.744021 0)
(161.43989 -2.4181161 0)
(161.94234 -2.029168 0)
(162.36787 -1.5771964 0)
(162.70264 -1.0623265 0)
(162.93057 -0.4859282 0)
(163.03337 0.14753814 0)
(162.99172 0.82826986 0)
(162.78538 1.5392588 0)
(162.3985 2.2537517 0)
(161.82486 2.9348977 0)
(161.07447 3.5397205 0)
(160.17633 4.0279842 0)
(159.17447 4.3718912 0)
(158.11936 4.5612107 0)
(157.05902 4.6023796 0)
(156.03299 4.5138332 0)
(155.06991 4.3202484 0)
(154.18778 4.0476348 0)
(153.39582 3.7199938 0)
(152.69681 3.3575289 0)
(152.08924 2.9760376 0)
(151.56919 2.5870516 0)
(151.13168 2.1983641 0)
(150.77141 1.8146979 0)
(150.483 1.4383937 0)
(150.2618 1.0700617 0)
(150.10717 0.70902262 0)
(150.02341 0.35333293 0)
(150.91341 -2.1185671 0)
(151.2815 -2.1416592 0)
(151.5568 -2.1859505 0)
(151.85405 -2.2533014 0)
(152.16426 -2.3429941 0)
(152.49367 -2.4542314 0)
(152.84687 -2.5856731 0)
(153.22882 -2.7352588 0)
(153.64451 -2.8999417 0)
(154.09873 -3.0753929 0)
(154.59582 -3.2557107 0)
(155.1391 -3.4331864 0)
(155.7303 -3.5981771 0)
(156.36861 -3.7391896 0)
(157.04972 -3.843423 0)
(157.76503 -3.8980121 0)
(158.50183 -3.8918095 0)
(159.24453 -3.8169622 0)
(159.97659 -3.6694663 0)
(160.6823 -3.4484695 0)
(161.34765 -3.1548218 0)
(161.96015 -2.7896232 0)
(162.50808 -2.353261 0)
(162.97923 -1.8450903 0)
(163.35941 -1.2638764 0)
(163.63114 -0.60918494 0)
(163.77308 0.11624383 0)
(163.76152 0.90344735 0)
(163.56949 1.7345451 0)
(163.17346 2.5786429 0)
(162.56057 3.3900015 0)
(161.7391 4.1123541 0)
(160.74374 4.6917324 0)
(159.63022 5.091493 0)
(158.46231 5.2998942 0)
(157.29902 5.3278898 0)
(156.18666 5.2016863 0)
(155.15645 4.9543373 0)
(154.22587 4.61918 0)
(153.40177 4.2257859 0)
(152.6837 3.7981194 0)
(152.0669 3.3542078 0)
(151.54448 2.906663 0)
(151.10898 2.4635701 0)
(150.75314 2.0294456 0)
(150.47013 1.606136 0)
(150.25423 1.1935961 0)
(150.1039 0.79039409 0)
(150.02268 0.39378357 0)
(151.19051 -2.2909256 0)
(151.53868 -2.3166124 0)
(151.79896 -2.3662399 0)
(152.08069 -2.4419997 0)
(152.37584 -2.5432438 0)
(152.69088 -2.6693221 0)
(153.03085 -2.8190418 0)
(153.40129 -2.990456 0)
(153.80799 -3.180537 0)
(154.25679 -3.3847937 0)
(154.75325 -3.5968731 0)
(155.30209 -3.8082097 0)
(155.90646 -4.007769 0)
(156.56681 -4.18199 0)
(157.27939 -4.3152922 0)
(158.03505 -4.3916518 0)
(158.81916 -4.3971612 0)
(159.61335 -4.3224338 0)
(160.3984 -4.1634582 0)
(161.15678 -3.9204872 0)
(161.87379 -3.5957796 0)
(162.53728 -3.1914318 0)
(163.13632 -2.7080049 0)
(163.65952 -2.1440058 0)
(164.09284 -1.4962807 0)
(164.41756 -0.76166019 0)
(164.60906 0.0600381 0)
(164.63843 0.96206364 0)
(164.46999 1.9268337 0)
(164.06949 2.9196715 0)
(163.4137 3.8843446 0)
(162.50705 4.7466737 0)
(161.39152 5.433124 0)
(160.13942 5.8947228 0)
(158.83316 6.1185692 0)
(157.54627 6.1228987 0)
(156.33318 5.9451392 0)
(155.22741 5.6295977 0)
(154.2447 5.2188174 0)
(153.3881 4.7488732 0)
(152.6527 4.2477386 0)
(152.02945 3.7355105 0)
(151.50782 3.2255293 0)
(151.07742 2.7257666 0)
(150.72878 2.2401493 0)
(150.45347 1.7697004 0)
(150.24464 1.3134614 0)
(150.09983 0.86906755 0)
(150.02177 0.43282094 0)
(151.49499 -2.4738444 0)
(151.8188 -2.5022054 0)
(152.06188 -2.5571296 0)
(152.32587 -2.6412522 0)
(152.60371 -2.7540725 0)
(152.902 -2.8951691 0)
(153.22623 -3.0636015 0)
(153.58258 -3.2576679 0)
(153.97773 -3.4745131 0)
(154.41872 -3.7096439 0)
(154.91259 -3.9563914 0)
(155.46579 -4.2054079 0)
(156.08337 -4.4442335 0)
(156.76757 -4.6569938 0)
(157.51568 -4.8247285 0)
(158.31801 -4.9273177 0)
(159.15738 -4.9471865 0)
(160.01158 -4.8730534 0)
(160.85764 -4.701304 0)
(161.67564 -4.4342179 0)
(162.45029 -4.0764229 0)
(163.1702 -3.6316519 0)
(163.82599 -3.1008591 0)
(164.4079 -2.4814858 0)
(164.90281 -1.767714 0)
(165.29123 -0.95232346 0)
(165.54522 -0.030499938 0)
(165.62896 0.99512963 0)
(165.49755 2.1090121 0)
(165.10114 3.2741385 0)
(164.40039 4.422293 0)
(163.39186 5.4549441 0)
(162.12684 6.2698964 0)
(160.70163 6.8004566 0)
(159.22515 7.0336191 0)
(157.79023 6.9993779 0)
(156.46075 6.7514854 0)
(155.27147 6.3493654 0)
(154.23446 5.8470192 0)
(153.3469 5.2879313 0)
(152.59774 4.7041217 0)
(151.97246 4.1173447 0)
(151.4561 3.5410951 0)
(151.0349 2.9826596 0)
(150.69697 2.4448816 0)
(150.4322 1.9275671 0)
(150.23259 1.4285521 0)
(150.09477 0.94433466 0)
(150.02066 0.47010133 0)
(151.82145 -2.6141362 0)
(152.12076 -2.6447315 0)
(152.34508 -2.7047732 0)
(152.58942 -2.7972801 0)
(152.84782 -2.9219227 0)
(153.12706 -3.0786019 0)
(153.43304 -3.2667712 0)
(153.77259 -3.4851592 0)
(154.15337 -3.7313099 0)
(154.58378 -4.0009787 0)
(155.07259 -4.2874181 0)
(155.6284 -4.5806742 0)
(156.2587 -4.8669237 0)
(156.96827 -5.1277837 0)
(157.75619 -5.3401891 0)
(158.61235 -5.4785749 0)
(159.51622 -5.5202411 0)
(160.44011 -5.4513094 0)
(161.35574 -5.2690142 0)
(162.24005 -4.9788736 0)
(163.07734 -4.5890947 0)
(163.85785 -4.1057425 0)
(164.57482 -3.5303344 0)
(165.22129 -2.8590039 0)
(165.78633 -2.0824848 0)
(166.25048 -1.1879845 0)
(166.5826 -0.16396697 0)
(166.73938 0.99331271 0)
(166.66426 2.2730459 0)
(166.28652 3.6388195 0)
(165.54188 5.0097652 0)
(164.4117 6.2542104 0)
(162.95882 7.2267844 0)
(161.31517 7.8343643 0)
(159.62819 8.0664523 0)
(158.01629 7.9721059 0)
(156.55374 7.6289859 0)
(155.2743 7.1167436 0)
(154.18321 6.5034093 0)
(153.26889 5.8405798 0)
(152.51197 5.163975 0)
(151.89108 4.4962164 0)
(151.38601 3.8500818 0)
(150.97926 3.2313971 0)
(150.65637 2.6413016 0)
(150.40553 2.0779204 0)
(150.21767 1.5375577 0)
(150.08855 1.0153536 0)
(150.01929 0.50521341 0)
(152.17466 -2.7815892 0)
(152.44372 -2.8153281 0)
(152.64676 -2.8812265 0)
(152.86889 -2.9828162 0)
(153.10516 -3.1200349 0)
(153.36236 -3.2932091 0)
(153.64674 -3.5023207 0)
(153.96578 -3.7467031 0)
(154.32815 -4.0245182 0)
(154.74375 -4.3320249 0)
(155.22343 -4.6626449 0)
(155.77837 -5.0059989 0)
(156.41922 -5.3469714 0)
(157.15439 -5.6644734 0)
(157.98597 -5.9304058 0)
(158.90397 -6.1117716 0)
(159.88345 -6.1784379 0)
(160.88888 -6.1128373 0)
(161.88436 -5.913951 0)
(162.84261 -5.5927962 0)
(163.74793 -5.1634858 0)
(164.59333 -4.6359244 0)
(165.37601 -4.0129136 0)
(166.09332 -3.2894687 0)
(166.73807 -2.4522418 0)
(167.29224 -1.4808994 0)
(167.72185 -0.35406251 0)
(167.97575 0.94198179 0)
(167.98399 2.4052832 0)
(167.64862 4.0054587 0)
(166.867 5.6507764 0)
(165.592 7.1649922 0)
(163.89973 8.3359312 0)
(161.97666 9.0292347 0)
(160.02752 9.2430067 0)
(158.20443 9.057362 0)
(156.59184 8.5851873 0)
(155.21816 7.9329404 0)
(154.07683 7.1853556 0)
(153.14355 6.402315 0)
(152.38796 5.6222379 0)
(151.78027 4.8672721 0)
(151.29428 4.1482212 0)
(150.90845 3.4684357 0)
(150.60573 2.8266002 0)
(150.37276 2.2186359 0)
(150.19952 1.6389692 0)
(150.08103 1.0811617 0)
(150.01763 0.53768747 0)
(152.54178 -2.879804 0)
(152.7815 -2.9149409 0)
(152.96176 -2.9850741 0)
(153.15971 -3.0941247 0)
(153.3716 -3.2422883 0)
(153.60416 -3.4304016 0)
(153.86398 -3.6591343 0)
(154.15911 -3.9286683 0)
(154.49926 -4.2381295 0)
(154.896 -4.5847363 0)
(155.36254 -4.9626007 0)
(155.91316 -5.3614233 0)
(156.56248 -5.7652582 0)
(157.32392 -6.1505961 0)
(158.2045 -6.483675 0)
(159.19542 -6.7216534 0)
(160.26586 -6.823647 0)
(161.3687 -6.7667867 0)
(162.45662 -6.5532367 0)
(163.49646 -6.2028056 0)
(164.47319 -5.7384161 0)
(165.38455 -5.1748584 0)
(166.23364 -4.51581 0)
(167.02423 -3.7542713 0)
(167.75556 -2.8713355 0)
(168.4135 -1.8362745 0)
(168.96247 -0.61392274 0)
(169.34329 0.82335784 0)
(169.472 2.4868586 0)
(169.21629 4.3601536 0)
(168.41528 6.3472031 0)
(166.96902 8.2137634 0)
(164.96627 9.6418757 0)
(162.6795 10.429065 0)
(160.40122 10.595946 0)
(158.32696 10.273422 0)
(156.54861 9.6265362 0)
(155.08116 8.7966257 0)
(153.89884 7.8873993 0)
(152.95927 6.9661157 0)
(152.21794 6.0718564 0)
(151.63504 5.2241938 0)
(151.17781 4.4302243 0)
(150.82062 3.6895487 0)
(150.54402 2.9975262 0)
(150.33333 2.3473114 0)
(150.17788 1.7311079 0)
(150.07212 1.1406982 0)
(150.01568 0.56700786 0)
(152.93699 -3.0310644 0)
(153.14049 -3.0701503 0)
(153.29541 -3.1468612 0)
(153.46664 -3.2656855 0)
(153.65135 -3.4272507 0)
(153.85599 -3.6331077 0)
(154.08727 -3.8848688 0)
(154.3537 -4.1838773 0)
(154.66593 -4.5306117 0)
(155.03721 -4.9237319 0)
(155.4834 -5.3585665 0)
(156.02239 -5.8253328 0)
(156.67363 -6.3075815 0)
(157.4574 -6.7795928 0)
(158.38868 -7.2009815 0)
(159.46226 -7.5149749 0)
(160.63985 -7.6635589 0)
(161.85728 -7.6146626 0)
(163.05022 -7.375042 0)
(164.17755 -6.9781597 0)
(165.22681 -6.4605428 0)
(166.20376 -5.8441833 0)
(167.12002 -5.1345157 0)
(167.98793 -4.3239731 0)
(168.81607 -3.3897498 0)
(169.59719 -2.2900785 0)
(170.29528 -0.9723099 0)
(170.84295 0.6105104 0)
(171.14351 2.4900811 0)
(171.02501 4.6786392 0)
(170.24136 7.0944231 0)
(168.5961 9.4336089 0)
(166.18203 11.207698 0)
(163.41157 12.09352 0)
(160.7165 12.166131 0)
(158.34554 11.639646 0)
(156.38986 10.756602 0)
(154.83682 9.7022155 0)
(153.63054 8.5999736 0)
(152.7037 7.5216335 0)
(151.99418 6.5033435 0)
(151.4508 5.5590038 0)
(151.034 4.6897281 0)
(150.71437 3.889844 0)
(150.4705 3.1504317 0)
(150.2869 2.4613164 0)
(150.1526 1.8121682 0)
(150.06175 1.1928356 0)
(150.01342 0.59262944 0)
(153.33169 -3.0768178 0)
(153.50078 -3.1160429 0)
(153.62882 -3.1954248 0)
(153.77115 -3.3198145 0)
(153.926 -3.490147 0)
(154.09947 -3.7086329 0)
(154.29829 -3.9778256 0)
(154.53128 -4.3003124 0)
(154.80995 -4.6781532 0)
(155.1493 -5.1119192 0)
(155.56818 -5.5988995 0)
(156.08871 -6.1306998 0)
(156.73613 -6.6913583 0)
(157.53982 -7.2544046 0)
(158.52746 -7.7735948 0)
(159.70195 -8.1744111 0)
(161.0159 -8.3732956 0)
(162.37902 -8.3244918 0)
(163.70036 -8.0441549 0)
(164.92693 -7.5894201 0)
(166.05132 -7.0193913 0)
(167.09188 -6.3662507 0)
(168.07141 -5.6359781 0)
(169.01247 -4.8188926 0)
(169.93708 -3.8864121 0)
(170.85099 -2.7790471 0)
(171.72207 -1.4149046 0)
(172.4772 0.28402311 0)
(173.01214 2.3776537 0)
(173.11575 4.9213707 0)
(172.42031 7.8764322 0)
(170.55375 10.866632 0)
(167.58159 13.127292 0)
(164.15062 14.105418 0)
(160.92371 14.004723 0)
(158.20685 13.174881 0)
(156.07174 11.973507 0)
(154.4537 10.637666 0)
(153.25146 9.3079467 0)
(152.36449 8.0544008 0)
(151.70971 6.9044393 0)
(151.22387 5.8619838 0)
(150.86106 4.9193395 0)
(150.58892 4.0638545 0)
(150.38491 3.2813684 0)
(150.23339 2.5578761 0)
(150.12367 1.8802827 0)
(150.04994 1.2364226 0)
(150.01084 0.61399918 0)
(153.75569 -3.2105226 0)
(153.88269 -3.2554259 0)
(153.98163 -3.3424551 0)
(154.09299 -3.477044 0)
(154.2157 -3.6606988 0)
(154.35516 -3.8966838 0)
(154.51781 -4.1890278 0)
(154.71249 -4.5422734 0)
(154.95118 -4.9609968 0)
(155.2503 -5.44893 0)
(155.63165 -6.0069174 0)
(156.12193 -6.6295714 0)
(156.75262 -7.3027586 0)
(157.56418 -8.0010853 0)
(158.60366 -8.6739725 0)
(159.89074 -9.2230159 0)
(161.368 -9.5216865 0)
(162.90495 -9.4972035 0)
(164.36898 -9.1778292 0)
(165.69041 -8.6551967 0)
(166.87323 -8.0208339 0)
(167.9584 -7.3168997 0)
(168.98529 -6.5442434 0)
(169.98919 -5.6889994 0)
(171.01177 -4.7215346 0)
(172.08125 -3.5675695 0)
(173.17389 -2.1154439 0)
(174.20834 -0.25761722 0)
(175.06621 2.089193 0)
(175.52436 5.0320931 0)
(175.04923 8.6560119 0)
(172.96252 12.558855 0)
(169.21551 15.5414 0)
(164.85468 16.579557 0)
(160.94683 16.174545 0)
(157.83669 14.893699 0)
(155.53883 13.26554 0)
(153.89572 11.581254 0)
(152.74048 9.9887703 0)
(151.93042 8.5449898 0)
(151.35922 7.2598638 0)
(150.95215 6.121717 0)
(150.65849 5.1107879 0)
(150.44443 4.2057094 0)
(150.28758 3.386239 0)
(150.17313 2.6341902 0)
(150.0913 1.9336068 0)
(150.03677 1.2703393 0)
(150.00798 0.63058291 0)
(154.13604 -3.1946801 0)
(154.22231 -3.2378808 0)
(154.29033 -3.3244944 0)
(154.36798 -3.4608639 0)
(154.45498 -3.6490463 0)
(154.55571 -3.8932512 0)
(154.67605 -4.1987671 0)
(154.82445 -4.5717861 0)
(155.01294 -5.0190315 0)
(155.25899 -5.547115 0)
(155.58751 -6.160519 0)
(156.03057 -6.8572032 0)
(156.62673 -7.6250474 0)
(157.4296 -8.4414955 0)
(158.5156 -9.2566587 0)
(159.93815 -9.9451346 0)
(161.63227 -10.313355 0)
(163.40427 -10.243878 0)
(165.05397 -9.7924559 0)
(166.48647 -9.1123511 0)
(167.72732 -8.353648 0)
(168.85533 -7.575037 0)
(169.93072 -6.7696699 0)
(170.99656 -5.9227066 0)
(172.11532 -5.0183379 0)
(173.3477 -3.9702192 0)
(174.68409 -2.6195439 0)
(176.03287 -0.79605065 0)
(177.28228 1.6461372 0)
(178.24498 4.9155033 0)
(178.21501 9.3274165 0)
(175.983 14.535079 0)
(171.15292 18.674787 0)
(165.44356 19.685658 0)
(160.66921 18.753507 0)
(157.13224 16.799793 0)
(154.72272 14.604311 0)
(153.12358 12.497233 0)
(152.07795 10.610403 0)
(151.39325 8.9683377 0)
(150.94036 7.5513281 0)
(150.63596 6.3253575 0)
(150.42752 5.2552413 0)
(150.28222 4.3094129 0)
(150.1796 3.4610137 0)
(150.10684 2.6875894 0)
(150.05591 1.9704255 0)
(150.02242 1.2935625 0)
(150.00486 0.64189686 0)
(154.44917 -3.3022392 0)
(154.48551 -3.3566727 0)
(154.51866 -3.4545545 0)
(154.55834 -3.6033086 0)
(154.60487 -3.8054389 0)
(154.66136 -4.0662379 0)
(154.73286 -4.3925657 0)
(154.82708 -4.792924 0)
(154.95558 -5.2773981 0)
(155.13606 -5.8576205 0)
(155.39586 -6.5454558 0)
(155.77243 -7.3477125 0)
(156.3106 -8.2600603 0)
(157.07565 -9.269768 0)
(158.18316 -10.341529 0)
(159.74876 -11.327795 0)
(161.7094 -11.924422 0)
(163.76891 -11.91902 0)
(165.61625 -11.407361 0)
(167.11991 -10.628215 0)
(168.3471 -9.8215919 0)
(169.4433 -9.0578399 0)
(170.49719 -8.2998286 0)
(171.55037 -7.5092771 0)
(172.69261 -6.6866673 0)
(174.0481 -5.7210599 0)
(175.64976 -4.3714346 0)
(177.40807 -2.3761617 0)
(179.22605 0.47500093 0)
(181.00097 4.3266749 0)
(181.86788 9.7701144 0)
(179.76964 16.835904 0)
(173.45905 22.958851 0)
(165.74647 23.683951 0)
(159.90419 21.828253 0)
(155.95016 18.869608 0)
(153.54168 15.933063 0)
(152.09817 13.33005 0)
(151.24923 11.129254 0)
(150.75032 9.2935247 0)
(150.45538 7.7579974 0)
(150.27891 6.4592285 0)
(150.17159 5.3438305 0)
(150.10503 4.3692424 0)
(150.06289 3.5020127 0)
(150.03575 2.7157266 0)
(150.01815 1.9892765 0)
(150.00716 1.3052389 0)
(150.00155 0.6475423 0)
(154.38531 -3.2264131 0)
(154.36104 -3.2763484 0)
(154.35209 -3.3656572 0)
(154.34548 -3.5056648 0)
(154.34209 -3.7001654 0)
(154.34314 -3.9560684 0)
(154.35202 -4.2822211 0)
(154.37465 -4.6898349 0)
(154.4205 -5.1926667 0)
(154.50529 -5.8074395 0)
(154.65648 -6.5534337 0)
(154.91618 -7.4463652 0)
(155.33501 -8.4870482 0)
(155.98634 -9.666383 0)
(157.0363 -10.969697 0)
(158.7181 -12.239147 0)
(161.00761 -12.990444 0)
(163.44219 -12.819351 0)
(165.52458 -11.932101 0)
(167.06703 -10.721724 0)
(168.2104 -9.6087528 0)
(169.22024 -8.6682226 0)
(170.23033 -7.7968915 0)
(171.25942 -6.8995242 0)
(172.42045 -6.0540438 0)
(173.93751 -5.1960512 0)
(175.90351 -4.0102297 0)
(178.21013 -2.1967332 0)
(180.68137 0.51389246 0)
(183.37351 4.015088 0)
(185.59558 9.8510448 0)
(184.21842 19.141193 0)
(175.99469 28.862683 0)
(165.32564 28.721179 0)
(158.34142 25.418851 0)
(154.09603 21.018278 0)
(151.90623 17.149383 0)
(150.78834 13.997867 0)
(150.25051 11.488966 0)
(150.00811 9.4845537 0)
(149.913 7.8576918 0)
(149.88886 6.5098698 0)
(149.8968 5.3684177 0)
(149.91719 4.3802704 0)
(149.94031 3.5062462 0)
(149.96157 2.7167921 0)
(149.97892 1.9890829 0)
(149.99135 1.3047621 0)
(149.99812 0.64724094 0)
(153.47561 -3.256142 0)
(153.37705 -3.3298646 0)
(153.30978 -3.4386781 0)
(153.23682 -3.5987933 0)
(153.16066 -3.8142984 0)
(153.08018 -4.0930022 0)
(152.99649 -4.4446985 0)
(152.91279 -4.8820141 0)
(152.83543 -5.420881 0)
(152.77658 -6.0815746 0)
(152.76201 -6.8904631 0)
(152.83887 -7.8764364 0)
(153.06517 -9.0553825 0)
(153.51259 -10.4341 0)
(154.39402 -12.057064 0)
(156.14055 -13.846326 0)
(158.8497 -15.094564 0)
(161.75874 -14.978289 0)
(164.04123 -13.952288 0)
(165.43468 -12.558992 0)
(166.22819 -11.49184 0)
(166.92114 -10.755765 0)
(167.71743 -10.14932 0)
(168.53755 -9.4729424 0)
(169.45584 -9.0181396 0)
(170.86712 -8.8483547 0)
(172.96928 -8.2920828 0)
(175.65779 -7.0428943 0)
(178.57216 -4.4765431 0)
(182.42926 -0.72728573 0)
(187.15839 7.2307658 0)
(188.24556 20.228467 0)
(177.92812 36.681028 0)
(163.24699 34.969196 0)
(155.5947 29.536037 0)
(151.35119 23.102781 0)
(149.73668 18.092287 0)
(149.1848 14.388258 0)
(149.09723 11.621623 0)
(149.18648 9.5029438 0)
(149.33031 7.829158 0)
(149.47858 6.4656283 0)
(149.61204 5.3226113 0)
(149.72459 4.3389849 0)
(149.81557 3.4717861 0)
(149.88647 2.6897352 0)
(149.93934 1.9692821 0)
(149.97543 1.2918438 0)
(149.99467 0.64086756 0)
(150.27861 -3.1552683 0)
(150.03198 -3.2213442 0)
(149.86064 -3.3060065 0)
(149.67254 -3.4358298 0)
(149.47246 -3.6160312 0)
(149.25557 -3.8554383 0)
(149.01942 -4.1649126 0)
(148.76261 -4.5592249 0)
(148.48548 -5.0584063 0)
(148.19176 -5.6900256 0)
(147.89692 -6.494419 0)
(147.64242 -7.5277658 0)
(147.48317 -8.843169 0)
(147.45914 -10.471256 0)
(147.78384 -12.507504 0)
(149.20302 -15.035362 0)
(152.18258 -17.053632 0)
(155.43125 -16.589298 0)
(157.5861 -14.746133 0)
(158.33639 -12.183461 0)
(158.23481 -10.348645 0)
(158.16906 -9.1901395 0)
(158.40396 -8.4350454 0)
(158.60251 -7.524757 0)
(158.71873 -7.0237648 0)
(159.66765 -7.0176178 0)
(161.78113 -5.9947866 0)
(164.94962 -4.8735822 0)
(168.68335 -1.9567618 0)
(175.06207 4.1667693 0)
(184.04686 12.175431 0)
(189.65396 24.095431 0)
(176.92314 49.629302 0)
(157.54553 45.387774 0)
(150.91436 34.317507 0)
(147.40324 24.793055 0)
(146.95732 18.491098 0)
(147.31608 14.34994 0)
(147.83444 11.452161 0)
(148.32309 9.3129411 0)
(148.73401 7.6556656 0)
(149.06588 6.3187888 0)
(149.32881 5.2029574 0)
(149.53445 4.2439435 0)
(149.69303 3.3981254 0)
(149.81295 2.6344618 0)
(149.90068 1.9299353 0)
(149.95989 1.266572 0)
(149.99131 0.62847584 0)
(143.5099 -2.9198272 0)
(143.10987 -3.0121925 0)
(142.7997 -3.1137185 0)
(142.45147 -3.2633169 0)
(142.07689 -3.4659032 0)
(141.66672 -3.7316158 0)
(141.21292 -4.0727749 0)
(140.70609 -4.5065457 0)
(140.13586 -5.0566958 0)
(139.49026 -5.7559298 0)
(138.76264 -6.6519245 0)
(137.97551 -7.8156709 0)
(137.18231 -9.3207429 0)
(136.39285 -11.178065 0)
(135.76004 -13.444297 0)
(136.50386 -16.540639 0)
(140.14376 -19.656619 0)
(144.25781 -18.174224 0)
(146.43866 -15.446628 0)
(146.26447 -11.967183 0)
(144.63857 -10.768965 0)
(143.25526 -10.900757 0)
(142.63852 -11.370378 0)
(142.04304 -10.884921 0)
(141.16563 -10.369116 0)
(141.99173 -10.532129 9.21577e-18)
(143.27224 -11.921802 -2.0396626e-19)
(145.57726 -13.589594 0)
(146.66477 -7.4755454 1.0016067e-17)
(144.0282 -14.51005 -7.4990619e-18)
(161.53017 -10.135072 4.4273291e-18)
(180.41243 5.4383808 -9.8916344e-18)
(167.93165 72.289495 6.3471821e-18)
(142.12824 58.02922 0)
(140.66652 37.126151 0)
(141.63428 24.706923 0)
(143.57067 17.830773 0)
(145.29833 13.69264 0)
(146.55469 10.912848 0)
(147.47727 8.8913057 0)
(148.16032 7.3301402 0)
(148.67269 6.0680693 0)
(149.06042 5.0101299 0)
(149.35481 4.0963441 0)
(149.57745 3.2864567 0)
(149.74366 2.5519728 0)
(149.86425 1.8717967 0)
(149.94526 1.2294451 0)
(149.98814 0.61031296 0)
(129.54799 -2.8693147 0)
(128.76409 -2.944658 0)
(128.16038 -3.0084931 0)
(127.4861 -3.1100027 0)
(126.76119 -3.25111 0)
(125.96659 -3.4389886 0)
(125.08413 -3.6816047 0)