/*--------------------------------*- C++ -*----------------------------------*\
| =========                 |                                                 |
| \\      /  F ield         | foam-extend: Open Source CFD                    |
|  \\    /   O peration     | Version:     4.1                                |
|   \\  /    A nd           | Web:         http://www.foam-extend.org         |
|    \\/     M anipulation  |                                                 |
\*---------------------------------------------------------------------------*/
FoamFile
{
    version     2.0;
    format      ascii;
    class       volScalarField;
    location    "0.6";
    object      p;
}
// * * * * * * * * * * * * * * * * * * * * * * * * * * * * * * * * * * * * * //

dimensions      [0 2 -2 0 0 0 0];

internalField   nonuniform List<scalar> 
4242
(
-0.59684554
-0.57946007
-0.56210784
-0.54052815
-0.51639447
-0.48888465
-0.45793703
-0.42361495
-0.3862035
-0.34628804
-0.30476296
-0.2627751
-0.22168709
-0.1832039
-0.14879018
-0.11554655
-0.70565168
-0.68351467
-0.6647476
-0.6418838
-0.61659506
-0.58810777
-0.5565414
-0.52195058
-0.4845137
-0.4445646
-0.40261189
-0.35933907
-0.31561797
-0.27267711
-0.2320678
-0.19363905
-0.87638108
-0.84906756
-0.82828817
-0.80218053
-0.77324663
-0.74059503
-0.70437475
-0.66459851
-0.62146286
-0.57532943
-0.5267317
-0.47636155
-0.42503604
-0.37371663
-0.32362839
-0.27667357
-1.0805811
-1.0481754
-1.0248903
-0.99401834
-0.95987052
-0.92112428
-0.87793948
-0.83026176
-0.77830511
-0.72249195
-0.6634819
-0.60216608
-0.53962313
-0.47702742
-0.41557902
-0.35765984
-1.2355965
-1.199154
-1.1744062
-1.1399116
-1.1022432
-1.0592253
-1.0111169
-0.95778014
-0.89942532
-0.83648705
-0.7696815
-0.70000409
-0.62869418
-0.55714146
-0.48665805
-0.41846868
-1.3171279
-1.2778677
-1.2527322
-1.2163195
-1.1771357
-1.1321451
-1.0817947
-1.0258803
-0.96460359
-0.89838426
-0.8279412
-0.75428718
-0.67869652
-0.60264113
-0.52762129
-0.45580757
-1.3257909
-1.2854842
-1.2610136
-1.2245894
-1.1856635
-1.1408928
-1.0908
-1.0351795
-0.97421879
-0.90832338
-0.83819476
-0.76482383
-0.68945638
-0.61353988
-0.53846746
-0.46658911
-1.2637811
-1.2244768
-1.2013916
-1.1667898
-1.1296149
-1.0870182
-1.0393854
-0.9865869
-0.92880935
-0.86646032
-0.80021864
-0.7310242
-0.66003583
-0.58858726
-0.51784247
-0.45007962
-1.1361513
-1.100023
-1.0789857
-1.0480025
-1.014162
-0.97572909
-0.93282525
-0.88541111
-0.83368407
-0.77804891
-0.7191411
-0.65781465
-0.59510004
-0.53219299
-0.47013084
-0.410902
-0.95162088
-0.92081263
-0.90234562
-0.87664343
-0.8478438
-0.81552097
-0.77961048
-0.74010989
-0.69721912
-0.65130808
-0.60291454
-0.55272666
-0.50153697
-0.45024451
-0.39963232
-0.35127411
-0.71732959
-0.69432024
-0.67951441
-0.66063929
-0.63894026
-0.61491674
-0.58851526
-0.55968841
-0.52858516
-0.4954834
-0.46074105
-0.42475507
-0.38789133
-0.35043903
-0.31237544
-0.27350134
-0.50589837
-0.49157472
-0.4807227
-0.46913367
-0.45469662
-0.43789643
-0.41930618
-0.39916872
-0.37771673
-0.35526416
-0.33213049
-0.30854165
-0.28454172
-0.25997949
-0.23449163
-0.20560397
-0.16396219
-0.15213114
-0.14223249
-0.13042004
-0.11723804
-0.10270553
-0.086971842
-0.070291149
-0.053025148
-0.035639281
-0.018683249
-0.0027677898
0.011389249
0.022962625
0.032066197
0.041463241
0.057871549
0.065570084
0.072523123
0.080343887
0.08881791
0.097829804
0.10717925
0.11657159
0.12560997
0.13380092
0.14058306
0.14536862
0.14754365
0.14644765
0.14181094
0.13534063
0.2657113
0.26975762
0.27350936
0.27746327
0.28146049
0.28529468
0.28868121
0.29124838
0.29254014
0.29203691
0.28920006
0.28351843
0.27449895
0.26168069
0.24527885
0.22789578
0.4306574
0.43207973
0.43322052
0.43405052
0.43438457
0.43395765
0.43242619
0.42936618
0.42428309
0.41664207
0.40591883
0.39163665
0.37333906
0.35066143
0.32417118
0.29704906
0.53591213
0.53592341
0.53552002
0.53448942
0.53259173
0.52951625
0.52487763
0.51821962
0.50903251
0.49679113
0.48100693
0.46125138
0.43712671
0.40848934
0.37682273
0.34713234
-0.87832349
-0.85099597
-0.83019646
-0.80406521
-0.77509439
-0.74239327
-0.7061063
-0.66624477
-0.62300619
-0.57675776
-0.52804412
-0.47757209
-0.4261732
-0.37484965
-0.32496993
-0.27839399
0.55969231
0.55918772
0.55817095
0.55646997
0.55385258
0.55002687
0.54463963
0.5372794
0.52748911
0.514793
0.49873935
0.47895158
0.45517783
0.42738294
0.3960333
0.36272223
0.56077517
0.56025705
0.55921064
0.55746206
0.55477605
0.55085823
0.5453548
0.5378572
0.52791635
0.51507046
0.49888637
0.47900642
0.45520053
0.42749199
0.39651431
0.36408328
0.53656728
0.53656167
0.53613094
0.53506078
0.53310859
0.52996129
0.52523219
0.51846578
0.50915677
0.49678967
0.48089088
0.46104822
0.4368852
0.40832594
0.37700625
0.34789655
0.42967696
0.43111074
0.43226424
0.43310387
0.43344179
0.43301035
0.43146348
0.42837534
0.42325127
0.41556083
0.40478985
0.39045717
0.37202234
0.34897209
0.32223934
0.29701835
0.2641219
0.26820758
0.27200228
0.27600536
0.28005812
0.28395382
0.28740741
0.29004668
0.29141529
0.29099678
0.28826301
0.2826929
0.27364763
0.26037439
0.24370854
0.23011528
0.057233422
0.064976363
0.071970314
0.07984361
0.088382599
0.097473877
0.10691961
0.11642792
0.12560482
0.13396118
0.14094429
0.14596878
0.14837576
0.14744744
0.14310073
0.13678369
-0.16345749
-0.1515994
-0.14169128
-0.12986107
-0.11665824
-0.10210148
-0.086340062
-0.069628388
-0.052329577
-0.034912147
-0.017930212
-0.0020047469
0.012105908
0.023479286
0.032144021
0.041235635
-0.50870293
-0.4943538
-0.48347446
-0.47184828
-0.45736108
-0.44049356
-0.42181317
-0.40155679
-0.37995154
-0.35730671
-0.33393802
-0.31006602
-0.28571601
-0.26068634
-0.23433384
-0.20491589
-0.72013252
-0.69709464
-0.68225874
-0.66334272
-0.64159075
-0.61749813
-0.59100809
-0.56207119
-0.53083649
-0.49758602
-0.46268775
-0.42655638
-0.38958389
-0.35211758
-0.31419763
-0.27648688
-0.9544132
-0.92357582
-0.9050785
-0.87933524
-0.85048262
-0.81809073
-0.78209252
-0.74248488
-0.69946995
-0.65342508
-0.60490165
-0.55460637
-0.50334917
-0.45204965
-0.4014124
-0.35325495
-1.1388917
-1.1027358
-1.0816695
-1.0506464
-1.0167536
-0.97825162
-0.93525948
-0.88773756
-0.83588656
-0.78012069
-0.72109169
-0.65967446
-0.59691991
-0.53404539
-0.47202008
-0.41317045
-1.2664064
-1.2270778
-1.2039654
-1.1693255
-1.1320991
-1.0894335
-1.0417112
-0.98880233
-0.93089709
-0.86841296
-0.8020453
-0.73275388
-0.66171438
-0.59025935
-0.51945075
-0.45184378
-1.3282803
-1.2879527
-1.2634574
-1.2269985
-1.1880232
-1.1431858
-1.0930046
-1.037274
-0.97618506
-0.91015326
-0.83989692
-0.7664273
-0.69100621
-0.61506585
-0.5399242
-0.46822462
-1.3194921
-1.2802141
-1.255057
-1.2186135
-1.1793839
-1.1343307
-1.0838961
-1.0278758
-0.96647491
-0.90012307
-0.82955589
-0.75580699
-0.68016444
-0.60407799
-0.52902189
-0.45738303
-1.2378444
-1.2013864
-1.1766194
-1.1420978
-1.1043873
-1.0613113
-1.0131239
-0.9596869
-0.90121388
-0.83814915
-0.77122597
-0.70146167
-0.63010815
-0.55854031
-0.48810392
-0.42011648
-1.0827057
-1.0502859
-1.0269823
-0.9960858
-0.96189872
-0.92309828
-0.87983937
-0.83206694
-0.77999758
-0.72406258
-0.66493813
-0.60353699
-0.54095167
-0.47836443
-0.4170609
-0.35942452
-0.70724925
-0.68510315
-0.66632033
-0.64344182
-0.61812779
-0.58960663
-0.5579939
-0.52334169
-0.48582656
-0.44578254
-0.40372158
-0.36033583
-0.31651863
-0.27355962
-0.2330854
-0.19451552
-0.59793577
-0.58055701
-0.56320671
-0.54163749
-0.51750666
-0.48999219
-0.45902661
-0.42466727
-0.38719403
-0.34719105
-0.30556033
-0.26347384
-0.22234549
-0.18395462
-0.14982239
-0.11700601
-0.050183614
-0.046809883
-0.04300767
-0.040603176
-0.041184819
-0.045249682
-0.052443998
-0.062299015
-0.074245799
-0.087390861
-0.10048717
-0.11206187
-0.12060357
-0.12483258
-0.12431273
-0.11852607
-0.081552699
-0.079316442
-0.078189659
-0.077734135
-0.076874519
-0.075892836
-0.076364452
-0.079676735
-0.085740267
-0.092950137
-0.099753498
-0.10471421
-0.10652681
-0.10437661
-0.098391395
-0.089290596
-0.12068772
-0.11814041
-0.11624716
-0.1147246
-0.11382942
-0.11409695
-0.1153211
-0.11640092
-0.11639104
-0.11590331
-0.11485773
-0.11080262
-0.10202877
-0.088365463
-0.071026962
-0.05168391
-0.14733723
-0.14545205
-0.14407583
-0.14321832
-0.14295469
-0.14352084
-0.14537634
-0.14932628
-0.15594921
-0.16190078
-0.15862616
-0.14281968
-0.11716492
-0.084452276
-0.049947775
-0.017151356
-0.10448385
-0.1043764
-0.1048873
-0.10617366
-0.10833433
-0.11146366
-0.11564892
-0.12094634
-0.12682738
-0.13063308
-0.1277196
-0.11340479
-0.087338027
-0.050353991
-0.010134279
0.027814276
-0.026273151
-0.0273148
-0.029140048
-0.03182089
-0.035421116
-0.039920611
-0.045149308
-0.05075462
-0.056195363
-0.060471868
-0.060965528
-0.052471513
-0.030655604
1.0827212e-06
0.032145422
0.067812751
-0.029532409
-0.030560023
-0.032347394
-0.034969265
-0.038490604
-0.042894944
-0.048020444
-0.053534635
-0.058937707
-0.063239165
-0.063621158
-0.054620209
-0.032303684
-0.0013732404
0.031202915
0.066859993
-0.10849277
-0.10834198
-0.10880843
-0.11005204
-0.11216972
-0.1152541
-0.11938801
-0.12461425
-0.13037609
-0.1339162
-0.13030566
-0.11539338
-0.088701506
-0.051123241
-0.0098595574
0.031101887
-0.15124025
-0.1493139
-0.14791005
-0.1470321
-0.14675025
-0.14729859
-0.14914016
-0.15307969
-0.15955858
-0.16491519
-0.16076562
-0.14416773
-0.11773644
-0.0841728
-0.048509786
-0.013737906
-0.12427788
-0.12169989
-0.1197943
-0.11827203
-0.11739069
-0.11767716
-0.11889062
-0.11989491
-0.11976856
-0.11907683
-0.1175599
-0.11281908
-0.10320536
-0.088548149
-0.070078932
-0.049222085
-0.084773387
-0.082519236
-0.081389534
-0.080943334
-0.080095125
-0.079130286
-0.079616107
-0.082901631
-0.088835084
-0.095807964
-0.10227094
-0.10679667
-0.10810758
-0.10543111
-0.099038168
-0.088875837
-0.05310832
-0.049720749
-0.04590778
-0.043495358
-0.044064366
-0.048099244
-0.055242253
-0.065021016
-0.076859144
-0.089854117
-0.10275034
-0.11406941
-0.12230367
-0.12621688
-0.12556842
-0.11921726
-0.28412074
-0.35220772
-0.33256129
-0.31473385
-0.29379018
-0.27040454
-0.24494215
-0.2176881
-0.18919176
-0.16020349
-0.13157949
-0.10435139
-0.079943591
-0.058854402
-0.036520342
-0.28529962
-0.35303236
-0.33345079
-0.31561413
-0.29465682
-0.27125079
-0.24575688
-0.21845587
-0.18989715
-0.16083576
-0.13214312
-0.10486512
-0.080392888
-0.059046897
-0.037072914
-0.15851154
-0.22747244
-0.22831849
-0.22156927
-0.21863663
-0.21707791
-0.21530697
-0.2130293
-0.2101466
-0.20640763
-0.20137645
-0.1944449
-0.18502447
-0.17289511
-0.15146462
-0.15587408
-0.22462789
-0.2254704
-0.21874986
-0.21586243
-0.21437215
-0.21269793
-0.21055077
-0.20783955
-0.20432122
-0.19956816
-0.19298396
-0.1839327
-0.17239308
-0.15505206
-0.19973738
-0.20144821
-0.16925077
-0.16675229
-0.0108405
-0.03437446
0.10349467
-0.03246743
-0.072540294
0.0048292059
0.0084453276
0.020043064
0.019782785
-0.02292904
-0.029174508
8.1446296e-05
0.063325358
-0.060132831
0.012335216
-0.084649912
-0.022670996
-0.11401914
-0.079672412
-0.080980678
-0.088012365
0.065959499
0.021990485
0.026416072
0.041448471
0.0045064717
-0.018831367
-0.082368603
-0.039786782
-0.14546975
0.0054970756
-0.015443854
-0.038226652
-0.058561879
0.054070575
-0.030039303
0.0010672204
0.050244833
-0.037203638
-0.025285187
0.04183596
0.00072665905
0.019394332
-0.14171563
0.019124731
0.13120379
-0.011530562
0.037059036
0.016068043
0.015686374
-0.18702938
0.22917329
0.065430251
-0.031529565
-0.17006007
-0.049849034
-0.033805239
0.009144468
0.025899226
-0.018355309
-0.015593255
0.015774916
0.01479603
-0.022115145
-0.2011165
-0.018664843
0.003844763
-0.0097069111
-0.036398482
-0.012474598
0.0092431096
-0.069322095
0.012988156
-0.00082870404
-0.0010569741
0.022525425
-0.031628852
0.0098238569
-0.0024298254
-0.0019292675
-0.010104211
-0.14924968
-0.15465209
-0.015654388
-0.028183133
-0.043370749
0.024500747
-0.00012165221
-0.16584483
-0.0010135371
-0.023076275
0.0029871888
0.1465716
-0.048721181
0.043538675
0.053898828
5.6204903e-05
0.11649426
-0.18354399
0.059289066
-0.00079510208
-0.026460922
0.0039594008
0.0008557715
-0.025195805
-0.065599034
-0.035486497
-0.00070243402
-0.03674131
-0.15022512
-0.20175941
0.07650655
-0.038962923
0.038715927
-0.08965071
-0.0021204804
0.088509353
0.00077405303
-0.00043793281
0.080283073
0.073910275
-0.039922208
0.069060416
-0.036837865
-0.12599402
0.055032052
-0.014065181
-0.15741213
-0.038864593
0.067048691
-0.046689521
0.039278446
0.00036715103
0.00057781989
0.0029310402
-0.048796493
0.12144745
-5.1157798e-05
-0.18743985
-0.022377828
0.042422884
-0.027572284
-0.075294104
-0.018081554
-0.00019469059
-9.9886593e-05
-0.02013505
-0.034750658
-0.0078469481
0.013321284
0.012597649
-0.016956729
0.0087715753
0.087501048
-0.0014117081
0.037277787
-0.16280573
-0.015076275
-0.0026120226
0.00082995938
-0.37570335
-0.37533736
0.047420564
0.068841457
-0.011466836
-0.00021726512
-0.008247978
0.01228731
-0.081254179
-0.00011456002
-0.075745193
0.13790656
0.013527249
0.0011304661
-0.014786596
0.046695824
-0.0060409504
-0.00029164929
-0.019820027
-0.011489751
0.01575733
-0.074152437
-0.057695954
0.0089787562
0.015050994
0.021051251
0.044329514
0.004633387
0.017148524
-0.030116705
-0.0010820315
0.0024616282
-0.092318905
0.079205355
-0.017832062
0.027957654
0.0014791684
0.005916768
0.0095361824
0.15419575
0.015266748
0.011804326
-0.1104564
-0.0073267543
0.070139845
0.026867396
0.058420981
-0.0026882249
0.086354551
0.00074311114
-0.017505505
-0.010406658
-0.0082127396
0.0072736955
-0.00092332778
0.00053497484
-0.0010392306
0.038092495
0.051179957
0.038280185
-0.031320646
-0.0402049
-0.0034166955
-0.00053304171
-0.027866923
0.093255639
0.071810024
-0.00044560182
-0.04764152
0.035951254
0.089945313
0.10311672
-0.0012701623
-0.057309508
-0.10212417
0.007294581
-0.0042514272
0.041212351
-0.028008542
-0.0010723563
0.0053419166
0.00067591974
0.01371524
-0.057383102
0.09885529
-0.0165859
-0.054612857
0.026918942
0.0022156445
-0.061240964
0.015967378
0.14330694
0.00075942428
0.00056990756
-0.068406568
0.00041106448
0.060400123
0.011431456
-0.00094385868
-0.024640771
-0.031526459
8.994559e-05
-0.0008268394
-0.0014312734
-0.018560918
-0.0056367306
0.0048590221
-0.038206028
0.0014665703
-0.02452641
0.0013543554
-0.020596278
-0.0074937929
0.062548317
-0.086804176
-0.002143409
0.090185203
0.072229063
-0.0080910647
0.002963492
-0.0049939072
-0.00050445969
0.0051427942
-0.13378487
0.050248401
-0.091194243
0.0031358937
-0.012415924
0.01297737
-0.005942113
0.015099024
0.057297348
-0.13022815
0.00023148557
0.090767603
-0.040434845
0.0069447315
0.043007528
0.011277172
-0.036853377
0.0091612091
-0.099535374
-0.068936155
0.10573964
0.14169118
-0.043651522
0.010106944
-0.0054785034
-0.021643371
0.048619522
-0.10612801
-0.032961851
0.0023893254
-0.037552297
-0.0107359
0.00045675526
0.0092457403
0.0042900666
0.17224308
-0.035431495
-0.11303691
0.056651938
0.00021218803
-0.00080354324
0.0055647027
-0.017678159
-0.1176883
0.0022439161
0.0022906928
-7.9221769e-05
0.22703542
-0.0077168737
-0.014816317
0.034834983
-0.041198881
-0.10380814
-0.024144407
0.0013574362
-0.0015285781
0.0045220808
-0.14217035
-0.043053982
0.0030936606
0.079614847
-1.5989564e-05
0.0025588396
-0.13732865
0.0087676065
-0.068904037
0.00055018223
0.00098418851
-0.20510557
0.031095593
0.011257155
-0.019578938
-0.13856931
-0.037370279
0.0020265108
-0.1133347
0.023593161
0.014515909
0.030452163
0.00041394711
-0.18857741
0.11462171
0.053278586
0.012239706
-0.1372525
0.0015677037
0.064703217
-0.13500625
-0.16270325
0.15017635
-0.0050036095
0.010201557
0.016142476
0.033858753
-0.05602379
-0.15886266
0.011606083
-0.048364291
0.067323773
0.053274377
-0.016104008
-0.055113478
-0.011698899
-0.025486737
4.0663152e-05
0.0085811207
-0.21304232
0.00041044352
0.012761298
-0.20881835
0.0012912431
0.010809389
-0.024872033
-0.0029586781
0.032429759
0.20904831
-0.038813062
0.0003517471
-0.062298955
0.0049779727
-0.10684908
0.034064881
-0.051176315
-0.018429589
-0.0050196919
0.028506745
0.0010601173
-0.012498044
0.028344861
-0.00086277062
-0.010164984
-0.0093375485
0.01183896
0.013181292
-9.8472966e-05
-0.027622438
0.0012209592
-0.039479891
-0.00070135049
-0.018017808
0.02331818
0.070421955
0.10756352
-0.11150019
0.00074599801
0.05785197
0.0041632838
0.014690664
0.013008149
-0.034774061
-0.03694244
0.082716021
0.0078144014
0.0028335237
-0.10481624
-0.10201992
-0.017917222
-0.15532322
-0.087238348
-0.027554022
0.002912999
-0.11460807
-0.040842376
0.00045992221
0.00017394484
-0.019409057
0.034873629
0.00081262917
-0.078431223
-0.11161351
0.0005061024
-0.057550214
0.0078572232
-0.040103155
-0.0080818303
0.00035811912
0.014619187
0.01589445
0.079269768
0.0096749738
-0.028669137
0.010238861
0.029172629
0.024416556
0.046295487
0.059524454
-0.034174864
0.034187091
-0.00047269065
0.097475271
-0.0077452314
-0.0062269518
-0.034768102
-0.0014819904
-0.00019108588
0.23523087
-0.0021079579
-0.033753912
-0.098606347
-0.04776997
8.512491e-05
-0.073403937
-0.15674816
0.0027510595
0.039719306
0.022490351
-0.18379737
0.048826252
0.00022028847
-0.057479374
-0.030090494
-0.15278374
-0.032163508
-0.0059881061
0.018099575
0.00076599875
-0.01420375
0.019870003
-0.008385674
0.10086861
0.012215111
0.011005545
-0.051264026
-0.35983806
-0.025104304
0.00028066793
0.063803227
0.0011680923
-0.0021927514
-0.038067832
-0.019598331
-0.099046191
-0.35937719
-0.0032658372
0.025349397
-0.0026240625
0.030412798
-0.0016135189
-0.027701188
0.019622439
-0.0044601451
-0.17982152
-0.016069786
-0.10614383
0.015140207
-0.1476037
0.070837615
0.013681385
-0.15997388
0.067666981
0.0073026153
-0.20919176
0.064743453
0.01720342
0.017443418
0.027726236
0.024837025
-0.33305437
-0.052033958
-0.11912153
0.00096965324
-0.11563663
0.085764144
0.031382952
0.030997841
0.01524454
-0.045530703
-0.026631989
0.0037355956
-0.00020803473
0.06181065
-0.096771596
-0.03309574
0.0053561195
-0.33383883
0.10436179
-0.12860547
-0.049706741
-0.0081824485
-0.15427373
-0.091628715
-0.0016072766
-0.21765108
-0.04093678
-0.012366556
0.025626698
0.02722722
-0.027318277
-0.10036939
-0.13799723
0.066030704
0.10080819
0.094530635
0.017611522
9.1922751e-05
0.029934142
0.058321308
0.10626833
0.044703352
0.14301197
0.0013266868
0.023728124
0.044580576
0.0012119511
-0.021424901
0.005814802
0.037887487
0.071202289
0.018525964
-0.21296648
0.02455414
-0.007594323
0.23472591
0.033836721
-0.00038339406
0.22470539
0.067343838
-0.029229106
-0.033083063
0.07128432
0.22319555
-0.086814809
-0.010217265
0.053802311
-0.0030182695
0.13071306
0.053942758
0.058896426
-0.036794414
1.5321544e-05
0.084067699
0.060043129
0.23350057
0.017199903
0.0019117606
0.024161326
-0.053175469
-0.057119914
-0.037696631
-0.18406174
0.23306138
-0.024172695
-0.00059441688
-0.024821868
0.10851275
0.087140589
-0.10127904
-0.094856817
0.0061381245
0.054269642
-0.11958626
-0.17977971
-0.050341674
-0.082106462
0.013663915
0.013130115
-0.0068973718
-0.019606582
-0.0085629142
0.018454974
-0.022335614
-0.070485092
0.037295881
-0.033743171
-0.0098773662
-0.11473824
0.19099118
-0.083428561
0.014038815
-0.00042356325
0.0076898958
0.025205125
-0.026122984
0.21996192
-0.024106662
0.00037579101
0.039424996
-0.00037319641
-0.17717261
-0.0010640588
-0.046147163
0.0013849412
-0.02452939
0.011337229
-0.11873359
0.098362196
-0.1235011
0.0018203445
0.020879085
-0.07671892
0.076367082
-0.0017160552
0.1057092
-0.02055205
0.27789845
-0.0067397545
-0.017573525
-0.17376851
0.16697246
-0.13040996
0.00039531313
0.0012672984
0.0033887215
0.0024181738
-0.16847543
0.030701764
0.024283808
0.019715656
-0.3092149
0.0018660942
0.039000032
-0.00079147315
-0.30935273
0.024726571
0.0010139445
-0.085028056
0.00036901264
0.0037771228
0.061097286
-0.043375611
-0.23146405
0.019413877
-0.018395497
5.8771027e-05
0.00096953817
-0.034072371
-0.049363205
0.031366758
-0.0088888399
0.047701829
-0.017470654
0.095706803
-0.22857326
-0.0078101003
-0.023419319
-0.22394652
0.028347209
0.061914608
0.00010652359
-0.041429384
-0.00093197957
0.055524384
0.047442444
-0.05638772
0.012451463
0.00043809702
-0.030428805
0.032926716
0.092535058
0.025624767
-0.0087576631
0.077692639
0.0021073823
-0.22409949
0.041009412
-0.0072994603
-0.0664
-0.0051761304
-0.015117658
-0.035489639
-0.0015185829
-0.022688868
-0.042808711
0.0086815768
-0.00026433598
-0.082461071
-0.036042977
-0.030538958
-0.031968843
-0.012409936
-0.15158238
-0.087751581
-0.0855562
0.02895168
-0.0813137
0.10917427
0.0054613345
0.019045996
-0.035481455
0.020837014
-0.13041318
0.0093108982
-0.068115968
-0.14605948
-0.039877728
-0.007915012
-0.076542235
-0.030223861
-0.0153016
0.0023235307
-0.034253598
0.053819081
-0.0074481272
0.0017220222
0.025498942
0.056409651
-0.045600321
0.10515867
-0.060751889
0.32879356
0.053239983
-0.061572061
-0.019360724
0.00027712952
0.024594815
0.073908978
-0.03252282
0.0013164385
-0.00019207927
0.0074414836
0.03304192
-0.0068135269
0.0011347986
-0.0031055387
-0.00017846763
0.10180777
-0.00070198707
0.048913722
0.071720638
0.061522219
0.056472343
0.045980477
0.023473647
0.00051696272
0.02951283
-0.034004173
-0.014577537
-3.1356454e-06
0.0025121983
0.10784328
-0.048095615
-0.10221368
0.017504221
0.063847838
-0.015598626
0.069586945
0.030798606
-0.030369305
0.13118562
0.0029945625
-0.0072902624
-0.011975506
0.000118277
-6.784698e-05
-0.0085252409
0.0040213803
0.23126608
-0.0067961604
-0.016834952
0.041632389
0.0041646883
0.0060314566
0.0010361301
-0.00056268314
0.065447854
-0.027938679
-0.021792907
-0.0011610659
0.031961252
0.0068447303
0.016275502
-0.011201925
-0.00032338182
0.0004257199
0.024590353
0.052269264
0.031749767
-0.045912339
0.00025862586
0.0042804913
-0.078411816
0.020139103
-0.0025452129
-0.016760345
0.21450394
-0.043467765
0.21312606
-0.11140288
-0.050542249
0.007705073
-0.023818207
0.02833406
0.0010396811
0.084842133
0.0054985558
0.054059654
-0.0082274197
-0.046409463
-0.060486666
-0.21198145
0.018545176
-0.00075162304
-0.022193715
0.062706644
-0.038868398
0.086268785
-0.035086387
-0.011594169
0.051628992
0.023209764
0.0020985346
0.012084923
-0.0070848753
-0.20825154
0.0061530296
0.32290027
-0.15913712
-0.047022751
0.0062357551
0.18585677
0.026098318
-0.23112306
-0.033571309
0.0011190539
-0.017989059
-0.039127958
-0.1981445
-0.015572757
0.025297057
-0.1947713
-0.038125463
0.050396628
0.0056117862
-0.0069969172
-0.014019909
0.0043671793
0.0095566773
5.173375e-05
0.026428752
0.0042067079
7.6249536e-05
-0.019134536
0.071153289
0.044896248
0.10797035
0.058360973
-0.10476089
-0.15510208
0.0055640754
-0.057479043
0.0065987536
-0.20212949
-0.085511666
-0.034892876
-0.028584868
-0.061312268
0.061871039
-0.033492873
0.00050941132
-0.037471772
-0.0065843045
0.08953922
-0.016198224
0.0042454044
0.0039301911
-0.20749253
-0.028879102
0.0025797961
0.00071175689
0.0010579509
0.032312923
0.018119083
0.29021422
0.0049487146
0.00069670778
-0.0020689061
-0.010534877
-0.19349895
-0.10685688
-0.048039338
-0.056896413
-0.048462802
0.10256881
0.16743898
-0.18123103
0.00018829843
0.074865655
-0.21513813
-0.016481189
0.028795805
-0.15521617
-0.16993103
0.036109222
0.003150888
0.027239034
-0.00038886729
-0.0093900086
-0.058209225
0.059750761
0.12895812
-0.15342366
0.0061189127
0.14549219
-0.0027512991
0.027793241
-0.009199334
0.089406079
-0.010093481
-0.011331678
0.0049476485
0.00062729289
-0.0077929922
-0.11762732
0.26500642
-0.12885799
-0.12036945
-0.0038609938
-0.10861708
0.16780048
-0.10251567
0.092999114
-0.047366599
-0.090743029
0.0014371089
0.014040347
0.014971609
-0.05307186
0.0070353647
-0.14905498
0.02893282
0.048199379
0.11968314
-0.067646343
-0.074945447
0.060437454
-0.019039812
0.0044277379
-0.0051555235
-0.22040638
-0.13349978
-0.022411489
-0.021116489
-0.041112713
0.0017363905
0.026711693
0.07234185
0.029296522
-0.14526408
0.0011922677
-0.08429086
-0.00048456492
0.0037283249
0.12309323
0.10815867
0.00037891852
0.060875149
-0.022290623
0.07384189
0.008753807
-0.016060631
0.036587936
0.16089927
-0.39370158
0.06284747
-0.0024141177
-0.11316412
0.00036935256
-0.39308936
-0.0012150044
0.042130238
-0.070432938
0.00022050884
0.033404379
-0.013386635
0.015933096
-0.16043468
-0.2334695
-0.0051395378
0.0028375604
0.004998614
-0.0074647039
0.10311918
-0.12243685
-0.10693641
0.10134564
0.0016563885
-0.14277947
0.0033433492
0.035433102
0.042599835
-0.12140662
0.0095948878
0.010274015
-0.027698204
-0.012969571
-0.073817693
-0.00011120749
0.0019785844
-0.18983202
0.011130837
0.005355116
-0.030802666
-0.0093169075
-0.26750621
-0.0063517472
0.20079774
-0.26415256
0.097562666
-0.12075549
-0.0022024056
0.07324541
-0.0028883617
-0.027648441
-0.35882418
-0.039526364
0.2641593
0.0041975696
-0.18556739
-0.11025197
0.029749713
-0.35766516
0.029673725
-0.0035975047
0.11271563
0.0068380435
0.015434372
-0.0016892322
0.082946601
-0.032773
0.00013703783
-0.0058227428
-0.14173641
5.2648241e-05
0.017897908
-0.038976851
-0.027960783
0.0040482939
0.00050113831
0.042043927
0.33098552
-0.0025145582
0.096135781
-0.062476951
0.061412045
0.021280774
0.024211043
0.20553185
-0.0028806276
0.081243337
0.10385306
-0.056575401
0.091763812
-0.17705202
-0.037226389
-1.3089772e-05
0.023080348
-0.0069937447
0.00016953938
-0.019036861
0.010075476
0.015068651
-0.092804043
0.28954455
-0.097799789
0.056345882
-0.173035
0.047968054
0.035797437
-0.045970617
0.13326319
0.094528782
0.029325443
0.036496612
-0.0081140261
-0.0017929606
0.016947971
-0.016942126
-0.0072308695
-0.30762717
-0.30613574
-0.0013815825
-0.019376916
-0.0066683293
0.0011332333
-0.035641254
-0.0029085789
-0.0047715855
-0.11568344
0.00037252176
-0.035277915
-0.049746147
-7.1145702e-05
-0.034804309
0.030925204
-0.024802068
0.0016013324
0.02014415
-0.38332523
0.076615445
0.0012924432
-0.041288124
0.067172345
-0.060807922
-0.38262899
-0.00091696896
0.0061022432
-0.077154971
0.037798417
-0.006799973
-0.31192306
-6.8413917e-05
0.10478045
-0.036700883
0.0035238395
-0.00033504449
-0.016782372
-0.30881503
0.10107426
0.0014600408
-0.093644778
-1.6052198e-05
-0.039686617
-0.15611094
0.050165778
0.070255606
-0.0022115401
0.038841101
-0.0033265033
-0.08280397
-0.15207854
0.0064002471
-0.013659303
-0.033257914
-0.065655125
0.0011055397
0.30914903
-0.00067276306
0.16838534
0.010135074
0.18933841
-0.087141618
-0.083595116
-0.003564696
0.021459341
0.021789494
0.081190748
-0.041799602
0.00022534728
0.096349908
0.041053673
-0.0028806867
-0.033058075
-0.0027243351
0.072153291
0.03244854
0.00035660675
0.011052155
-0.0064106702
-0.019677148
-0.0111239
0.021759637
0.033249082
-0.036025238
0.0096847857
-0.20055479
0.033207389
0.053650737
0.012536103
-0.022172588
-0.00037969873
-0.00057557198
0.20688301
-0.015557256
-0.0187926
-0.0012077211
0.078913982
0.12806847
-0.15085034
-0.016374134
1.2251397e-06
0.10288193
0.27231159
0.001459777
0.0043841285
0.037692753
-0.0043440738
0.00012973358
0.0053960989
-0.052622344
0.065541323
8.6947837e-05
-0.025973962
-0.064047548
0.020770227
-0.00013246695
-0.036277284
-0.0066113293
-0.00139392
-0.0013156266
-0.079320566
-0.023551116
-0.20907584
-0.077752673
0.00017140614
-0.0028340773
-0.01939971
0.074879206
0.080704837
0.046517624
-0.10465816
-1.2286469e-05
0.047508807
-0.079762138
-0.20470168
0.052510507
6.439195e-06
0.052664259
0.010359762
-0.17627987
-0.22902745
0.0038647425
0.050224419
0.051697604
-0.004305909
-0.11973007
0.00015310429
-0.015926837
0.017073788
0.088247764
-0.092713688
0.055081332
0.089276406
-0.0011852182
0.15760973
0.27078505
0.033031397
0.005365736
-0.12396722
0.081436488
-0.083369992
0.099554496
0.015199397
-0.099301279
0.027835915
0.13488519
0.10455962
0.00026023074
-9.0901153e-05
-0.19854704
0.00024631211
0.098657963
0.0083459634
0.0063051826
-0.22498267
0.011753995
0.027037055
0.10413281
-0.26244944
-0.063679131
-0.11932196
-0.093436237
0.16055605
0.000690335
0.0066834438
-0.038580601
0.049078145
-0.02412175
2.6175444e-05
-0.2759497
-0.0018040953
9.0419688e-05
-0.27335468
0.0095457765
-0.27804005
-0.001631316
0.00088556118
-0.015897919
0.00056136763
0.025637551
0.092281432
0.0052817075
-1.6517671e-05
-0.033308844
-0.0010458897
-0.036961193
0.018274894
-0.0042250894
0.019798254
0.032572972
-0.1942201
-0.27429604
-0.1331976
0.00027682176
-0.00076099399
0.00016654754
0.0068099913
0.00077318689
0.028127079
0.012233851
0.00028053363
0.053795595
0.086059431
-0.035619468
0.13718913
-0.024237062
-0.0040233389
-0.18538737
0.045382078
-0.35442065
0.078837486
-0.0010382078
-0.0071152925
0.021794367
-0.03915436
-0.036399491
-0.24099247
-0.006119137
0.029798028
-0.0026001351
0.057120247
-0.00079441441
0.0064340146
-0.00037190424
0.00093813606
0.091103865
-0.010480576
-0.027963714
-0.023179249
0.033949526
-0.043077006
-0.014138168
-0.0010679441
-0.0012934605
-0.0091836418
0.21281859
-0.031811961
-0.00050101789
-0.030716188
0.067906237
-0.052812756
-0.088569562
0.052147925
0.044175357
-0.35680506
-5.5327796e-05
-0.00039184215
0.051122532
-0.00096729461
0.020670786
-0.0035633172
-0.039418124
0.0055504195
0.061999574
0.0329312
0.22453134
-0.15384479
0.0073972133
0.021882237
-0.24078883
-0.2409304
0.21650064
0.057451664
-0.0037141593
-0.058041764
-0.0050460706
-0.0016697685
0.085692041
-0.00014366984
0.061297739
0.12338192
-0.0010395044
-0.12962121
0.10513722
-0.047978907
0.0013143941
-0.0017955583
0.022173237
0.072857171
-0.023118743
0.00121426
0.0061581843
0.0064429917
-0.08776167
-0.14675465
0.00052838524
-0.0016090277
-0.13866155
0.035128658
-0.00067856618
-0.00775453
0.088342644
-0.091804107
6.1747543e-06
-0.020212115
0.0025031316
-0.001940202
0.010410498
-0.053355754
-0.24921696
0.018063577
0.28455034
0.076765416
0.010027959
0.0090234917
0.073681498
0.00061125589
-0.18036297
0.0093560644
-0.18457142
0.020549459
0.020333271
-0.13040294
-0.058065832
-0.040011439
0.034996215
-0.15994294
-0.052112248
0.20774562
0.15294747
-0.017147306
0.31216805
0.050010491
-0.20522735
-0.00081133085
-0.26473798
0.26591648
0.011655481
-0.2453118
-0.20912532
-0.0056747126
-0.00098843821
0.0015784455
0.072670371
0.24764281
-0.015633636
-0.061160783
0.01344435
0.029828484
-0.062221934
0.022932746
-0.0078108793
0.0061382948
-0.025890536
-0.0059476325
-0.018211195
-0.16260668
0.021659324
-0.03627341
-0.011945778
-0.003792712
-0.26790966
0.00062087895
-0.041641721
-0.20477245
0.021970505
0.073265294
-0.26680449
-0.0033079097
-0.043601503