/*--------------------------------*- C++ -*----------------------------------*\
| =========                 |                                                 |
| \\      /  F ield         | foam-extend: Open Source CFD                    |
|  \\    /   O peration     | Version:     4.1                                |
|   \\  /    A nd           | Web:         http://www.foam-extend.org         |
|    \\/     M anipulation  |                                                 |
\*---------------------------------------------------------------------------*/
FoamFile
{
    version     2.0;
    format      ascii;
    class       surfaceScalarField;
    location    "0.6";
    object      phi;
}
// * * * * * * * * * * * * * * * * * * * * * * * * * * * * * * * * * * * * * //

dimensions      [0 3 -1 0 0 0 0];

internalField   nonuniform List<scalar> 
6703
(
-2.8061831e-05
0.00014559163
-0.0001175298
-5.3173038e-05
0.00017920864
-0.00015409743
-7.6989094e-05
0.00021512148
-0.00019130542
-0.00010488509
0.00025555133
-0.00022765534
-0.00013692433
0.00030292321
-0.00027088398
-0.00017353004
0.00035840657
-0.00032180085
-0.00021514562
0.00042321512
-0.00038159954
-0.00026224073
0.00049874284
-0.00045164773
-0.00031537612
0.00058652267
-0.00053338728
-0.00037523845
0.00068826621
-0.00062840387
-0.00044266132
0.0008059106
-0.00073848773
-0.000518639
0.00094168857
-0.00086571089
-0.00060433006
0.0010982912
-0.0010126002
-0.00070115745
0.0012792294
-0.001182402
-0.00081081355
0.0014894479
-0.0013797918
0.0017356211
-0.0016133738
-0.00093306085
-2.038594e-05
0.00016597757
-4.0793313e-05
0.00019961601
-6.0886674e-05
0.00023521484
-8.4586353e-05
0.00027925101
-0.00011224216
0.00033057902
-0.00014462449
0.00039078891
-0.00018252455
0.00046111517
-0.00022680502
0.00054302331
-0.00027843656
0.00063815421
-0.00033853203
0.00074836167
-0.00040840546
0.00087578404
-0.00048966356
0.0010229467
-0.00058430111
0.0011929288
-0.00069469297
0.0013896213
-0.00082325296
0.0016180079
0.0018838908
-0.00097152259
-7.7075273e-06
0.00017368509
-1.9964576e-05
0.00021187306
-3.4046632e-05
0.00024929689
-5.0936215e-05
0.00029614059
-7.096772e-05
0.00035061052
-9.4746673e-05
0.00041456786
-0.00012290842
0.00048927692
-0.00015619295
0.00057630784
-0.00019544515
0.00067740641
-0.00024162664
0.00079454316
-0.00029583579
0.00092999318
-0.00035934576
0.0010864566
-0.00043366841
0.0012672514
-0.0005206118
0.0014765647
-0.00062216252
0.0017195587
0.0020020246
-0.00074029633
-3.0046449e-06
0.00017668974
-1.0907035e-05
0.00021977545
-1.9268173e-05
0.00025765803
-2.9608716e-05
0.00030648114
-4.1986415e-05
0.00036298822
-5.686607e-05
0.00042944751
-7.4688552e-05
0.0005070994
-9.5989789e-05
0.00059760908
-0.00012138646
0.00070280308
-0.00015158806
0.00082474477
-0.00018740781
0.00096581293
-0.00022977127
0.0011288201
-0.00027971478
0.0013171949
-0.00033833971
0.0015351896
-0.00040657463
0.0017877936
0.0020793147
-0.00048386478
1.2042619e-06
0.00017548548
-2.8477645e-06
0.00022382748
-6.0224342e-06
0.0002608327
-1.036388e-05
0.00031082258
-1.5518224e-05
0.00036814257
-2.1804328e-05
0.00043573362
-2.9430045e-05
0.00051472512
-3.8693274e-05
0.00060687231
-4.9943013e-05
0.00071405281
-6.3597329e-05
0.00083839909
-8.0151851e-05
0.00098236745
-0.00010018757
0.0011488558
-0.0001243716
0.001341379
-0.00015343751
0.0015642555
-0.00018815431
0.0018225104
0.0021224832
-0.00023132277
5.5694977e-06
0.00016991598
5.8356531e-06
0.00022356132
7.7571416e-06
0.00025891121
9.4733611e-06
0.00030910636
1.158207e-05
0.00036603386
1.3935317e-05
0.00043338037
1.6554985e-05
0.00051210545
1.9392436e-05
0.00060403486
2.2378865e-05
0.00071106639
2.5400251e-05
0.0008353777
2.8288853e-05
0.00097947885
3.0811917e-05
0.0011463327
3.2661513e-05
0.0013395294
3.3439144e-05
0.0015634779
3.2830018e-05
0.0018231195
0.0021248601
3.0453056e-05
1.0190577e-05
0.0001597254
1.5494435e-05
0.00021825746
2.2576183e-05
0.00025182946
3.064169e-05
0.00030104086
4.0169105e-05
0.00035650644
5.1295162e-05
0.00042225431
6.4239794e-05
0.00049916082
7.9215657e-05
0.000589059
9.6433352e-05
0.00069384869
0.0001160843
0.00081572676
0.00013833024
0.0009572329
0.00016329468
0.0011213683
0.00019106437
0.0013117597
0.00022168111
0.0015328611
0.00025524455
0.0017895561
0.0020891107
0.00029099398
1.4892769e-05
0.00014483263
2.5797406e-05
0.00020735283
3.7999573e-05
0.0002396273
5.2489333e-05
0.0002865511
6.9482693e-05
0.00033951308
8.9455407e-05
0.0004022816
0.00011280368
0.00047581255
0.0001399845
0.00056187818
0.00017146391
0.00066236928
0.00020771181
0.00077947886
0.00024918824
0.00091575648
0.00029633231
0.0010742242
0.00034955611
0.0012585359
0.00040920065
0.0014732166
0.0004754859
0.0017232708
0.0020166013
0.00054799528
2.0007059e-05
0.00012482557
3.7575353e-05
0.00018978453
5.5284527e-05
0.00022191812
7.6298054e-05
0.00026553757
0.00010077507
0.00031503607
0.00012953691
0.00037351976
0.0001631798
0.00044216965
0.0002023829
0.00052267508
0.00024784697
0.00061690521
0.00030029513
0.0007270307
0.00036046512
0.00085558649
0.00042911389
0.0010055755
0.00050705011
0.0011805997
0.00059518846
0.0013850782
0.00069461299
0.0016238463
0.0019045946
0.00080661975
2.7144555e-05
9.7681019e-05
5.2887916e-05
0.00016404117
7.7501761e-05
0.00019730428
0.00010566819
0.00023737114
0.0001379124
0.00028279185
0.00017540159
0.00033603058
0.0002190201
0.00039855114
0.00026967683
0.00047201835
0.00032829294
0.0005582891
0.00039581064
0.000659513
0.00047319657
0.00077820056
0.00056146956
0.00091730247
0.00066179095
0.0010802783
0.00077568049
0.0012711887
0.0009054225
0.0014941043
0.0017541389
0.0010558782
2.9623812e-05
6.8057206e-05
7.0362573e-05
0.00012330241
0.00010909853
0.00015856832
0.00014839677
0.0001980729
0.0001902226
0.00024096602
0.0002368617
0.00028939148
0.00028997381
0.00034543902
0.00035092952
0.00041106265
0.00042096581
0.00048825281
0.00050123454
0.00057924426
0.00059281086
0.00068662424
0.0006967216
0.00081339173
0.00081401777
0.00096298209
0.00094588437
0.0011393221
0.0010934818
0.0013465069
0.0015875468
0.0012600739
5.3762195e-05
1.4295011e-05
0.00010451269
7.2551911e-05
0.00014641396
0.00011666705
0.00018855657
0.0001559303
0.00023415286
0.00019536973
0.00028484729
0.00023869706
0.00034182646
0.00028845984
0.00040600518
0.00034688393
0.0004779399
0.00041631809
0.00055778425
0.00049939991
0.00064531042
0.00059909808
0.00074000754
0.00071869461
0.00084127673
0.0008617129
0.00094869843
0.0010319004
0.0010616387
0.0012335666
0.0014687682
0.0011804172
-1.9480476e-06
-0.00011789813
0.00011984618
-1.5024544e-05
-0.0001412296
0.0001543061
-3.9220778e-05
-0.00016806123
0.00019225746
-6.7475694e-05
-0.0001997388
0.00022799371
-0.00010093426
-0.00023691749
0.00027037606
-0.00014042853
-0.00028042931
0.00031992358
-0.00018685765
-0.00033119339
0.00037762251
-0.00024122353
-0.00039021541
0.00044458129
-0.00030450798
-0.00045859746
0.00052188191
-0.00037762453
-0.00053754854
0.00061066509
-0.00046139985
-0.00062840567
0.000712181
-0.00055655497
-0.00073268062
0.00082783575
-0.00066375557
-0.00085214949
0.00095935008
-0.00078398978
-0.00098891457
0.0011091488
-0.00091978062
-0.0011452399
0.0012810308
-0.0013241788
0.0014825921
-0.0010781939
-1.8100734e-05
-9.9797399e-05
-4.1068462e-05
-0.00011826188
-6.9044425e-05
-0.00014008526
-0.00010287027
-0.00016591296
-0.00014347503
-0.00019631273
-0.00019195241
-0.00023195193
-0.000249568
-0.00027357779
-0.00031777134
-0.00032201208
-0.00039821709
-0.00037815171
-0.00049278939
-0.00044297624
-0.00060362739
-0.00051756767
-0.00073315686
-0.00060315116
-0.00088414345
-0.0007011629
-0.0010597078
-0.00081335026
-0.001262939
-0.00094200864
-0.0010904711
-0.0014966468
-2.1269372e-05
-7.8528027e-05
-4.7252302e-05
-9.2278945e-05
-7.8412053e-05
-0.00010892551
-0.00011565497
-0.00012867004
-0.00016004606
-0.00015192163
-0.00021282405
-0.00017917395
-0.00027541499
-0.00021098685
-0.00034944658
-0.00024798048
-0.00043676394
-0.00029083436
-0.00053944918
-0.000340291
-0.00065985034
-0.00039716651
-0.00080062804
-0.00046237346
-0.00096482518
-0.00053696575
-0.0011559691
-0.00062220633
-0.0013784304
-0.00071954735
-0.00083022797
-0.0016386735
-2.1874106e-05
-5.6653921e-05
-4.9073467e-05
-6.5079585e-05
-8.2068596e-05
-7.5930383e-05
-0.00012172239
-8.901625e-05
-0.00016912472
-0.0001045193
-0.00022556283
-0.00012273584
-0.0002925204
-0.00014402928
-0.00037168346
-0.00016881742
-0.00046494809
-0.00019756973
-0.00057442985
-0.00023080925
-0.0007024782
-0.00026911816
-0.00085170884
-0.00031314281
-0.0010250796
-0.00036359501
-0.0012259818
-0.00042130413
-0.0014578924
-0.00048763678
-0.00056553664
-0.0017225837
-2.4050145e-05
-3.2603776e-05
-5.3287188e-05
-3.5842541e-05
-8.8274364e-05
-4.0943208e-05
-0.00013005737
-4.7233246e-05
-0.00017987613
-5.4700539e-05
-0.00023915396
-6.345801e-05
-0.00030950976
-7.3673478e-05
-0.00039277154
-8.5555641e-05
-0.00049099009
-9.935117e-05
-0.00060645691
-0.00011534243
-0.00074172711
-0.00013384796
-0.00089964922
-0.0001552207
-0.0010833881
-0.00017985616
-0.0012965772
-0.00020811504
-0.0015446174
-0.00023959651
-0.0002716404
-0.0018385137
-7.7054145e-06
0.0001737347
-0.00016602928
-1.9962696e-05
0.00021195507
-0.00019969779
-3.4044675e-05
0.00024941684
-0.00023533486
-5.0933357e-05
0.00029631337
-0.00027942469
-7.0962249e-05
0.00035086146
-0.00033083257
-9.4733815e-05
0.00041492102
-0.00039114946
-0.0001228787
0.00048975448
-0.0004616096
-0.00015612955
0.00057691923
-0.00054366838
-0.00019532187
0.00067813221
-0.00063893989
-0.00024140866
0.00079531452
-0.00074922773
-0.00029548922
0.00093067658
-0.00087659602
-0.00035886275
0.0010868684
-0.0010234949
-0.00043310548
0.0012672374
-0.0011929947
-0.00052010569
0.0014761572
-0.001389157
-0.00062183068
0.0017191118
-0.0016173868
0.0020019798
-0.0018840342
-0.00073977629
-3.2357836e-05
-2.4594035e-07
-6.7952508e-05
-2.4786929e-07
-0.00010864338
-2.5233455e-07
-0.00015562454
-2.5208363e-07
-0.00021008237
-2.4270949e-07
-0.00027332
-2.203871e-07
-0.00034681175
-1.8172582e-07
-0.000432243
-1.243851e-07
-0.00053154596
-4.8216913e-08
-0.00064693171
4.3319961e-08
-0.00078092183
1.4216585e-07
-0.00093637883
2.3630082e-07
-0.0011165459
3.1094683e-07
-0.0013250035
3.4250544e-07
-0.0015648676
2.6758319e-07
-6.1501525e-08
-0.0018364465
-3.2981968e-05
3.2736028e-05
-6.9120964e-05
3.5891127e-05
-0.00011037089
4.0997596e-05
-0.00015794417
4.7321194e-05
-0.00021302712
5.4840236e-05
-0.00027691144
6.3663932e-05
-0.00035104916
7.3955996e-05
-0.00043709193
8.5918384e-05
-0.00053692707
9.9786923e-05
-0.00065271169
0.00011582794
-0.0007869075
0.00013433798
-0.00094231049
0.00015563929
-0.0011220729
0.00018007338
-0.0013296268
0.00020789633
-0.0015680331
0.00023867392
0.00027057451
-0.0018386691
-2.4181871e-05
5.6917899e-05
-5.3682178e-05
6.5391434e-05
-8.8988402e-05
7.6303819e-05
-0.00013112682
8.9459617e-05
-0.00018132315
0.00010503656
-0.00024098444
0.00012332522
-0.00031170897
0.00014468053
-0.00039529848
0.00016950789
-0.00049377025
0.00019825869
-0.00060937228
0.00023142997
-0.00074460133
0.00026956703
-0.00090222896
0.00031326692
-0.0010853373
0.00036318176
-0.0012974847
0.00042004373
-0.0015436947
0.00048488384
0.00055969635
-0.0018328165
-2.182187e-05
7.8739768e-05
-4.8972258e-05
9.2541822e-05
-8.1910522e-05
0.00010924208
-0.00012148601
0.00012903511
-0.00016877342
0.00015232397
-0.00022504075
0.00017959255
-0.00029174635
0.00021138613
-0.00037054278
0.00024830433
-0.00046328325
0.00029099915
-0.00057203145
0.00034017818
-0.00069908063
0.00039661622
-0.00084699885
0.00046118513
-0.0010187407
0.00053492362
-0.0012178418
0.00061914484
-0.0014482414
0.00071528346
0.00082366928
-0.0017122144
-2.1134523e-05
9.9874291e-05
-4.6954144e-05
0.00011836144
-7.7911405e-05
0.00014019934
-0.00011490189
0.0001660256
-0.00015897766
0.00019639974
-0.00021136136
0.00023197624
-0.00027345987
0.00027348465
-0.00034687976
0.00032172422
-0.00043344672
0.00037756611
-0.00053523477
0.00044196622
-0.00065461608
0.00051599753
-0.00079434488
0.00060091394
-0.00095766612
0.00069824486
-0.0011484553
0.00080993399
-0.001372143
0.00093897118
0.0010919762
-0.00164045
-1.8025912e-05
0.0001179002
-4.0896032e-05
0.00014123156
-6.8747122e-05
0.00016805043
-0.00010241745
0.00019969592
-0.00014283304
0.00023681533
-0.00019108642
0.00028022962
-0.00024844689
0.00033084512
-0.00031637826
0.00038965559
-0.00039657034
0.00045775818
-0.00049098067
0.00053637655
-0.00060188793
0.00062690479
-0.00073196654
0.00073099254
-0.00088441919
0.00085069752
-0.0010631315
0.00098864626
-0.0012719462
0.0011477859
0.0013303828
-0.0015103527
-1.82861e-06
0.00011972881
-1.4837751e-05
0.00015424071
-3.9002978e-05
0.00019221566
-6.7215979e-05
0.00022790892
-0.00010063144
0.0002702308
-0.00014008651
0.00031968469
-0.00018648932
0.00037724793
-0.00024085771
0.00044402399
-0.00030420328
0.00052110375
-0.00037748671
0.00060965997
-0.00046160379
0.00071102187
-0.00055735498
0.00082674373
-0.0006654272
0.00095876974
-0.00078652713
0.0011097462
-0.00092207501
0.0012833338
0.0014850131
-0.0010767053
5.3741876e-05
-6.8105314e-05
1.4363438e-05
0.00010447145
-0.00012339815
7.2668578e-05
0.00014633036
-0.00015869376
0.00011683484
0.0001884173
-0.00019824072
0.00015615378
0.00023394447
-0.00024119286
0.00019566569
0.00028455157
-0.00028969882
0.00023909172
0.00034141705
-0.00034585015
0.00028898468
0.00040544317
-0.00041159561
0.00034756949
0.00047716848
-0.00048890854
0.00041718322
0.00055672226
-0.00057998762
0.00050043385
0.00064384552
-0.00068735872
0.00060023545
0.00073798948
-0.0008139331
0.00071978914
0.00083850417
-0.0009630375
0.00086252282
0.00094480995
-0.0011384758
0.00103217
0.0010557915
-0.0013439314
0.0012329499
-0.0015830843
0.0014630048
0.001175871
2.9621763e-05
-9.7727077e-05
7.0351985e-05
-0.00016412837
0.00010907675
-0.00019741852
0.00014836409
-0.00023752806
0.00019018257
-0.00028301133
0.000236818
-0.00033633425
0.00028992857
-0.00039896072
0.00035088124
-0.00047254828
0.00042090757
-0.00055893487
0.00050115377
-0.00066023382
0.00059269637
-0.00077890132
0.00069659081
-0.00091782754
0.00081399382
-0.0010804405
0.00094639206
-0.001270874
0.0010958122
-0.0014933515
-0.0017546023
0.0012673301
2.7144135e-05
-0.00012487121
5.2886962e-05
-0.0001898712
7.7502274e-05
-0.00022203383
0.00010567373
-0.00026569952
0.00013792741
-0.00031526501
0.00017542981
-0.00037383665
0.00021906402
-0.00044259493
0.00026973555
-0.00052321981
0.00032835965
-0.00061755897
0.00039587028
-0.00072774445
0.00047322665
-0.00085625768
0.00056144937
-0.0010060503
0.00066172452
-0.0011807157
0.0007756132
-0.0013847627
0.0009053608
-0.0016230991
-0.001904258
0.0010550165
2.0007618e-05
-0.00014487883
3.75764e-05
-0.00020743998
5.5287795e-05
-0.00023974523
7.6305445e-05
-0.00028671717
0.00010078918
-0.00033974875
0.00012955954
-0.00040260702
0.00016321161
-0.000476247
0.00020242127
-0.00056242947
0.00024788352
-0.00066302122
0.00030031316
-0.0007801741
0.0003604399
-0.00091638442
0.00042902155
-0.0010746319
0.00050689378
-0.0012585879
0.0005950405
-0.0014729094
0.00069470689
-0.0017227655
-0.0020169946
0.00080744351
1.4891113e-05
-0.00015976994
2.5793722e-05
-0.00021834259
3.7994982e-05
-0.00025194649
5.2484262e-05
-0.00030120645
6.9478335e-05
-0.00035674282
8.9452198e-05
-0.00042258088
0.00011280079
-0.00049959559
0.00013997808
-0.00058960675
0.00017144454
-0.00069448768
0.00020766163
-0.00081639119
0.00024907968
-0.00095780247
0.0002961322
-0.0011216844
0.00034923805
-0.0013116938
0.000408753
-0.0015324244
0.00047491491
-0.0017889274
-0.0020890958
0.00054701606
1.018929e-05
-0.00016995923
1.5490583e-05
-0.00022364388
2.2570681e-05
-0.00025902659
3.0634691e-05
-0.00030927046
4.0161464e-05
-0.0003662696
5.1287526e-05
-0.00043370694
6.4232076e-05
-0.00051254014
7.920586e-05
-0.00060458054
9.6415649e-05
-0.00071169747
0.00011604688
-0.00083602243
0.00013825437
-0.00098000996
0.00016315803
-0.0011465881
0.00019085144
-0.0013393872
0.00022139747
-0.0015629704
0.00025496022
-0.0018224901
-0.0021247841
0.00029064852
5.5704268e-06
-0.00017552966
5.8356341e-06
-0.00022390909
7.7574438e-06
-0.0002609484
9.4748277e-06
-0.00031098784
1.1586149e-05
-0.00036838092
1.394416e-05
-0.00043606495
1.6570876e-05
-0.00051516686
1.9417481e-05
-0.00060742714
2.2413912e-05
-0.0007146939
2.5443613e-05
-0.00083905213
2.8335307e-05
-0.00098290165
3.0853621e-05
-0.0011491064
3.2692741e-05
-0.0013412263
3.3468167e-05
-0.0015637458
3.2909281e-05
-0.0018219313
-0.0021223304
3.0455561e-05
1.206757e-06
-0.00017673642
-2.8450662e-06
-0.00021985727
-6.0175601e-06
-0.0002577759
-1.0355318e-05
-0.00030665008
-1.5503606e-05
-0.00036323263
-2.1779589e-05
-0.00042978897
-2.9389588e-05
-0.00050755686
-3.8629337e-05
-0.00059818739
-4.9845837e-05
-0.0007034774
-6.3456017e-05
-0.00082544195
-7.9956877e-05
-0.00096640079
-9.9934782e-05
-0.0011291285
-0.00012406475
-0.0013170963
-0.00015307661
-0.001534734
-0.00018769526
-0.0017873126
-0.0020792342
-0.00023079145
-3.001719e-06
-1.0903915e-05
-1.9262977e-05
-2.9599692e-05
-4.1970864e-05
-5.6838809e-05
-7.4641183e-05
-9.5909345e-05
-0.00012125454
-0.00015138196
-0.00018710617
-0.00022936628
-0.00027922517
-0.0003378019
-0.00040600266
-0.00048325706
-2.0354538e-05
-0.00014567475
-4.0759493e-05
-0.00017929283
-6.0867838e-05
-0.00021522652
-8.4581582e-05
-0.00025571094
-0.00011225308
-0.00030316107
-0.00014464913
-0.00035875341
-0.0001825538
-0.00042370492
-0.00022681701
-0.00049940517
-0.00027839016
-0.00058736674
-0.00033836278
-0.00068925511
-0.00040803437
-0.00080692444
-0.00048903693
-0.00094249229
-0.00058347834
-0.0010985533
-0.00069395941
-0.001278676
-0.0008232179
-0.0014881284
-0.0017338826
-0.00097336947
-2.802221e-05
-0.00011765254
-5.3155661e-05
-0.00015415938
-7.7030574e-05
-0.0001913516
-0.00010499743
-0.00022774408
-0.00013712366
-0.00027103484
-0.00017382969
-0.00032204738
-0.00021555056
-0.00038198405
-0.00026273927
-0.00045221646
-0.00031593013
-0.00053417587
-0.00037577388
-0.00062941136
-0.00044307145
-0.00073962687
-0.00051882555
-0.00086673819
-0.00060431898
-0.0010130599
-0.00070126716
-0.0011817278
-0.00081143203
-0.0013779635
-0.0016119877
-0.00093332697
3.4042022e-05
-2.2038977e-05
-1.2003045e-05
0.000108845
-2.9915139e-06
-7.181146e-05
0.0001970819
2.5415563e-05
-0.00011365247
0.0002910649
5.7048155e-05
-0.00015103116
0.00038419183
9.5454821e-05
-0.00018858174
0.00047402948
0.00013952569
-0.00022936334
0.00056087869
0.00018875906
-0.00027560827
0.00064511649
0.00024506901
-0.00032930681
0.00072714113
0.00031049661
-0.00039252125
0.00080761764
0.00038710439
-0.00046758089
0.00088759476
0.00047718264
-0.00055715976
0.0009686008
0.00058326281
-0.00066426885
0.0010528656
0.00070790508
-0.00079216992
0.0011434752
0.00085370313
-0.00094431266
0.0012442455
0.0010235499
-0.0011243202
0.0012206028
-0.0013359465
0.0013595892
1.5516816e-05
-3.7555793e-05
5.4232578e-05
-4.1707275e-05
0.00011541478
-3.5766635e-05
0.00019734652
-2.4883591e-05
0.00030148716
-8.6858138e-06
0.00042359087
1.7421975e-05
0.00055616395
5.6185976e-05
0.00069233872
0.00010889423
0.00082589231
0.00017694302
0.00095627787
0.00025671883
0.0010832487
0.0003502118
0.0012084216
0.00045808996
0.0013360714
0.00058025526
0.0014732107
0.0007165638
0.0016297121
0.00086704846
0.001032274
0.0018180409
8.5295107e-06
-4.6085304e-05
1.6526225e-05
-4.970399e-05
3.5490005e-05
-5.4730414e-05
7.092988e-05
-6.0323466e-05
0.00012821443
-6.5970367e-05
0.000211427
-6.5790593e-05
0.00032236832
-5.4755341e-05
0.00046204126
-3.0778705e-05
0.00062553206
1.3452217e-05
0.00079109839
9.1152504e-05
0.00094890947
0.00019240071
0.0011006962
0.00030630327
0.0012506356
0.00043031577
0.0014067668
0.00056043261
0.0015796323
0.00069418297
0.00083054205
0.0017813643
6.2864024e-06
-5.2371706e-05
1.2919496e-05
-5.6337084e-05
2.0848036e-05
-6.2658954e-05
3.0437329e-05
-6.9912759e-05
4.1798238e-05
-7.7331276e-05
6.0127909e-05
-8.4120264e-05
9.464793e-05
-8.9275362e-05
0.00015512391
-9.1254686e-05
0.00025000682
-8.1430694e-05
0.00037617007
-3.5010744e-05
0.00051996348
4.8607305e-05
0.00066637679
0.00015988996
0.00082168633
0.00027500623
0.0010055477
0.00037657126
0.0012182372
0.0004814934
0.00058308417
0.0014656951
-4.5053542e-06
-4.7866352e-05
-1.4226195e-05
-4.6616243e-05
-2.8126844e-05
-4.8758305e-05
-4.6179754e-05
-5.1859849e-05
-6.841143e-05
-5.5099601e-05
-9.472054e-05
-5.7811154e-05
-0.00012479579
-5.9200114e-05
-0.00015789275
-5.8157729e-05
-0.00018612097
-5.3202474e-05
-0.00017774212
-4.3389589e-05
-0.00010601694
-2.3117877e-05
3.0879973e-05
2.2993049e-05
0.00020247518
0.00010341102
0.00040635432
0.00017269213
0.00064669837
0.00024114934
0.00030583986
0.00092394268
-4.840755e-05
5.4119788e-07
-9.5629216e-05
6.0542264e-07
-0.00014503992
6.5239671e-07
-0.00019757178
6.7201195e-07
-0.00025331895
6.4757638e-07
-0.00031168611
5.5599703e-07
-0.00037125262
3.6640172e-07
-0.00042945024
3.9891022e-08
-0.00048218588
-4.6683035e-07
-0.00052437157
-1.2039077e-06
-0.00054524418
-2.2452655e-06
-0.00051860547
-3.6456636e-06
-0.00040980427
-5.3901758e-06
-0.00023030362
-6.8085153e-06
1.748685e-05
-6.6411339e-06
-5.3007555e-06
0.00032862746
-4.7683213e-05
4.8224411e-05
-9.425225e-05
4.7174459e-05
-0.00014297222
4.9372366e-05
-0.0001947564
5.2456197e-05
-0.00024970141
5.5592584e-05
-0.00030722274
5.8077327e-05
-0.00036591374
5.9057402e-05
-0.00042321539
5.7341538e-05
-0.00047507979
5.1397568e-05
-0.00051658788
4.0304187e-05
-0.00053586564
1.7032496e-05
-0.00050611566
-3.3395642e-05
-0.00039620977
-0.00011529607
-0.00021512367
-0.00018789461
4.1235036e-05
-0.00026299984
-0.00033665632
0.0003725906
-4.471395e-06
5.2695806e-05
-1.3966224e-05
5.6669288e-05
-2.7543854e-05
6.2949996e-05
-4.5212592e-05
7.0124935e-05
-6.7027883e-05
7.7407875e-05
-9.2922333e-05
8.3971777e-05
-0.00012263888
8.8773947e-05
-0.00015552305
9.0225713e-05
-0.00018269047
7.8564988e-05
-0.00017222706
2.9840774e-05
-9.9309561e-05
-5.5885002e-05
3.4675375e-05
-0.00016738058
0.00020164947
-0.00028227017
0.00039856096
-0.0003848061
0.00062534741
-0.00048978628
-0.00058811391
0.000876805
6.3671244e-06
4.6328682e-05
1.3092919e-05
4.9943494e-05
2.1117246e-05
5.4925669e-05
3.0795722e-05
6.0446459e-05
4.2221718e-05
6.5981879e-05
6.0757358e-05
6.5436137e-05
9.562646e-05
5.3904845e-05
0.00015662667
2.92255e-05
0.00025154333
-1.6351666e-05
0.00037675715
-9.5373052e-05
0.00051768605
-0.0001968139
0.00066118779
-0.00031088231
0.00081371644
-0.00043479882
0.00099332697
-0.00056441663
0.0012005541
-0.00069701346
-0.00083054802
0.0014429883
8.6353633e-06
3.7693318e-05
1.6751309e-05
4.1827548e-05
3.5878148e-05
3.579883e-05
7.1521061e-05
2.4803547e-05
0.00012905437
8.4485675e-06
0.00021247224
-1.7981727e-05
0.00032353103
-5.7153944e-05
0.00046315182
-0.0001103953
0.00062556371
-0.00017876355
0.0007890699
-0.00025887924
0.00094488217
-0.00035262617
0.0010945596
-0.00046055979
0.0012422291
-0.00058246831
0.0013958059
-0.00071799341
0.0015656483
-0.00086685581
-0.0010292421
0.0017643423
1.566635e-05
2.2026968e-05
5.4560763e-05
2.9331347e-06
0.00011591657
-2.5556982e-05
0.00019801317
-5.7293053e-05
0.00030230368
-9.5841936e-05
0.000424343
-0.00014002105
0.00055658787
-0.00018939882
0.00069208455
-0.00024589197
0.00082485096
-0.00031152996
0.00095432494
-0.00038835322
0.0010803062
-0.00047860745
0.0012044859
-0.00058473947
0.001331214
-0.00070919636
0.0014676702
-0.00085444967
0.0016240872
-0.0010232728
-0.0012178673
0.0018127124
3.4094331e-05
-1.2067363e-05
0.00010895628
-7.192881e-05
0.00019721937
-0.00011382008
0.00029118135
-0.00015125503
0.00038421885
-0.00018887943
0.00047395966
-0.00022976186
0.0005607016
-0.00027614075
0.00064481661
-0.00033000699
0.00072670058
-0.00039341393
0.00080701294
-0.00046866559
0.0008867938
-0.00055838831
0.00096757588
-0.00066552154
0.0010516216
-0.00079324204
0.001142122
-0.00094495011
0.0012431795
-0.0011243303
-0.0013362842
0.0013615964
2.3422928e-06
-2.1990171e-06
3.2525329e-06
3.5061169e-06
2.8529377e-06
7.3677272e-07
-3.6148408e-06
-1.1238582e-05
-2.3522108e-05
-4.2266008e-05
-6.9731869e-05
-0.00010869902
-0.00016252945
-0.00023518527
-0.00033164334
-0.00046000405
2.3403629e-06
-2.1936454e-06
3.2462228e-06
3.4958513e-06
2.837076e-06
7.1327061e-07
-3.6482715e-06
-1.1283441e-05
-2.3577406e-05
-4.2323681e-05
-6.9769556e-05
-0.000108672
-0.00016238178
-0.00023496078
-0.0003318935
-0.00046128911
3.035843e-06
-2.2960754e-06
6.0506029e-06
1.0949348e-05
1.7735605e-05
2.7065466e-05
3.9909389e-05
5.7471893e-05
8.1241189e-05
0.00011300945
0.00015485659
0.00020912419
0.00027840497
0.00036562487
0.0004742444
0.00060096506
3.0324183e-06
-2.2919668e-06
6.0470004e-06
1.094614e-05
1.7734124e-05
2.7067843e-05
3.9919421e-05
5.7496543e-05
8.1293383e-05
0.0001131124
0.00015505071
0.00020947648
0.00027901946
0.00036660717
0.00047585366
0.0006086754
0.0014426228
-0.0035108223
0.0020681995
0.0084915225
-0.0088087861
0.00031726359
0.0012361768
-0.0032236536
0.0019874769
0.0084915225
-0.0022500091
0.00027055395
0.0019794552
-0.0081582556
0.0050289858
0.0031292698
-0.0011371861
0.0044031981
-0.003266012
0.0077645937
0.0029364938
-0.010701087
0.0080781023
0.0020103067
-0.010088409
0.0012727451
-0.0017327491
-0.0019468128
0.0014855237
0.0034894717
0.0064502355
-0.0099397072
-0.0036107874
-0.0038621381
0.0074729255
-0.0076152654
0.0034630126
0.0041522528
-0.0016519545
0.0040185269
-0.0023665724
0.0036440135
-0.00017587228
-0.0034681412
0.0073521468
-0.0075979118
0.00024576502
0.00052311059
0.0017048682
-0.0022279788
0.00125009
-0.0017353033
0.00048521331
0.0062683212
-0.0022835489
-0.0039847723
-0.0010769232
-0.0011730859
-0.0076999702
0.0040891829
-0.0094788201
0.0093904111
8.840906e-05
0.00072770603
0.0085228259
-0.009250532
3.6598113e-05
-0.0056645755
0.0056279774
0.0045240977
0.0012523555
-0.0057764532
-0.0040367162
-0.0059742283
0.010010944
0.0063759208
-0.0021149638
-0.0042609569
0.0013756038
0.0064354748
-0.0078110786
-0.0022915097
0.0055722713
-0.0032807616
0.0066590405
-0.0021349428
0.0020215494
-0.0014467236
-0.00057482584
-0.00019549075
0.0083946029
-0.0081991121
0.0063571092
7.0202064e-05
-0.0064273113
0.0010452986
-0.0061303103
0.0050850117
0.0087912713
-0.0074391154
-0.0013521559
0.007663615
-0.008100465
0.00043684995
-0.0048039256
0.0058492242
0.0055977084
-0.0032694213
-0.0023282871
-0.0086486847
0.0016836969
0.0069649878
0.0026439524
-0.0039587047
0.0013147523
0.0099835926
-0.0043162811
-0.0056673115
0.0077645937
-0.0023166584
0.0056139005
-0.0032972421
0.0080781023
-0.00086637601
0.0037351772
-0.0028688012
-0.0019295615
0.0065898864
-0.0046603249
-0.0098020817
0.0041647818
0.0056373
-0.0077645937
0.011655042
-0.0038904484
-0.0080781023
0.011756794
-0.0036786919
0.0031834337
-0.00050620633
-0.0026772274
-0.0039047434
0.0017464919
0.0021582515
0.0014351609
-0.0026976035
0.0012624426
0.00097201247
0.0011594142
-0.0021314267
-0.0031012387
0.0056943528
-0.0025931141
0.00056281885
0.0055315163
-0.0060943352
0.00097008142
-0.0019083414
0.00093826
-0.0054932787
0.0035047087
0.00198857
-0.01052118
0.0011476664
0.0093735135
0.0084865782
-0.0031104935
-0.0053760847
0.0077872845
0.00069929377
0.005533715
0.0040950085
-0.0096287235
0.0051810828
0.0043583766
-0.0095394594
-0.0024354089
0.0050407608
-0.002605352
0.00076139936
-0.0040429307
0.0032815313
-0.0066336487
0.0069074281
-0.00027377936
0.0043057804
-0.0078841007
0.0035783202
0.0045041635
0.0018334108
-0.0063375743
-0.0010484837
0.0062157475
-0.0051672637
-0.0090857291
0.0071561676
-0.0025188233
0.006877766
-0.0043589427
0.0017852662
0.0018587474
-0.0047773947
0.0043304685
0.00044692621
0.0048336224
0.0062235876
-0.01105721
0.0087208229
-0.0080644482
-0.00065637479
0.00052117988
-0.0028560878
0.004937521
-0.0020814332
0.0067953932
-0.0032668141
-0.0035285791
0.0097489295
-0.0087956586
-0.00095327081
0.0077151331
-0.0068696136
-0.00084551958
0.0028141848
-0.0040213757
0.0012071909
-0.002312011
0.00093652094
0.00137549
0.0013645122
-0.0036560219
-0.011960208
0.0084669056
0.0034933026
0.0023424807
0.0050096661
0.0024505457
-0.0091220025
0.0066714568
-0.0045072247
0.0076016718
-0.0030944471
-0.0010097951
-0.0060048267
0.0070146219
0.0029202585
-0.002210686
-0.00070957254
0.00049062834
0.0082301946
0.0053938843
0.00011599508
-0.0055098794
-0.0076366358
0.0030638411
0.0045727947
0.00053297436
0.0036626561
-0.0041956304
0.0031797962
0.0024179121
0.0044006373
0.0024347945
-0.0068354318
0.0045892369
-0.001753412
-0.0028358249
-0.0046756556
-0.005321191
0.0030759325
-0.0018397558
-0.00081622863
-0.0015326402
0.0023488688
-0.0029026742
0.0056619343
-0.0027592601
-0.0030293258
0.0078629482
-0.0057328594
0.0075777198
-0.0018448604
-0.0059405249
-0.0016961109
-4.5756488e-05
0.0077093715
0.0081859388
-0.0076099034
-0.0005760354
-0.0051091533
-0.0025061121
-0.011263856
0.007444058
0.0038197977
-0.011824316
0.0085871626
0.0032371538
0.0057495935
-0.0025727441
-0.0031768493
0.0013829079
-0.0036995663
0.0020984197
-0.0051996584
3.4861198e-05
0.0042420962
-0.0042769574
0.0031175569
-0.0041660407
-0.0017176135
0.0043615659
0.0019012931
0.0043670281
0.006539275
0.0032096544
0.0038682464
-0.0038333852
0.0029582165
0.0071098058
-0.010068022
0.0098600552
-0.0056367468
-0.0042233084
-0.0022042725
0.0048108863
-0.0026066138
-6.6775754e-05
0.0015019367
0.0020547842
-0.0010827717
0.0010276576
0.00078598975
-0.0018136473
0.010929843
-0.011125334
0.00090775885
0.00042974441
-0.0013375033
0.0013728645
-0.00044892182
-0.0075196264
0.0080709197
-0.00055129324
-0.0021127304
0.0013839026
0.00072882786
0.003857485
-0.0037134058
-0.00014407928
-0.0056269734
0.0051344378
0.00049253567
0.0019312871
-0.00096120571
-0.00048657986
0.0043799259
-0.0038933461
-0.0046717726
0.0085055237
-0.0038337511
0.0034770393
0.0065065533
0.00769798
-0.0033921996
0.0034158558
0.0023337377
-0.0035544198
0.0026880438
0.0063740631
-0.0073838583
-0.0031296179
0.0023133893
0.0056187348
0.002567204
0.0052582195
-0.010818201
0.0055599819
0.0030584119
0.0016719076
-0.0014013537
-0.0031756172
0.00461824
0.0078011163
-0.0078011163
-0.0022058652
-0.001363576
0.0067574604
0.00094235462
-0.0037984424
-0.00040017901
0.006308624
-0.005908445
-0.0040758826
0.0096095975
-0.0042556825
0.0094367653
0.0083409171
-0.0048359101
-0.0035050069
0.0042765699
0.0030488992
-0.0052531717