/*--------------------------------*- C++ -*----------------------------------*\
| =========                 |                                                 |
| \\      /  F ield         | foam-extend: Open Source CFD                    |
|  \\    /   O peration     | Version:     4.1                                |
|   \\  /    A nd           | Web:         http://www.foam-extend.org         |
|    \\/     M anipulation  |                                                 |
\*---------------------------------------------------------------------------*/
FoamFile
{
    version     2.0;
    format      ascii;
    class       volVectorField;
    location    "0.6";
    object      U;
}
// * * * * * * * * * * * * * * * * * * * * * * * * * * * * * * * * * * * * * //

dimensions      [0 1 -1 0 0 0 0];

internalField   nonuniform List<vector> 
4242
(
(1.0861832 1.1128261 1.0496654e-18)
(1.1864303 0.97631396 3.5806235e-21)
(1.1535246 0.97265023 -6.6298851e-19)
(1.1557102 0.94310554 5.4874686e-19)
(1.1488298 0.91872192 7.2683273e-21)
(1.1428888 0.88965792 3.2360732e-21)
(1.1362359 0.85718767 0)
(1.1288598 0.82120047 1.8818776e-19)
(1.1207831 0.78161883 -2.9991637e-19)
(1.11208 0.73849401 1.152507e-19)
(1.1029373 0.69204871 -7.332847e-20)
(1.0936446 0.64271538 5.9923934e-20)
(1.0846528 0.59111138 5.8227147e-21)
(1.0769774 0.53773838 -7.7776901e-21)
(1.0723228 0.48328376 -1.5112555e-20)
(1.0698831 0.43167949 0)
(1.2543871 1.0323517 0)
(1.3715402 0.84954431 -7.8707905e-21)
(1.3280092 0.86279286 7.7765766e-19)
(1.3253459 0.83565965 -6.4052343e-19)
(1.3133405 0.81532297 -1.1489664e-20)
(1.3023077 0.79001832 3.792053e-19)
(1.2901078 0.76213672 -1.7821631e-20)
(1.2769665 0.73123618 -4.623166e-19)
(1.2629097 0.69726795 3.6067987e-20)
(1.2479912 0.66029164 1.3609488e-19)
(1.232338 0.62049524 0)
(1.2161512 0.57823659 -9.8812685e-21)
(1.1997542 0.534045 -1.0035453e-20)
(1.183861 0.48836401 -5.427754e-20)
(1.1695922 0.44157105 7.0041871e-20)
(1.1559482 0.39599968 8.6924975e-21)
(1.4238623 0.94527945 -2.1660238e-20)
(1.5650383 0.69718035 -2.451942e-18)
(1.5084417 0.73989499 9.9900498e-19)
(1.5027216 0.71252919 -6.8777698e-21)
(1.4855501 0.69723311 -6.0719383e-19)
(1.4690389 0.67641999 4.9348871e-19)
(1.4505972 0.65375361 -6.7023307e-21)
(1.4306157 0.6283671 1.03424e-20)
(1.4091039 0.60027127 -4.5738504e-21)
(1.3861713 0.56949463 -1.1851959e-20)
(1.3620298 0.53618113 1.1888651e-19)
(1.3369976 0.50062716 -8.5583767e-20)
(1.3115098 0.46330326 -1.3072545e-19)
(1.2861659 0.42476769 1.0925991e-19)
(1.261584 0.38581605 -1.3141863e-20)
(1.2381965 0.34735802 -3.5249811e-20)
(1.5748661 0.8242983 -3.948698e-21)
(1.7351098 0.49797489 -3.1620768e-21)
(1.6672144 0.57865805 -6.014513e-19)
(1.6604522 0.54672832 5.0674378e-19)
(1.6389394 0.53827762 -6.5021682e-21)
(1.6179359 0.52297178 3.074285e-19)
(1.5942262 0.50686911 -2.3006835e-19)
(1.5683112 0.48855592 -3.6201729e-19)
(1.5401455 0.46817392 2.095223e-20)
(1.509865 0.4457002 4.3608955e-19)
(1.4777438 0.42121993 -1.6444817e-19)
(1.4442139 0.39493298 0)
(1.4098707 0.36716776 9.1369371e-21)
(1.3753922 0.33842441 -6.682326e-20)
(1.3410913 0.30985225 3.1893432e-20)
(1.3069787 0.28142757 -6.1545924e-20)
(1.6743586 0.66764566 3.9486981e-21)
(1.8461108 0.25578966 -8.5243136e-19)
(1.7709997 0.38170479 7.0739128e-19)
(1.7645142 0.34084261 -4.0933796e-21)
(1.7402342 0.34180629 1.0112758e-20)
(1.7167346 0.33250762 -2.8428462e-21)
(1.6899845 0.32407362 -2.8105821e-19)
(1.6606043 0.31412318 6.1475589e-21)
(1.6284846 0.30303416 1.5907791e-19)
(1.5937587 0.29070462 -1.1833222e-19)
(1.5567107 0.27714861 9.5516272e-20)
(1.5178097 0.26243685 0)
(1.4777177 0.24669684 5.150979e-20)
(1.4372055 0.23010214 -3.5941408e-20)
(1.3967273 0.21313046 1.0708153e-20)
(1.3566879 0.19361801 0)
(1.7126031 0.48194377 -5.6724181e-19)
(1.8830673 -0.0029868733 2.3957758e-19)
(1.8109594 0.16226338 3.7238132e-19)
(1.8034752 0.11408007 -2.9883364e-19)
(1.7788344 0.12516258 6.2598937e-22)
(1.7547758 0.1221536 9.8909988e-20)
(1.7273799 0.12190918 7.6370824e-20)
(1.6972309 0.12093948 -3.2302455e-21)
(1.6642005 0.11986768 -2.8864213e-21)
(1.6284021 0.1185142 -9.7996964e-20)
(1.5900996 0.11682499 9.8529333e-20)
(1.5497451 0.11473381 -3.5306388e-21)
(1.5079863 0.11217736 -9.0974351e-21)
(1.4656038 0.10903895 -1.9447839e-20)
(1.4230551 0.10592223 -1.2377082e-23)
(1.3812575 0.098824977 7.8931302e-21)
(1.6845089 0.28418296 -2.8360713e-19)
(1.8439807 -0.25262403 -2.2302512e-19)
(1.7864533 -0.064467618 5.6364392e-19)
(1.7758346 -0.11176496 -3.0030859e-19)
(1.7534706 -0.093465926 1.2537048e-19)
(1.7305515 -0.08950113 1.1493606e-23)
(1.7047556 -0.081802644 1.4919626e-19)
(1.6763484 -0.073829758 -6.5836191e-20)
(1.6452562 -0.064999873 -8.2127263e-21)
(1.6115713 -0.055499373 2.9620984e-20)
(1.5755315 -0.045450027 -4.5779524e-20)
(1.5375437 -0.035047527 3.4690379e-20)
(1.4981914 -0.024533593 -9.2633883e-21)
(1.4581761 -0.014345794 -3.7166306e-20)
(1.4178942 -0.0037434683 1.3761209e-20)
(1.3780817 0.0012919389 1.6562592e-20)
(1.5868929 0.092924424 -6.3265174e-21)
(1.7317446 -0.47144601 8.7590858e-19)
(1.6983628 -0.28105508 -7.2115243e-19)
(1.6845891 -0.31857807 5.5864906e-19)
(1.6662684 -0.29680294 -4.6685515e-19)
(1.6463413 -0.28557979 0)
(1.62427 -0.27064661 2.7902539e-19)
(1.6000261 -0.25436897 -2.2128797e-19)
(1.573593 -0.23640621 -4.5669921e-21)
(1.545051 -0.21692379 0)
(1.5146014 -0.19612056 -1.7242639e-20)
(1.4825782 -0.1743216 8.2247145e-21)
(1.4494564 -0.15193836 -5.3000047e-20)
(1.4157858 -0.12973241 9.6157829e-20)
(1.3819613 -0.10694791 -6.4388796e-20)
(1.3483246 -0.089572675 -1.645317e-20)
(1.4188123 -0.071219304 4.1253333e-21)
(1.5522556 -0.63783463 -3.2674695e-21)
(1.5501988 -0.46869961 0)
(1.536586 -0.48942922 1.1590339e-20)
(1.5233186 -0.46724014 5.8549942e-21)
(1.5083968 -0.449446 3.2523427e-19)
(1.4921093 -0.42843753 -2.7437958e-19)
(1.4743715 -0.40523136 0)
(1.455199 -0.37969812 1.3020524e-21)
(1.434657 -0.35199684 -1.3032156e-20)
(1.4128853 -0.3223971 1.1182589e-20)
(1.3901035 -0.29132692 6.102005e-21)
(1.3666288 -0.25930976 1.1850936e-20)
(1.3427916 -0.22728142 6.8857186e-20)
(1.3189648 -0.19468149 -7.7892966e-20)
(1.2950656 -0.16662834 4.0744622e-20)
(1.1785119 -0.18362122 0)
(1.3103971 -0.72606476 1.3208247e-18)
(1.3454349 -0.6057764 -2.1432703e-18)
(1.3404567 -0.60767969 8.6410992e-19)
(1.3338748 -0.58676259 -5.8515914e-21)
(1.3261375 -0.56441907 -1.6619806e-20)
(1.317708 -0.53913359 4.1911951e-19)
(1.3086818 -0.51124953 -3.3635233e-19)
(1.2991412 -0.48071229 -2.2075873e-19)
(1.2891312 -0.44768338 1.996998e-19)
(1.278693 -0.41248262 0)
(1.2678687 -0.37559751 -1.1436226e-19)
(1.2567225 -0.33759617 6.3142264e-20)
(1.2452378 -0.29938351 0)
(1.2335152 -0.26055651 0)
(1.2211488 -0.22395698 0)
(0.88035888 -0.22424233 2.5422345e-18)
(1.0317101 -0.73163775 -1.0294008e-18)
(1.1040861 -0.67446241 0)
(1.1203017 -0.66536012 -4.3102701e-21)
(1.1254061 -0.64676428 -4.9779425e-19)
(1.1275247 -0.62296014 4.2689374e-19)
(1.1284552 -0.59567236 3.0224976e-19)
(1.1289947 -0.56563172 -6.5819996e-21)
(1.129619 -0.53293799 -2.0961222e-19)
(1.1305252 -0.49779978 1.0431977e-20)
(1.1317313 -0.46061578 0)
(1.133117 -0.42196 -1.540855e-19)
(1.1344498 -0.38248853 2.7952443e-20)
(1.1352784 -0.34311419 8.8800691e-20)
(1.1350891 -0.3039998 0)
(1.1364834 -0.26032548 8.7182882e-21)
(0.26958737 0.063133235 8.5815523e-21)
(0.48947005 -0.40180623 1.4408733e-18)
(0.66202181 -0.5029342 -5.8466121e-19)
(0.75291643 -0.54249615 -4.5436171e-19)
(0.80056732 -0.55409043 3.7214506e-19)
(0.83188271 -0.54990435 -2.9645788e-19)
(0.85733951 -0.53636832 2.450005e-19)
(0.88077605 -0.51714929 1.7277996e-19)
(0.90392814 -0.49400366 -1.5336408e-19)
(0.92748485 -0.46784725 0)
(0.95139751 -0.43932927 0)
(0.97510518 -0.40904349 0)
(0.9977531 -0.3775365 9.0382477e-21)
(1.0183192 -0.34544488 0)
(1.0354193 -0.31387444 4.9346739e-20)
(1.052445 -0.27608701 -8.5254957e-20)
(0.69276212 -0.98659422 2.8929042e-19)
(0.86363247 -0.9512329 2.498086e-22)
(0.8808134 -0.9939912 -1.6609149e-19)
(0.88052345 -0.96795118 1.3730102e-19)
(0.87996802 -0.94286259 1.9846537e-22)
(0.87960037 -0.91382279 3.0357352e-21)
(0.87964533 -0.88086535 0)
(0.88029486 -0.84375742 2.9069412e-20)
(0.88169346 -0.80232176 -3.5604986e-20)
(0.88401603 -0.75661707 1.4192229e-20)
(0.88740703 -0.70695038 -2.955458e-21)
(0.89194889 -0.65388039 2.4139476e-21)
(0.89778485 -0.5981322 -6.6476566e-21)
(0.90527995 -0.54043055 2.7806592e-21)
(0.91401171 -0.48212865 2.6958484e-21)
(0.92038129 -0.42798412 0)
(0.54835351 -0.94482233 0)
(0.62363242 -0.88473066 7.0800164e-22)
(0.61861798 -0.87357353 -9.1475407e-20)
(0.62558049 -0.85397521 7.5236155e-20)
(0.6335725 -0.83230236 9.8046456e-22)
(0.64332923 -0.80769667 -6.7975581e-20)
(0.65492064 -0.77986575 -5.1031273e-21)
(0.66842358 -0.7485782 1.031699e-19)
(0.68388463 -0.71368492 -2.3557853e-21)
(0.70129604 -0.67514905 -3.7877847e-20)
(0.72056691 -0.63308712 0)
(0.74151077 -0.58780117 5.0846362e-21)
(0.76391397 -0.53974931 2.8452751e-21)
(0.78763186 -0.48945009 3.2275222e-20)
(0.81221837 -0.43762237 -4.0375092e-20)
(0.83563956 -0.38621668 -6.7222835e-21)
(0.36080849 -0.81386915 -3.2711406e-21)
(0.40956382 -0.77602023 7.896396e-19)
(0.41386119 -0.76111895 -3.2769831e-19)
(0.42452547 -0.74298863 2.7587062e-21)
(0.43741836 -0.72293924 2.2963814e-19)
(0.45274636 -0.70049414 -1.8544904e-19)
(0.47067369 -0.6753359 3.0785016e-21)
(0.49134765 -0.64722985 -5.0190648e-21)
(0.51486958 -0.61602945 6.766676e-22)
(0.54125747 -0.58170284 6.5027214e-21)
(0.57040564 -0.54436674 -6.788438e-20)
(0.60208122 -0.50430495 4.9387528e-20)
(0.63602793 -0.46193961 8.7674038e-20)
(0.6720725 -0.41780217 -7.3876932e-20)
(0.70959695 -0.37275863 9.1726496e-21)
(0.74586594 -0.3286381 2.9780532e-20)
(0.20226447 -0.63211932 1.6905958e-21)
(0.22961072 -0.60663862 1.3942203e-21)
(0.23976967 -0.59145413 2.6308757e-19)
(0.25382686 -0.57571331 -2.2091066e-19)
(0.2710058 -0.55879376 3.0928575e-21)
(0.29138698 -0.54026787 -1.4912712e-19)
(0.31515745 -0.51985049 1.1166146e-19)
(0.34248737 -0.49734918 1.9280907e-19)
(0.37347736 -0.47265267 -3.4992673e-21)
(0.40810335 -0.44574113 -2.5179632e-19)
(0.44616528 -0.4167034 9.7818703e-20)
(0.48729683 -0.38573929 0)
(0.53109369 -0.35313334 -6.1579168e-21)
(0.57714953 -0.31926731 5.0084791e-20)
(0.62428792 -0.28483794 -2.3853762e-20)
(0.6689229 -0.25111299 5.2289859e-20)
(0.091924376 -0.42492726 -1.7004268e-21)
(0.10477546 -0.39977429 3.9583553e-19)
(0.11811415 -0.38332151 -3.2674776e-19)
(0.13481768 -0.3689178 1.8962447e-21)
(0.15513883 -0.35493243 -4.8532532e-21)
(0.17922594 -0.34069748 1.4211896e-21)
(0.20730544 -0.32585991 1.5020535e-19)
(0.23959047 -0.31021687 1.5737429e-21)
(0.27621396 -0.29365627 -8.8528096e-20)
(0.31716273 -0.2761346 7.2383942e-20)
(0.36222792 -0.25766787 -5.8353552e-20)
(0.41104138 -0.23831357 0)
(0.46322764 -0.21812984 -3.6603492e-20)
(0.51830532 -0.19715828 2.5646592e-20)
(0.57434086 -0.17563504 -8.3421271e-21)
(0.62562002 -0.15458212 0)
(1.4246013 -0.94550262 0)
(1.5657549 -0.69752851 1.2176509e-18)
(1.509356 -0.74021314 -1.9749146e-18)
(1.50375 -0.71295756 8.0904493e-19)
(1.4867725 -0.69772418 5.4710056e-21)
(1.4704441 -0.67699773 1.724687e-21)
(1.4521637 -0.6544016 3.6631876e-19)
(1.4322775 -0.62905885 -3.0465496e-19)
(1.410746 -0.60095795 -2.1241053e-19)
(1.3876287 -0.5701072 1.5472857e-19)
(1.3631099 -0.53663606 0)
(1.3375351 -0.50085052 -7.3281868e-20)
(1.311458 -0.46327808 5.4696928e-20)
(1.2857131 -0.42454587 0)
(1.2612525 -0.38534506 0)
(1.238537 -0.34655494 0)
(0.035681056 -0.2517661 2.535837e-19)
(0.044033321 -0.21646908 -1.0431806e-19)
(0.061621007 -0.1955364 -1.7080591e-19)
(0.082705098 -0.17948913 1.3986378e-19)
(0.10705262 -0.16582837 1.4244842e-21)
(0.13479702 -0.15353406 -4.8072874e-20)
(0.16612766 -0.14208691 -3.9703764e-20)
(0.20120992 -0.13118151 4.6903353e-22)
(0.24013923 -0.12061511 5.1417758e-22)
(0.28289826 -0.11023674 5.69815e-20)
(0.32931713 -0.099937864 -5.9626297e-20)
(0.37905227 -0.089620769 1.0234952e-21)
(0.43159449 -0.079163226 5.2451293e-21)
(0.48624687 -0.068396538 1.3423434e-20)
(0.54191821 -0.057109686 9.2390661e-24)
(0.59665941 -0.045481383 -6.504777e-21)
(0.036074237 0.25030905 1.2605165e-19)
(0.044546645 0.21434048 1.0407804e-19)
(0.06236676 0.19353852 -2.5672097e-19)
(0.08374332 0.17781735 1.4006958e-19)
(0.10840644 0.16455981 -5.9105019e-20)
(0.1364742 0.15269774 -5.6757807e-24)
(0.16811971 0.14168149 -7.7165628e-20)
(0.20348804 0.13118084 3.2870393e-20)
(0.24265007 0.12097113 3.476079e-21)
(0.28556191 0.11088354 -1.8289658e-20)
(0.3320312 0.10079863 2.6689508e-20)
(0.38170388 0.090618353 -2.244254e-20)
(0.43406903 0.080233253 5.242578e-21)
(0.48839633 0.069508 2.5963951e-20)
(0.5434457 0.058325471 -9.8822748e-21)
(0.5970173 0.047099429 -1.3179337e-20)
(0.092348484 0.42620581 2.664904e-21)
(0.10520117 0.40122175 -3.9906408e-19)
(0.11871629 0.38492578 3.270842e-19)
(0.1356169 0.3706214 -2.6579092e-19)
(0.15613337 0.35667549 2.2143695e-19)
(0.18040433 0.34241967 0)
(0.20864464 0.32750074 -1.4565097e-19)
(0.24105379 0.31171541 1.154233e-19)
(0.27774817 0.29495071 2.3608664e-21)
(0.31869474 0.27716106 0)
(0.36366411 0.25835826 1.0244316e-20)
(0.41227459 0.23859164 -5.0871047e-21)
(0.46413984 0.21789967 3.5792095e-20)
(0.51871097 0.19626513 -6.7577615e-20)
(0.57385607 0.17378546 4.5855529e-20)
(0.62380449 0.15136685 1.2622445e-20)
(0.2028062 0.63450805 -1.6899268e-21)
(0.23024896 0.60913021 1.3936759e-21)
(0.24044101 0.59400687 0)
(0.2544714 0.57825366 -4.6489894e-21)
(0.2715784 0.56125105 -2.2820619e-21)
(0.29183876 0.54257584 -1.4879395e-19)
(0.31543146 0.52194567 1.2577725e-19)
(0.34251637 0.4991704 0)
(0.37318123 0.47414152 -1.2375462e-21)
(0.40738226 0.44684409 6.504728e-21)
(0.44489049 0.41737585 -6.5752085e-21)
(0.4853315 0.38594263 -2.9475046e-21)
(0.52841049 0.35279271 -7.6900822e-21)
(0.5739706 0.31816205 -4.6352663e-20)
(0.62064228 0.28259607 5.3245919e-20)
(0.66290478 0.24799474 -2.9083436e-20)
(0.36103913 0.81561749 0)
(0.41010334 0.77767196 -3.968818e-19)
(0.4142964 0.76278636 6.5641715e-19)
(0.42480816 0.74459394 -2.6904948e-19)
(0.43748543 0.72441806 2.2717702e-21)
(0.45252905 0.70178419 5.7336055e-21)
(0.47009765 0.67637552 -1.6079512e-19)
(0.4903347 0.64795917 1.2866569e-19)
(0.51334214 0.616394 9.6803545e-20)
(0.5391404 0.58166311 -8.8111998e-20)
(0.56762382 0.54391715 0)
(0.59860115 0.50348257 6.0967671e-20)
(0.6320762 0.46076357 -3.4270354e-20)
(0.66846999 0.41619115 0)
(0.70711121 0.37102203 0)
(0.74177175 0.3293847 0)
(0.5481057 0.94554343 -2.0876513e-19)
(0.62383483 0.88519104 8.9674866e-20)
(0.61864064 0.87404038 0)
(0.62545162 0.85433073 -1.993751e-22)
(0.63323025 0.83249429 7.5340672e-20)
(0.64271729 0.80767162 -6.3558031e-20)
(0.65398772 0.7795734 -6.0460539e-20)
(0.66713161 0.74797579 -4.453468e-21)
(0.68222355 0.71274474 4.8309008e-20)
(0.6993037 0.67387237 -3.8903484e-21)
(0.71835497 0.63152589 0)
(0.73932436 0.5860703 5.5793502e-20)
(0.76226513 0.53800954 -7.7144064e-21)
(0.78736039 0.48798709 -3.554507e-20)
(0.81406297 0.43728446 0)
(0.84023564 0.38809992 -3.120211e-21)
(0.69149899 0.98615336 1.0563154e-20)
(0.86334382 0.95079081 4.479678e-19)
(0.88049279 0.99389265 -1.7850031e-19)
(0.88007389 0.96769573 -1.2404563e-19)
(0.87935619 0.94246975 1.0246911e-19)
(0.87878989 0.91325493 -6.5025918e-20)
(0.87861053 0.88009594 4.8925513e-20)
(0.87903131 0.84277769 2.9050961e-20)
(0.880233 0.80115003 -2.8414192e-20)
(0.88244548 0.75531203 0)
(0.88588821 0.70563035 0)
(0.89073977 0.65273707 0)
(0.89725886 0.59742787 3.4033969e-21)
(0.90586931 0.54050327 0)
(0.9159254 0.48333222 -8.1068393e-21)
(0.92283562 0.43011715 1.809118e-20)
(0.27023649 -0.062926773 9.1304104e-19)
(0.49021338 0.40243311 3.398999e-21)
(0.66289083 0.50368575 -5.7454371e-19)
(0.75385463 0.54334936 4.742736e-19)
(0.80158075 0.55504961 7.0253413e-21)
(0.83298958 0.55098529 2.4473083e-21)
(0.85854513 0.53758123 0)
(0.88206092 0.51848661 1.8081326e-19)
(0.90523836 0.49543344 -2.9466074e-19)
(0.92872395 0.46930912 1.1545851e-19)
(0.95242402 0.44073562 -8.2722799e-20)
(0.97574021 0.41029166 6.7608455e-20)
(0.99780911 0.37852239 5.1343605e-21)
(1.0175859 0.34619404 -1.0471956e-20)
(1.0341057 0.31380445 -2.5704622e-20)
(1.0527707 0.27116771 0)
(0.88117403 0.22444628 0)
(1.0324374 0.7320415 -7.9611523e-21)
(1.1048628 0.67491932 8.0175368e-19)
(1.1211512 0.66590131 -6.5880087e-19)
(1.1263652 0.64739987 -1.1569082e-20)
(1.1286094 0.62369978 3.9923333e-19)
(1.1296623 0.59651451 -1.4897546e-20)
(1.1302934 0.56655664 -4.9646239e-19)
(1.1309427 0.5339057 3.5502632e-20)
(1.1317676 0.49874738 1.5014261e-19)
(1.132752 0.46145946 0)
(1.1337653 0.42260337 -1.157561e-20)
(1.1346216 0.38281874 -1.2603227e-20)
(1.1349517 0.34306186 -7.112869e-20)
(1.1346184 0.30292896 9.2866772e-20)
(1.1336203 0.26302208 1.1620959e-20)
(1.1793439 0.18380586 -2.4766411e-20)
(1.3111625 0.72636774 -2.6722676e-18)
(1.34629 0.60614683 1.087806e-18)
(1.3414181 0.60811783 -7.376143e-21)
(1.3349792 0.58728183 -6.6770496e-19)
(1.327392 0.56502269 5.4260937e-19)
(1.3190995 0.53981707 -7.2545826e-21)
(1.3101662 0.51199204 1.1247267e-20)
(1.3006363 0.48147845 -5.1957814e-21)
(1.2905151 0.44842261 -1.3054197e-20)
(1.2798166 0.41313577 1.3694993e-19)
(1.2685902 0.37611082 -9.8409747e-20)
(1.2569719 0.33793261 -1.5530366e-19)
(1.2450536 0.2996269 1.2978117e-19)
(1.2332056 0.26044943 -1.6886348e-20)
(1.2202962 0.22637218 -4.6455731e-20)
(1.4196573 0.071379043 -4.1345135e-21)
(1.5530464 0.63803931 -3.274883e-21)
(1.5511167 0.46898926 -6.3421746e-19)
(1.5376238 0.48976117 5.3397771e-19)
(1.524516 0.46764138 -6.7567895e-21)
(1.5097538 0.44991146 3.2607011e-19)
(1.4936047 0.42896521 -2.4384014e-19)
(1.4759494 0.40580341 -3.8681417e-19)
(1.4567626 0.38028774 2.0587965e-20)
(1.4360694 0.35256746 4.6940543e-19)
(1.4139882 0.32290952 -1.7745126e-19)
(1.3907622 0.29174974 0)
(1.3668031 0.25963142 1.0388716e-20)
(1.3425812 0.22758298 -7.5461679e-20)
(1.3186889 0.19461985 3.6117583e-20)
(1.2948494 0.16807678 -7.1402487e-20)
(1.5877323 -0.092806019 4.1185837e-21)
(1.732541 0.47155342 -8.7121957e-19)
(1.6993166 0.2812572 7.2267588e-19)
(1.6856663 0.31879394 -4.2446756e-21)
(1.6675177 0.29707699 1.0412897e-20)
(1.6477552 0.28589648 -2.8848207e-21)
(1.6258213 0.27100995 -2.8868158e-19)
(1.6016485 0.25476629 5.7180719e-21)
(1.5751766 0.23682249 1.6351205e-19)
(1.5464453 0.21733914 -1.2251875e-19)
(1.51564 0.19651642 9.8908537e-20)
(1.4831315 0.1746879 0)
(1.4495085 0.15229024 5.4034931e-20)
(1.4154832 0.13013955 -3.780399e-20)
(1.3816095 0.10710398 1.173078e-20)
(1.3482535 0.091237244 0)
(1.6853273 -0.28411536 -5.7271466e-19)
(1.8447634 0.25263396 2.413214e-19)
(1.7874187 0.064576707 3.7500079e-19)
(1.7769232 0.1118545 -3.0089153e-19)
(1.754742 0.093599821 5.4186127e-22)
(1.7319913 0.089652569 9.9614186e-20)
(1.7063329 0.081982898 7.701086e-20)
(1.6779888 0.074032659 -3.2103277e-21)
(1.64684 0.065223557 -2.869131e-21)
(1.6129383 0.055740994 -9.8988704e-20)
(1.5765093 0.04570924 9.9638394e-20)
(1.538008 0.035329482 -3.5115077e-21)
(1.498146 0.024858921 -9.280278e-21)
(1.4577991 0.014716295 -1.9765631e-20)
(1.417476 0.0038951202 -1.2377603e-23)
(1.378048 0.00018358102 8.084666e-21)
(1.7134029 -0.48193355 -2.8195142e-19)
(1.8838369 0.0029082381 -2.2226867e-19)
(1.8119279 -0.16225158 5.6185009e-19)
(1.8045659 -0.11411848 -2.993891e-19)
(1.7801167 -0.12517695 1.2498434e-19)
(1.7562296 -0.12217734 1.1545498e-23)
(1.7289733 -0.12192542 1.485723e-19)
(1.6988848 -0.12094633 -6.5597362e-20)
(1.6657898 -0.11985326 -8.1575991e-21)
(1.6297607 -0.1184638 2.938639e-20)
(1.5910521 -0.1167207 -4.5560707e-20)
(1.5501706 -0.11455623 3.4359521e-20)
(1.5079019 -0.1119138 -9.1127704e-21)
(1.4652019 -0.10875324 -3.6702948e-20)
(1.422643 -0.10573965 1.3573023e-20)
(1.3813094 -0.09755302 1.6073923e-20)
(1.675146 -0.66770233 -6.1359852e-21)
(1.8468756 -0.25594689 8.60347e-19)
(1.771967 -0.38179665 -7.0870141e-19)
(1.7656048 -0.34100554 5.4833549e-19)
(1.7415201 -0.34197394 -4.584103e-19)
(1.7181952 -0.33271026 0)
(1.6915877 -0.3242931 2.7269185e-19)
(1.6622703 -0.31434803 -2.1638934e-19)
(1.6300869 -0.30323942 -4.2268572e-21)
(1.5951293 -0.29085813 0)
(1.557673 -0.27721371 -1.6558846e-20)
(1.5182438 -0.26238162 7.7589054e-21)
(1.4776416 -0.24652498 -5.0309106e-20)
(1.4368142 -0.22990786 9.1711339e-20)
(1.3963793 -0.21288911 -6.0768039e-20)
(1.3567906 -0.19271167 -1.5379623e-20)
(1.5756394 -0.82443672 3.9560975e-21)
(1.7358681 -0.49821691 -3.1681288e-21)
(1.6681712 -0.57886012 0)
(1.6615308 -0.54702067 -2.8009976e-21)
(1.6402135 -0.53860488 -5.4768455e-21)
(1.6193879 -0.52335967 2.9083104e-19)
(1.5958274 -0.50729957 -2.4661686e-19)
(1.5699857 -0.48900856 0)
(1.5417697 -0.46861111 1.7400481e-20)
(1.5112716 -0.44607149 1.1901531e-20)
(1.4787515 -0.42146724 1.0606482e-20)
(1.4446905 -0.395009 -2.05641e-20)
(1.4098152 -0.36708003 1.1091999e-20)
(1.375001 -0.33825983 6.1998416e-20)
(1.3407939 -0.30955162 -6.9055776e-20)
(1.3071794 -0.28068818 3.6210914e-20)
(1.2550223 -1.0326293 2.4630248e-18)
(1.3721261 -0.84998699 -1.0094334e-18)
(1.3287941 -0.86320274 0)
(1.3262324 -0.83619355 -4.5281771e-21)
(1.3144193 -0.81594 -4.8006217e-19)
(1.3035779 -0.79074389 4.1238042e-19)
(1.291561 -0.76296112 2.8491869e-19)
(1.2785538 -0.73213481 -9.3535277e-21)
(1.2645325 -0.69818973 -1.9465938e-19)
(1.2494914 -0.66115848 9.3228835e-21)
(1.2335064 -0.62120385 0)
(1.2167688 -0.57867786 -1.2886364e-19)
(1.1996953 -0.53414022 2.7143561e-20)
(1.1832733 -0.48807147 7.1266721e-20)
(1.169044 -0.44078153 0)
(1.1559339 -0.39472461 5.6168395e-21)
(1.0866896 -1.1129692 1.0810573e-20)
(1.1867692 -0.9767337 1.6880449e-18)
(1.1540807 -0.97300627 -6.873753e-19)
(1.1563541 -0.9435936 -5.2258086e-19)
(1.1496675 -0.91930653 4.2879729e-19)
(1.1439341 -0.89036869 -3.2900006e-19)
(1.1374973 -0.85802822 2.7085219e-19)
(1.1303112 -0.82216011 1.8172916e-19)
(1.1223501 -0.78265921 -1.6088035e-19)
(1.1136213 -0.73954591 0)
(1.1042366 -0.69300442 0)
(1.0944311 -0.64343425 0)
(1.0846946 -0.59144934 5.5352365e-21)
(1.076282 -0.53761953 0)
(1.0713327 -0.4828058 3.0137416e-20)
(1.0693911 -0.43070109 -4.8499651e-20)
(-0.24275074 0.4019129 8.9834752e-20)
(0.12604308 -0.080702381 3.651112e-22)
(0.3089984 -0.22781333 -5.0726875e-20)
(0.4386919 -0.30383784 4.1550423e-20)
(0.53743387 -0.34264155 7.490891e-22)
(0.614472 -0.3590237 2.1636824e-21)
(0.67600914 -0.36231012 0)
(0.72683786 -0.35824147 3.0964479e-20)
(0.77035645 -0.35043738 -5.3044041e-20)
(0.80862452 -0.34112702 2.4890898e-20)
(0.84278323 -0.33150811 -2.6943906e-20)
(0.8733674 -0.32190497 2.2057316e-20)
(0.90053846 -0.3119211 -2.7048089e-21)
(0.92447516 -0.30061611 -3.9852813e-21)
(0.94470343 -0.28768877 -1.5168944e-20)
(0.96511367 -0.27002995 0)
(-0.12619754 0.33567044 0)
(-0.1746492 0.27106942 -9.4356264e-22)
(-0.051207135 0.1415716 9.5360435e-20)
(0.091523906 0.0082586223 -7.7939698e-20)
(0.23470996 -0.11588414 -1.3581464e-21)
(0.36391916 -0.208588 5.0601682e-20)
(0.47356685 -0.26502797 9.5084051e-22)
(0.56817924 -0.29702517 -7.0502429e-20)
(0.64859725 -0.31362512 1.6880114e-21)
(0.7153395 -0.3210406 2.5760541e-20)
(0.76951786 -0.32290852 0)
(0.81227843 -0.32102807 -2.5316152e-21)
(0.84491074 -0.31596192 -4.2840473e-21)
(0.86930313 -0.30738315 -2.0847124e-20)
(0.88747411 -0.2949075 2.8462536e-20)
(0.90448692 -0.27651117 2.601468e-21)
(-0.13424686 0.43634831 -2.0887763e-21)
(-0.18094419 0.36876541 -3.529907e-19)
(-0.15691788 0.34244728 1.4456531e-19)
(-0.12837264 0.32317361 -1.0223232e-21)
(-0.096869964 0.30619068 -9.4249565e-20)
(-0.033111505 0.25276951 7.6139378e-20)
(0.068333392 0.15861687 -1.1278515e-21)
(0.19153283 0.046559756 1.8673874e-21)
(0.32707674 -0.066857395 -7.5068939e-22)
(0.44745691 -0.15596386 -2.5487833e-21)
(0.54960921 -0.22315409 2.6689679e-20)
(0.63103177 -0.27062132 -1.8847344e-20)
(0.69245534 -0.29971291 -3.1042469e-20)
(0.7369861 -0.31155182 2.5585213e-20)
(0.76874623 -0.30825216 -4.0047438e-21)
(0.79857111 -0.28907855 -8.4890496e-21)
(-0.11932005 0.50475416 -4.4351301e-22)
(-0.1435845 0.44530557 -3.6390609e-22)
(-0.12901046 0.41536029 -8.8488094e-20)
(-0.11379487 0.38877464 7.4467487e-20)
(-0.098749156 0.36067813 -8.2017294e-22)
(-0.081013071 0.32999568 5.0903103e-20)
(-0.057842466 0.29707598 -3.8255063e-20)
(-0.027208024 0.25907143 -7.0723077e-20)
(0.022169617 0.19665574 -2.2890889e-21)
(0.139821 0.070729319 9.8381201e-20)
(0.25342744 -0.068502464 -3.8652687e-20)
(0.34185265 -0.18125666 0)
(0.41755338 -0.25786827 2.0972556e-21)
(0.48324911 -0.29829447 -1.0970698e-20)
(0.54028591 -0.30839576 5.8547743e-21)
(0.59831999 -0.29273661 -2.6011766e-21)
(-0.084046176 0.48010845 4.4351302e-22)
(-0.087373893 0.41937254 -7.7682446e-20)
(-0.087284054 0.38297349 6.4406297e-20)
(-0.088963752 0.3505724 -4.9405128e-22)
(-0.092450818 0.31684392 1.0527178e-21)
(-0.097101492 0.27940338 -2.0230849e-22)
(-0.10273549 0.23673272 -3.4552968e-20)
(-0.10983387 0.18740517 -2.2364724e-21)
(-0.11710009 0.12973855 2.1357512e-20)
(-0.11189575 0.061422212 -1.954303e-20)
(-0.056853881 -0.023839435 1.5798546e-20)
(0.024762783 -0.12592942 0)
(0.11087277 -0.21220739 6.0836009e-21)
(0.17547588 -0.24748873 -4.3449001e-21)
(0.24963456 -0.25888668 7.2411293e-22)
(0.33641917 -0.2449403 0)
(-0.055703932 0.34669202 -1.2071852e-20)
(-0.061943567 0.25984906 4.6920093e-21)
(-0.081897254 0.20687569 8.8942615e-21)
(-0.10465951 0.16535747 -7.9714599e-21)
(-0.12905202 0.12931511 -6.4160393e-22)
(-0.15428222 0.096228668 3.3520307e-21)
(-0.17934703 0.064704874 3.6342793e-21)
(-0.20298075 0.033733383 3.1224064e-22)
(-0.22373616 0.0023282455 2.248815e-22)
(-0.23952467 -0.030458411 -6.6916249e-21)
(-0.24516723 -0.064758995 7.1028183e-21)
(-0.22857629 -0.099538467 -7.0171703e-22)
(-0.18144278 -0.13346196 -1.5718829e-21)
(-0.11750904 -0.15798245 -5.1950909e-22)
(-0.033151498 -0.17136334 7.5244285e-25)
(0.096809474 -0.15737162 -1.4990153e-21)
(-0.055540964 -0.35314727 -6.6486711e-21)
(-0.061563101 -0.26723591 -6.0617809e-21)
(-0.081236053 -0.21383334 1.464202e-20)
(-0.10360007 -0.17135733 -8.7603999e-21)
(-0.12753728 -0.13399707 3.9947348e-21)
(-0.15227437 -0.099291672 4.2565376e-25)
(-0.17682146 -0.065874172 7.3295302e-21)
(-0.19993874 -0.032744347 -2.8540421e-21)
(-0.22026218 0.0010922229 -3.1759101e-22)
(-0.23576596 0.036614901 2.4589396e-21)
(-0.24082946 0.073924137 -3.093205e-21)
(-0.22202754 0.11168874 2.1600141e-21)
(-0.17486172 0.14783067 -1.6021873e-21)
(-0.11103695 0.17371189 -1.572078e-22)
(-0.025894078 0.18811486 -3.2365893e-22)
(0.10346787 0.17504343 -2.426892e-21)
(-0.084285567 -0.48466338 -5.7894802e-22)
(-0.08795352 -0.4234301 8.1360258e-20)
(-0.087603633 -0.38623628 -6.6835093e-20)
(-0.088920329 -0.35297703 5.5792952e-20)
(-0.092001259 -0.31830578 -4.6538435e-20)
(-0.096237833 -0.27977059 0)
(-0.10149713 -0.23579007 3.4912452e-20)
(-0.1081999 -0.18493776 -2.7522039e-20)
(-0.1150025 -0.12557784 -1.1359182e-21)
(-0.10912638 -0.055126252 0)
(-0.049382548 0.032977049 -2.9634615e-21)
(0.029046358 0.13651885 1.5906359e-21)
(0.11246853 0.2211222 -7.0141928e-21)
(0.17565809 0.256515 7.3753084e-21)
(0.24536421 0.26831088 -3.843365e-21)
(0.34257683 0.25110185 1.0833909e-21)
(-0.11965308 -0.50763969 4.5741063e-22)
(-0.14436727 -0.44755223 -3.7527555e-22)
(-0.12948107 -0.41700258 0)
(-0.11395498 -0.38977154 1.5620416e-21)
(-0.098615526 -0.3609685 8.6207455e-22)
(-0.080533895 -0.32949016 5.2234886e-20)
(-0.056990459 -0.29569559 -4.3957962e-20)
(-0.026422928 -0.25646162 0)
(0.025827169 -0.18981093 6.1650388e-23)
(0.14511964 -0.060960758 -2.6639304e-21)
(0.25584378 0.078387743 2.1912412e-21)
(0.34280983 0.19029047 1.5298189e-21)
(0.41725172 0.26579826 1.9752415e-21)
(0.48135566 0.30517114 9.2813899e-21)
(0.53597342 0.31435489 -8.935328e-21)
(0.599473 0.29401977 2.2882007e-21)
(-0.13458911 -0.43806645 0)
(-0.18157957 -0.36991573 1.8099129e-19)
(-0.15717356 -0.34316077 -2.9573521e-19)
(-0.12826801 -0.32345604 1.1978456e-19)
(-0.096503662 -0.30601713 -8.5896215e-22)
(-0.031610811 -0.25081164 -2.4536553e-21)
(0.070749078 -0.15501614 6.7242342e-20)
(0.19487498 -0.041388363 -5.3672454e-20)
(0.33000217 0.07222297 -3.9534158e-20)
(0.44962034 0.16139938 3.5701866e-20)
(0.55073802 0.22854936 0)
(0.63102619 0.27576734 -2.3579022e-20)
(0.69127617 0.3043904 1.2401457e-20)
(0.73459005 0.31550567 0)
(0.7647402 0.31131005 0)
(0.79685615 0.28876627 0)
(-0.12639764 -0.33641709 3.0561379e-19)
(-0.17489072 -0.27147433 -1.2565854e-19)
(-0.05080742 -0.14125121 0)
(0.09248865 -0.0073197987 -4.846652e-22)
(0.23622816 0.11746073 -6.4210336e-20)
(0.36550505 0.21028148 5.463668e-20)
(0.47516044 0.26691533 4.2732421e-20)
(0.5696654 0.29919884 2.9852182e-21)
(0.6498724 0.31613986 -3.2898645e-20)
(0.71632397 0.32386935 1.943639e-21)
(0.7701188 0.32593233 0)
(0.81239291 0.32405949 -4.036812e-20)
(0.84444292 0.31875876 4.1162847e-21)
(0.86821643 0.30962755 2.5540388e-20)
(0.88529537 0.29662233 0)
(0.90308377 0.27608285 3.8954354e-21)
(-0.24156699 -0.40073631 3.4974121e-21)
(0.12729346 0.082114237 1.4765109e-19)
(0.31018747 0.22911493 -5.8069383e-20)
(0.43988643 0.30515181 -4.2883768e-20)
(0.53864442 0.3440464 3.4855288e-20)
(0.61570453 0.36057643 -3.5129266e-20)
(0.6772696 0.36404578 2.6045071e-20)
(0.72812039 0.36017678 3.1117837e-20)
(0.77162543 0.35256014 -3.1185951e-20)
(0.80980821 0.34339013 0)
(0.84377013 0.33382544 0)
(0.87400989 0.3241557 0)
(0.90069116 0.3139551 7.6100221e-21)
(0.92404608 0.30228585 0)
(0.94337291 0.28931993 2.7354534e-20)
(0.96807517 0.26777988 -4.8339818e-20)
(0.85676713 0.96086092 0)
(0.8818477 1.0008013 0)
(0.89004389 0.97150782 0)
(0.89273205 0.94782979 6.5219221e-21)
(0.89623445 0.92001248 -4.0958726e-20)
(0.90038331 0.88806185 4.2800517e-20)
(0.90531125 0.85195178 0)
(0.91107049 0.81143602 -5.9149175e-21)
(0.91768824 0.76648235 0)
(0.92515151 0.71738637 0)
(0.93338696 0.66474559 0)
(0.94236701 0.60940321 7.4014804e-21)
(0.95240186 0.55218508 0)
(0.96365158 0.4944558 1.198354e-20)
(0.97413894 0.44180128 0)
(0.8571205 -0.96126141 0)
(0.88219137 -1.0008901 0)
(0.89049173 -0.97177145 0)
(0.893348 -0.94822588 6.5391552e-21)
(0.8970484 -0.92058242 -3.8453996e-20)
(0.90142239 -0.88882946 4.7401983e-20)
(0.90657627 -0.85292657 0)
(0.91252291 -0.81259117 5.918243e-21)