/*--------------------------------*- C++ -*----------------------------------*\
| =========                 |                                                 |
| \\      /  F ield         | foam-extend: Open Source CFD                    |
|  \\    /   O peration     | Version:     4.1                                |
|   \\  /    A nd           | Web:         http://www.foam-extend.org         |
|    \\/     M anipulation  |                                                 |
\*---------------------------------------------------------------------------*/
FoamFile
{
    version     2.0;
    format      ascii;
    class       volScalarField;
    location    "0.25";
    object      p;
}
// * * * * * * * * * * * * * * * * * * * * * * * * * * * * * * * * * * * * * //

dimensions      [0 2 -2 0 0 0 0];

internalField   nonuniform List<scalar> 
16796
(
-13.041349
-18.332158
-25.188915
-32.063075
-38.866665
-45.532796
-52.022105
-58.30552
-64.358996
-70.161515
-75.694388
-80.941147
-85.887713
-90.522767
-94.838193
-98.829645
-102.49709
-105.84547
-108.8852
-111.63283
-114.11149
-116.35134
-118.38983
-120.27198
-122.05029
-123.7847
-125.54215
-127.39618
-129.42602
-131.71574
-134.35311
-137.42831
-141.0326
-145.2568
-150.19033
-155.91928
-162.52395
-170.07788
-178.64652
-188.28566
-199.03987
-210.94142
-224.00971
-238.24994
-253.65146
-270.18738
-287.81393
-306.46978
-326.07554
-346.53336
-367.72664
-389.51992
-411.75883
-434.2703
-456.86283
-479.32711
-501.43684
-522.94982
-543.60947
-563.14661
-581.2817
-597.72745
-612.19188
-624.38168
-634.006
-640.78052
-644.43169
-644.70118
-641.35036
-634.16468
-622.95795
-607.5762
-587.90125
-563.85366
-535.39514
-502.53066
-465.3073
-423.81183
-378.17311
-328.58433
-275.29318
-218.55634
-158.64829
-95.880497
-30.591408
36.86089
106.1045
176.75944
248.44329
320.7765
393.38747
465.91715
538.02308
609.38294
679.69734
748.69204
816.11944
881.75948
945.41991
1006.936
1066.1697
1123.0088
1177.365
1229.1727
1278.3865
1324.9796
1368.9416
1410.2766
1449.0008
1485.1412
1518.7335
1549.8208
1578.4529
1604.6851
1628.576
1650.1864
1669.5924
1686.9058
1702.2369
1715.562
1726.7198
1736.7549
1749.441
1766.9974
-11.296806
-18.074477
-25.161315
-32.119825
-38.958681
-45.644602
-52.147449
-58.441198
-64.502885
-70.311858
-75.849506
-81.099304
-86.047055
-90.681292
-94.993739
-98.979888
-102.63956
-105.97754
-109.00414
-111.73583
-114.19567
-116.41382
-118.42775
-120.28256
-122.03088
-123.73284
-125.45565
-127.27315
-129.26491
-131.51539
-134.11282
-137.14792
-140.71269
-144.8986
-149.79613
-155.49183
-162.06612
-169.59305
-178.13866
-187.75924
-198.4999
-210.39356
-223.46066
-237.70702
-253.12223
-269.6798
-287.33627
-306.03061
-325.68362
-346.19758
-367.45591
-389.32309
-411.64457
-434.24697
-456.93838
-479.50893
-501.7316
-523.36337
-544.14664
-563.81109
-582.07588
-598.65233
-613.2469
-625.56467
-635.31311
-642.20616
-645.96857
-646.34033
-643.08119
-635.97515
-624.83468
-609.50474
-589.86632
-565.83948
-537.38581
-504.51082
-467.26557
-425.74841
-380.09995
-330.49053
-277.12624
-220.26835
-160.21707
-97.293004
-31.838415
35.785841
105.20546
176.03821
247.89946
320.40758
393.189
465.88284
538.14504
609.65185
680.10273
749.2225
816.7629
882.50346
946.25172
1007.843
1067.1394
1124.0292
1178.4246
1230.2604
1279.4922
1326.0937
1370.0553
1411.3818
1450.0899
1486.2072
1519.7696
1550.8202
1579.4081
1605.5868
1629.4124
1650.9488
1670.2708
1687.4694
1702.6196
1715.6948
1726.6482
1736.4032
1746.7761
1756.5343
-10.474848
-17.579652
-24.89839
-32.003043
-38.947575
-45.722024
-52.306038
-58.677208
-64.813554
-70.694278
-76.300101
-81.613594
-86.619544
-91.305439
-95.661967
-99.683631
-103.36933
-106.72304
-109.75436
-112.47918
-114.92015
-117.10713
-119.07753
-120.87654
-122.55706
-124.17972
-125.81243
-127.52989
-129.41273
-131.54686
-134.02248
-136.93227
-140.3696
-144.42783
-149.19792
-154.76751
-161.22029
-168.63314
-177.07451
-186.60331
-197.26746
-209.10258
-222.12971
-236.35527
-251.77073
-268.35103
-286.054
-304.81946
-324.56877
-345.20441
-366.60967
-388.64851
-411.16551
-433.98605
-456.91657
-479.74519
-502.24252
-524.16278
-545.24531
-565.21641
-583.79161
-600.67838
-615.57916
-628.19493
-638.229
-645.39121
-649.40227
-649.99836
-646.93565
-639.99484
-628.98551
-613.75011
-594.16764
-570.15652
-541.67723
-508.73521
-471.38312
-429.72042
-383.88985
-334.07247
-280.48475
-223.38542
-163.06981
-99.860243
-34.10268
33.837891
103.58291
174.74589
246.93801
319.77363
392.87539
465.87896
538.43719
610.22369
680.93576
750.29655
818.05661
883.99478
947.91837
1009.6628
1069.091
1126.0918
1180.5788
1232.4881
1281.7768
1328.4205
1372.4112
1413.7554
1452.4718
1488.5897
1522.1466
1553.1875
1581.7627
1607.9266
1631.7363
1653.2557
1672.5582
1689.7235
1704.8024
1717.7978
1728.8027
1738.5331
1747.1764
1752.4826
-10.249443
-17.396591
-24.828454
-32.031826
-39.057813
-45.90259
-52.550471
-58.981363
-65.174061
-71.107682
-76.762384
-82.11993
-87.164165
-91.881587
-96.261892
-100.29863
-103.98984
-107.33869
-110.35413
-113.05155
-115.45322
-117.58884
-119.49581
-121.2195
-122.81323
-124.33821
-125.86313
-127.46371
-129.2222
-131.22683
-133.56886
-136.34194
-139.64114
-143.56176
-148.19703
-153.63706
-159.9675
-167.26743
-175.60765
-185.04934
-195.64269
-207.42554
-220.42161
-234.63987
-250.07377
-266.69984
-284.47716
-303.3467
-323.23071
-344.03218
-365.63456
-387.90158
-410.6771
-433.78533
-457.03107
-480.20025
-503.0608
-525.36377
-546.84481
-567.22612
-586.21869
-603.5251
-618.84262
-631.86687
-642.29566
-649.83335
-654.19524
-655.1123
-652.33577
-645.64187
-634.83612
-619.75751
-600.28231
-576.32642
-547.84881
-514.85538
-477.40087
-435.58206
-389.53955
-339.45687
-285.55763
-228.10559
-167.39993
-103.7686
-37.563595
30.843905
101.06902
172.7189
245.39848
318.71605
392.28857
465.74647
538.73796
610.93265
682.02453
751.73417
819.81033
886.03071
950.20219
1012.1604
1071.769
1128.9179
1183.5224
1235.5206
1284.8715
1331.5529
1375.5592
1416.8991
1455.5935
1491.6736
1525.1789
1556.1555
1584.6551
1610.7327
1634.4457
1655.8577
1675.0379
1692.0521
1706.9376
1719.7313
1730.5881
1739.9927
1747.4532
1751.1525
-10.135386
-17.28696
-24.809176
-32.118588
-39.248934
-46.1935
-52.936908
-59.459402
-65.739571
-71.755835
-77.48732
-82.914546
-88.020004
-92.788788
-97.209197
-101.27344
-104.97829
-108.32579
-111.32394
-113.9873
-116.33759
-118.40417
-120.22436
-121.84372
-123.31604
-124.70329
-126.07527
-127.50956
-129.09135
-130.91016
-133.05846
-135.63224
-138.72978
-142.44923
-146.88719
-152.13728
-158.28845
-165.42319
-173.61583
-182.93099
-193.42214
-205.13014
-218.08184
-232.28912
-247.74793
-264.43713
-282.31745
-301.33128
-321.40182
-342.43255
-364.30687
-386.88786
-410.0182
-433.52023
-457.19626
-480.8291
-504.18288
-527.0042
-549.02365
-569.95778
-589.51141
-607.38048
-623.2553
-636.82419
-647.77762
-655.8125
-660.63688
-661.9747
-659.5706
-653.19469
-642.64711
-627.7622
-608.4125
-584.51066
-556.01412
-522.93016
-485.31539
-443.26759
-396.92983
-346.48871
-292.1727
-234.25021
-173.02543
-108.8328
-42.03187
26.998135
97.863976
170.16435
243.49582
317.45863
391.66212
465.72978
539.3036
612.04789
683.65228
753.834
822.33943
888.94487
953.45672
1015.711
1075.5723
1132.9326
1187.7091
1239.8426
1289.2952
1336.0476
1380.0976
1421.4568
1460.1493
1496.209
1529.6778
1560.6039
1589.04
1615.0419
1638.667
1659.9767
1679.0336
1695.8895
1710.5731
1723.1359
1733.7062
1742.5453
1748.9847
1751.8704
-10.177355
-17.339176
-24.927629
-32.322327
-39.542782
-46.576989
-53.407797
-60.014641
-66.375352
-72.467397
-78.268741
-83.75857
-88.917932
-93.730419
-98.182818
-102.26587
-105.97493
-109.31079
-112.28029
-114.89709
-117.18219
-119.16449
-120.88112
-122.37782
-123.70878
-124.93668
-126.1328
-127.37736
-128.75749
-130.36327
-132.2901
-134.63709
-137.50538
-140.99653
-145.21082
-150.24563
-156.19377
-163.14169
-171.16775
-180.34062
-190.71775
-202.34381
-215.2494
-229.44988
-244.94428
-261.7144
-279.72319
-298.91493
-319.21412
-340.525
-362.73107
-385.69491
-409.25794
-433.24054
-457.44225
-481.64228
-505.60036
-529.05789
-551.73947
-573.35488
-593.60152
-612.16728
-628.73395
-642.98098
-654.58968
-663.24781
-668.65436
-670.52445
-668.59439
-662.62659
-652.41419
-637.78558
-618.60825
-594.7905
-566.28737
-533.10668
-495.30502
-452.98165
-406.28246
-355.39864
-300.56472
-242.05576
-180.18332
-115.29036
-47.745844
22.060846
93.725952
166.83749
240.98146
315.74787
390.73646
465.56188
539.8583
613.2833
685.52104
756.28451
825.31714
892.39352
957.3195
1019.9316
1080.0958
1137.7063
1192.6833
1244.9709
1294.5349
1341.3601
1385.4484
1426.8157
1465.4898
1501.5088
1534.9179
1565.7687
1594.1165
1620.0191
1643.5354
1664.7269
1683.6522
1700.3564
1714.8695
1727.2505
1737.5785
1745.9646
1751.7423
1754.2037
-10.252465
-17.451377
-25.121116
-32.616106
-39.944353
-47.088086
-54.027251
-60.739525
-67.201299
-73.388587
-79.277788
-84.846407
-90.07371
-94.941462
-99.434613
-103.54211
-107.2576
-110.5803
-113.51567
-116.07619
-118.28196
-120.16129
-121.75107
-123.09718
-124.25418
-125.28578
-126.26546
-127.27638
-128.40638
-129.74819
-131.40082
-133.46681
-136.05117
-139.25967
-143.19708
-147.96548
-153.6625
-160.37951
-168.19979
-177.19695
-187.43321
-198.95787
-211.80593
-225.99693
-241.53354
-258.4009
-276.56455
-295.97099
-316.54611
-338.19497
-360.80119
-384.22659
-408.31107
-432.87254
-457.70716
-482.58982
-507.27496
-531.49768
-554.97537
-577.40972
-598.48917
-617.89198
-635.28965
-650.35093
-662.74616
-672.15204
-678.2566
-680.76441
-679.40171
-673.92164
-664.109
-649.78505
-630.81128
-607.091
-578.57646
-545.27586
-507.24641
-464.58916
-417.45314
-366.03454
-310.57443
-251.35574
-188.69907
-122.9577
-54.512081
16.236161
88.870473
162.96588
238.0955
313.83689
389.77805
465.52289
540.69606
614.94699
687.95318
759.42256
829.09501
896.7431
962.17205
1025.219
1085.7519
1143.6675
1198.8895
1251.3662
1301.0678
1347.9841
1392.1215
1433.5009
1472.1548
1508.1254
1541.4622
1572.2199
1600.4567
1626.2326
1649.6079
1670.6438
1689.3957
1705.9059
1720.208
1732.3625
1742.4101
1750.3943
1755.7171
1757.9295
-10.397081
-17.651824
-25.407151
-33.002029
-40.437679
-47.691647
-54.740888
-61.560974
-68.126523
-74.411824
-80.391475
-86.041075
-91.337894
-96.261638
-100.79518
-104.92543
-108.64408
-111.94852
-114.84257
-117.33734
-119.45182
-121.21354
-122.65904
-123.83423
-124.79397
-125.60334
-126.33848
-127.08447
-127.93038
-128.97276
-130.31404
-132.06062
-134.32198
-137.20863
-140.83043
-145.29485
-150.70506
-157.1581
-164.743
-173.53905
-183.61407
-195.0228
-207.80536
-221.98616
-237.57221
-254.55258
-272.89625
-292.55213
-313.44793
-335.4898
-358.56157
-382.52441
-407.21653
-432.45313
-458.02661
-483.70694
-509.24248
-534.36116
-558.77202
-582.16734
-604.22517
-624.61245
-642.98867
-659.00998
-672.33378
-682.62368
-689.55475
-692.81898
-692.13063
-687.23178
-677.89717
-663.9395
-645.21298
-621.61489
-593.0939
-559.6581
-521.36546
-478.31936
-430.67275
-378.62768
-322.43288
-262.38058
-198.80219
-132.06331
-62.557953
9.297685
83.071862
158.32415
234.61232
311.49911
388.55857
465.38183
541.58225
616.79964
690.7037
762.99642
833.41363
901.72567
967.7372
1031.2864
1092.2433
1150.5084
1206.0097
1258.7005
1308.5566
1355.5737
1399.7641
1441.1548
1479.784
1515.6992
1548.9551
1579.6108
1607.7281
1633.3702
1656.5993
1677.4767
1696.0565
1712.3795
1726.4811
1738.4177
1748.202
1755.8567
1760.8598
1762.9131
-10.570972
-17.906332
-25.767928
-33.48039
-41.040218
-48.421141
-55.597218
-62.541701
-69.227131
-75.625752
-81.710051
-87.453413
-92.830799
-97.819539
-102.40012
-106.55707
-110.27981
-113.56362
-116.41039
-118.82956
-120.83884
-122.46479
-123.74351
-124.72087
-125.4521
-126.00394
-126.45519
-126.89261
-127.40805
-128.10184
-129.08042
-130.45482
-132.33966
-134.85097
-138.10454
-142.21408
-147.28921
-153.43352
-160.74269
-169.30261
-179.18753
-190.45848
-203.16144
-217.32644
-232.96547
-250.07213
-268.61937
-288.55863
-309.81984
-332.3104
-355.91448
-380.49243
-405.88062
-431.89123
-458.31234
-484.90837
-511.4208
-537.56933
-563.05348
-587.55475
-610.73924
-632.26091
-651.76538
-668.89423
-683.28991
-694.60086
-702.48716
-706.62617
-706.71828
-702.49268
-693.71248
-680.18042
-661.74224
-638.28829
-609.76294
-576.17364
-537.57929
-494.08582
-445.85056
-393.08212
-336.03798
-275.02107
-210.3754
-142.48092
-71.747456
1.3917931
76.487319
153.08059
230.71142
308.92516
387.27949
465.35062
542.73869
619.07231
694.01212
767.25326
838.52695
907.60101
974.2796
1038.4021
1099.8416
1158.5024
1214.3177
1267.2469
1317.2724
1364.3964
1408.6384
1450.0322
1488.6227
1524.4639
1557.6162
1588.1439
1616.1138
1641.5928
1664.6463
1685.3374
1703.7205
1719.8382
1733.7279
1745.4417
1754.9771
1762.358
1767.1246
1769.0675
-10.789325
-18.222641
-26.203283
-34.042901
-41.73544
-49.25179
-56.563439
-63.641322
-70.455753
-76.976723
-83.174362
-89.019575
-94.48473
-99.544481
-104.1766
-108.36294
-112.09032
-115.35156
-118.14633
-120.48216
-122.37517
-123.85075
-124.94442
-125.70183
-126.17869
-126.44347
-126.57758
-126.6698
-126.81506
-127.11778
-127.68888
-128.64456
-130.10518
-132.19303
-135.0306
-138.73864
-143.43407
-149.22797
-156.22355
-164.51419
-174.18153
-185.2937
-197.90344
-212.0471
-227.74245
-244.98829
-263.76218
-284.0186
-305.69008
-328.68555
-352.88961
-378.1619
-404.33681
-431.22323
-458.60454
-486.23897
-513.86033
-541.17909
-567.88406
-593.64455
-618.11309
-640.92885
-661.72162
-680.11637
-695.73833
-708.21858
-717.19989
-722.3428
-723.33166
-719.88084
-711.73992
-698.70016
-680.59746
-657.31422
-628.7896
-595.03002
-556.09549
-512.09507
-463.19103
-409.59937
-351.58747
-289.47045
-223.6068
-154.39289
-82.2568
-7.6513152
68.953532
147.07828
226.24195
305.96977
385.80052
465.29317
544.03267
621.6348
697.74988
772.06537
844.30737
914.24109
981.67035
1046.4363
1108.4154
1167.5172
1223.681
1276.8731
1327.0837
1374.323
1418.6187
1460.0123
1498.5567
1534.3131
1567.3486
1597.7338
1625.5407
1650.8409
1673.7033
1694.1936
1712.3683
1728.2723
1741.9453
1753.4375
1762.7405
1769.8892
1774.4713
1776.3316
-11.037605
-18.589132
-26.708551
-34.693143
-42.535104
-50.203086
-57.666271
-64.893288
-71.8521
-78.510232
-84.835199
-90.795133
-96.359483
-101.49989
-106.19106
-110.41179
-114.14593
-117.3835
-120.12161
-122.36554
-124.12956
-125.43766
-126.32462
-126.83566
-127.02707
-126.96937
-126.74656
-126.44957
-126.17707
-126.03795
-126.1482
-126.62983
-127.6097
-129.21713
-131.58218
-134.83356
-139.09644
-144.49035
-151.12701
-159.10828
-168.52408
-179.45062
-191.94827
-206.06052
-221.81172
-239.20654
-258.22776
-278.83329
-300.9587
-324.51467
-349.38636
-375.43273
-402.4861
-430.35178
-458.80802
-487.60627
-516.47182
-545.10493
-573.18244
-600.36001
-626.27496
-650.5498
-672.79646
-692.62106
-709.62937
-723.43271
-733.65418
-739.93518
-741.94182
-739.37151
-731.9585
-719.48087
-701.76337
-678.67934
-650.16184
-616.21566
-576.90205
-532.33349
-482.67767
-428.15882
-369.05537
-305.69621
-238.45617
-167.75038
-94.027677
-17.763266
60.549305
140.40655
221.3036
302.74258
384.24057
465.33677
545.59879
624.62779
702.06244
777.58159
850.90571
921.79729
990.06005
1055.5374
1118.1101
1177.6935
1234.2344
1287.7073
1338.1111
1385.4655
1429.8075
1471.1878
1509.6681
1545.3183
1578.2131
1608.4303
1636.0483
1661.1442
1683.7917
1704.0601
1722.0091
1737.6868
1751.1359
1762.4064
1771.4901
1778.4355
1782.8655
1784.6596
-11.322839
-19.00916
-27.283163
-35.426996
-43.431966
-51.265009
-58.893248
-66.283064
-73.399977
-80.208867
-86.674387
-92.7616
-98.436709
-103.66798
-108.42667
-112.68813
-116.43285
-119.64765
-122.32669
-124.47265
-126.09765
-127.224
-127.88549
-128.12669
-128.00465
-127.59232
-126.97549
-126.24756
-125.51196
-124.88212
-124.4796
-124.43299
-124.87628
-125.94665
-127.78261
-130.52176
-134.29851
-139.24184
-145.47302
-153.10339
-162.23221
-172.9447
-185.30983
-199.37905
-215.18424
-232.73649
-252.02454
-273.01055
-295.63356
-319.80609
-345.41417
-372.31618
-400.34233
-429.29416
-458.9444
-489.03714
-519.28837
-549.3871
-578.99693
-607.75839
-635.29181
-661.20109
-685.07807
-706.5077
-725.07378
-740.3653
-751.9831
-759.54688
-762.70204
-761.12678
-754.53793
-742.69859
-725.42083
-702.56777
-674.0653
-639.91603
-600.18273
-554.9818
-504.48694
-448.9314
-388.60589
-323.85468
-255.07096
-182.69096
-107.18705
-29.059877
51.170257
132.97248
215.81467
299.17259
382.5386
465.42943
547.39303
628.01411
706.9183
783.77495
858.2985
930.24869
999.4295
1065.6873
1128.9081
1189.0143
1245.9612
1299.7329
1350.3386
1397.8086
1442.1904
1483.5454
1521.9453
1557.4693
1590.2012
1620.2269
1647.6319
1672.4998
1694.9098
1714.9359
1732.642
1748.0804
1761.2973
1772.3448
1781.2181
1787.9789
1792.2767
1794.0145
-11.638128
-19.476772
-27.923944
-36.244806
-44.430046
-52.445182
-60.255455
-67.825022
-75.116873
-82.093055
-88.715103
-94.944696
-100.74444
-106.07882
-110.91525
-115.22518
-118.98533
-122.17886
-124.79658
-126.83818
-128.31324
-129.24214
-129.65743
-129.60289
-129.13631
-128.3328
-127.28013
-126.07515
-124.82579
-123.6507
-122.67764
-122.04234
-121.88675
-122.35681
-123.6004
-125.76503
-128.99539
-133.43101
-139.20378
-146.43564
-155.23625
-165.7009
-177.90817
-191.91838
-207.77187
-225.48692
-245.05891
-266.45531
-289.6186
-314.46349
-340.87717
-368.71757
-397.81275
-427.96034
-458.92715
-490.44936
-522.23288
-553.95441
-585.26307
-615.78264
-645.11469
-672.84239
-698.53524
-721.75447
-742.05928
-759.01357
-772.19317
-781.19333
-785.63616
-785.17819
-779.51664
-768.39776
-751.61932
-729.033
-700.55645
-666.18934
-625.99612
-580.09749
-528.67362
-471.96763
-410.28371
-343.98318
-273.47971
-199.23317
-121.74243
-41.536858
40.832899
124.80488
209.81599
295.31203
380.75728
465.64303
549.49506
631.87961
712.40783
790.73864
866.58008
939.68922
1009.8708
1076.975
1140.8941
1201.559
1258.9349
1313.017
1363.8264
1411.4053
1455.8135
1497.1241
1535.4204
1570.7922
1603.3334
1633.1387
1660.3021
1684.9145
1707.0613
1726.8221
1744.266
1759.4501
1772.4247
1783.2455
1791.9128
1798.5001
1802.6775
1804.3647
-11.98844
-19.995721
-28.633149
-37.147667
-45.529722
-53.743669
-61.752998
-69.519653
-77.003994
-84.165042
-90.960944
-97.349663
-103.28982
-108.7417
-113.6684
-118.03703
-121.82
-124.99638
-127.55312
-129.48651
-130.80314
-131.52117
-131.67154
-131.29712
-130.45623
-129.22594
-127.69651
-125.96843
-124.15434
-122.37861
-120.7758
-119.48949
-118.67044
-118.47423
-119.05914
-120.58364
-123.20385
-127.07097
-132.32871
-139.11074
-147.53828
-157.71777
-169.7385
-183.67064
-199.5639
-217.4446
-237.31568
-259.15077
-282.89599
-308.4688
-335.7578
-364.6207
-394.88348
-426.33969
-458.74999
-491.84208
-525.31104
-558.82026
-592.003
-624.46475
-655.78635
-685.52807
-713.23456
-738.44065
-760.67804
-779.48254
-794.40191
-805.00398
-810.88465
-811.67615
-807.05363
-796.7444
-780.53023
-758.24999
-729.8118
-695.21173
-654.51624
-607.85082
-555.4026
-497.42537
-434.23808
-366.2208
-293.80983
-217.49145
-137.79415
-55.279674
29.467114
115.84906
203.26797
291.13573
378.88483
465.97787
551.91572
636.244
718.55789
798.50499
875.78662
950.1574
1021.4235
1089.4399
1154.1066
1215.3643
1273.1899
1327.5913
1378.6029
1426.281
1470.6989
1511.9431
1550.1096
1585.3002
1617.6198
1647.1734
1674.0642
1698.3911
1720.2468
1739.7174
1756.8778
1771.7905
1784.5106
1795.0984
1803.5599
1809.979
1814.0421
1815.6817
-12.369182
-20.561295
-29.407072
-38.133377
-46.73053
-55.161872
-63.389224
-71.372305
-79.068728
-86.43428
-93.423427
-99.99006
-106.08839
-111.67406
-116.70534
-121.14447
-124.95904
-128.12346
-130.62035
-132.44207
-133.5918
-134.08507
-133.95089
-133.23094
-131.98394
-130.2888
-128.23868
-125.93785
-123.50401
-121.06774
-118.77104
-116.76608
-115.2133
-114.27891
-114.13264
-114.94509
-116.88497
-120.11642
-124.79619
-131.07096
-139.07469
-148.9262
-160.72664
-174.55714
-190.4777
-208.5237
-228.7066
-251.00703
-275.37506
-301.73132
-329.96624
-359.93751
-391.46911
-424.35049
-458.33586
-493.14399
-528.45837
-563.92805
-599.16913
-633.7671
-667.28011
-699.24317
-729.17347
-756.57653
-780.95342
-801.80864
-818.65857
-831.04036
-838.5206
-840.70428
-837.24195
-827.8397
-812.26149
-790.33197
-761.94836
-727.10229
-685.86246
-638.35959
-584.78819
-525.41351
-460.57046
-390.65959
-316.1422
-237.5338
-155.39599
-70.326816
17.050283
106.09841
196.17967
286.66756
376.9587
466.48338
554.71453
641.1749
725.44208
807.15149
885.9975
961.73266
1034.1655
1103.157
1168.6164
1230.496
1288.7862
1343.5096
1394.7161
1442.4773
1486.882
1528.0318
1566.0367
1601.0118
1633.0744
1662.3408
1688.9241
1712.9323
1734.4663
1753.6191
1770.4722
1785.094
1797.5451
1807.8909
1816.143
1822.3945
1826.3456
1827.9388
-12.784568
-21.17756
-30.249369
-39.205464
-48.036268
-56.704256
-65.16964
-73.389876
-81.319692
-88.91141
-96.115499
-102.88138
-109.15841
-114.89706
-120.05023
-124.57472
-128.43271
-131.59335
-134.03435
-135.74359
-136.72028
-136.97689
-136.54011
-135.45012
-133.76573
-131.56769
-128.95222
-126.02766
-122.91704
-119.75771
-116.69973
-113.90468
-111.5436
-109.79439
-108.83938
-108.8625
-110.04637
-112.56937
-116.60264
-122.30718
-129.83103
-139.30666
-150.84823
-164.54908
-180.48046
-198.6879
-219.19223
-241.98225
-267.01237
-294.20685
-323.45844
-354.62514
-387.52903
-421.95553
-457.65222
-494.32851
-531.65563
-569.26727
-606.76102
-643.70067
-679.61954
-714.02495
-746.40374
-776.229
-802.96777
-826.08964
-845.076
-859.4297
-868.68458
-872.41521
-870.24465
-861.85536
-846.99148
-825.46195
-797.15158
-762.04665
-720.21858
-671.80379
-617.00459
-556.09835
-489.43717
-417.44384
-340.60701
-259.4745
-174.64477
-86.756499
3.5234829
95.513431
188.5306
281.90511
374.99309
467.18852
557.93313
646.72428
733.12031
816.74365
897.28163
974.48529
1048.1666
1118.1941
1184.4881
1247.0146
1305.7796
1360.8225
1412.2106
1460.0332
1504.3963
1545.418
1583.2242
1617.9448
1649.7105
1678.6497
1704.8869
1728.5398
1749.7181
1768.5228
1785.0421
1799.351
1811.5161
1821.6079
1829.6437
1835.7248
1839.563
1841.1098
-13.23125
-21.840653
-31.156498
-40.361123
-49.445164
-58.370334
-67.095275
-75.575123
-83.761564
-91.603196
-99.046144
-106.03493
-112.51355
-118.42676
-123.72149
-128.34846
-132.26378
-135.43072
-137.82139
-139.41858
-140.21698
-140.22549
-139.46799
-137.98282
-135.82863
-133.08789
-129.86005
-126.25776
-122.40975
-118.46062
-114.5692
-110.90729
-107.65755
-105.01065
-103.16277
-102.31249
-102.65772
-104.3925
-107.70379
-112.76837
-119.74975
-128.7954
-140.03383
-153.57187
-169.49309
-187.85434
-208.68676
-231.98858
-257.71892
-285.80633
-316.14625
-348.5973
-382.97999
-419.07574
-456.62545
-495.32882
-534.84416
-574.78886
-614.74062
-654.23977
-692.79263
-729.87615
-764.94384
-797.43291
-826.77268
-852.39393
-873.73906
-890.27263
-901.49199
-906.93776
-906.20245
-898.9422
-884.87928
-863.80533
-835.59114
-800.2166
-757.75632
-708.35285
-652.21659
-589.63772
-520.98657
-446.70995
-367.3263
-283.41901
-195.62747
-104.63579
-11.159565
84.068858
180.31605
276.86311
373.02054
468.14148
561.63285
652.96391
741.67207
827.36598
909.72598
988.50245
1063.5121
1134.6331
1201.7989
1264.9915
1324.2349
1379.5878
1431.1373
1478.9924
1523.2785
1564.1321
1601.6964
1636.1176
1667.5409
1696.1085
1721.9566
1745.2138
1765.9992
1784.4221
1800.5784
1814.5499
1826.4091
1836.2324
1844.0422
1849.947
1853.6693
1855.1685
-13.712535
-22.553938
-32.131746
-41.603848
-50.961314
-60.165227
-69.172686
-77.936433
-86.404933
-94.522774
-102.23135
-109.46981
-116.17624
-122.28906
-127.74857
-132.49871
-136.48879
-139.67546
-142.02453
-143.51301
-144.13037
-143.88135
-142.78653
-140.88192
-138.22567
-134.90185
-131.01322
-126.677
-122.02797
-117.21854
-112.41702
-107.80634
-103.5818
-99.948088
-97.116546
-95.301844
-94.718656
-95.578218
-98.084863
-102.43268
-108.80217
-117.35726
-128.24218
-141.57863
-157.46364
-175.96672
-197.13016
-220.96277
-247.42926
-276.4633
-307.96319
-341.78865
-377.75897
-415.65185
-455.20147
-496.0976
-537.98509
-580.46405
-623.091
-665.38097
-706.81097
-746.82483
-784.8394
-820.25231
-852.4511
-880.82341
-904.76818
-923.70736
-937.09752
-944.4415
-945.29784
-939.29349
-926.1266
-905.56991
-877.47843
-841.82456
-798.68675
-748.21416
-690.62553
-626.22428
-555.40004
-478.62524
-396.45061
-309.49857
-218.45381
-124.0512
-27.061182
71.726833
171.52209
271.55028
371.0704
469.38976
565.87641
659.96863
751.18112
839.10803
923.42306
1003.877
1080.2931
1152.5613
1220.6308
1284.5023
1344.2208
1399.8668
1451.5497
1499.4009
1543.5671
1584.2053
1621.4779
1655.5485
1686.5786
1714.7248
1740.1363
1762.9532
1783.3046
1801.3089
1817.0699
1830.6765
1842.2076
1851.7451
1859.3165
1865.0366
1868.6384
1870.0881
-14.226177
-23.314527
-33.172258
-42.931232
-52.583124
-62.088515
-71.402983
-80.476793
-89.254983
-97.67781
-105.68151
-113.19935
-120.16288
-126.50353
-132.15423
-137.05136
-141.13666
-144.35933
-146.67809
-148.06339
-148.49874
-147.98407
-146.53605
-144.18788
-140.99676
-137.04818
-132.44827
-127.31909
-121.8018
-116.05716
-110.26371
-104.61645
-99.32449
-94.607806
-90.694333
-87.816366
-86.206963
-86.096215
-87.707503
-91.253873
-96.934453
-104.93119
-115.40552
-128.49554
-144.31288
-162.94134
-184.43499
-208.81396
-236.05088
-266.08507
-298.81719
-334.10884
-371.77868
-411.60098
-453.30337
-496.56554
-541.01842
-586.24403
-631.77633
-677.10326
-721.67011
-764.8846
-806.1234
-844.74055
-880.07727
-911.47333
-938.27929
-959.86955
-975.65527
-985.0972
-987.71619
-983.10687
-970.94095
-950.97059
-923.03316
-887.09242
-843.23142
-791.60643
-732.44458
-666.06285
-592.87091
-513.36837
-428.14075
-337.85305
-243.2401
-145.09344
-44.245162
58.450822
162.13887
265.98196
369.18092
470.99154
570.73856
667.82612
761.7444
852.07252
938.47804
1020.7136
1098.6114
1172.0757
1241.0743
1305.6301
1365.8119
1421.7254
1473.5051
1521.3072
1565.3024
1605.6701
1642.5936
1676.2559
1706.8357
1734.5053
1759.4276
1781.7551
1801.6277
1819.1731
1834.5034
1847.7149
1858.8929
1868.1248
1875.4429
1880.9681
1884.4429
1885.8408
-14.77441
-24.124499
-34.279996
-44.345465
-54.313462
-64.144221
-73.791837
-83.203994
-92.322074
-101.08165
-109.41333
-117.2439
-124.49775
-131.09853
-136.97101
-142.04317
-146.24828
-149.5272
-151.83066
-153.12167
-153.37699
-152.59093
-150.77557
-147.9607
-144.20206
-139.58628
-134.2229
-128.23906
-121.78262
-115.02328
-108.15061
-101.37271
-94.9137
-89.010263
-83.908484
-79.859953
-77.117858
-75.932941
-76.549434
-79.201135
-84.107529
-91.470283
-101.4696
-114.2615
-129.97365
-148.70548
-170.5238
-195.46125
-223.50076
-254.58701
-288.62329
-325.47396
-364.95762
-406.84565
-450.8594
-496.6685
-543.88964
-592.08597
-640.76765
-689.39363
-737.37503
-784.08028
-828.84208
-870.9664
-909.74328
-944.45923
-974.41095
-998.91981
-1017.3463
-1029.1043
-1033.6729
-1030.611
-1019.5614
-1000.254
-972.50676
-936.27348
-891.64279
-838.77862
-777.9164
-709.38669
-633.61974
-551.1436
-462.58095
-368.64315
-270.12032
-167.86731
-62.785602
44.197909
152.15398
260.17446
367.39443
473.01171
576.30276
676.63419
773.46983
866.37339
955.00721
1039.1278
1118.5787
1193.2819
1263.2277
1328.4645
1389.0885
1445.234
1497.0641
1544.7624
1588.5262
1628.5597
1665.0689
1698.2577
1728.3235
1755.4552
1779.8307
1801.6152
1820.9598
1838.0023
1852.8633
1865.6464
1876.4437
1885.348
1892.3959
1897.7138
1901.0542
1902.3971
-15.355877
-24.981701
-35.452612
-45.844467
-56.150975
-66.332208
-76.340808
-86.121775
-95.612578
-104.74371
-113.43962
-121.62
-129.20131
-136.09862
-142.22766
-147.50705
-151.86062
-155.21993
-157.5267
-158.73557
-158.81557
-157.75457
-155.5593
-152.25543
-147.89662
-142.57027
-136.38934
-129.48626
-122.0159
-114.1575
-106.11249
-98.103144
-90.369927
-83.167746
-76.762524
-71.426958
-67.436269
-65.063797
-64.576582
-66.231105
-70.269088
-76.913714
-86.365675
-98.800516
-114.3635
-133.17087
-155.30355
-180.80864
-209.68061
-241.86912
-277.28141
-315.78524
-357.19985
-401.29437
-447.78433
-496.32949
-546.53215
-597.93596
-650.02609
-702.23067
-753.92405
-804.43203
-853.03922
-898.99871
-941.54384
-979.90196
-1013.3097
-1041.0293
-1062.3646
-1076.6774
-1083.4003
-1082.0529
-1072.2465
-1053.6874
-1026.172
-989.64294
-944.19578
-890.00259
-827.30681
-756.45223
-677.88979
-592.17689
-499.97555
-402.04729
-299.24321
-192.48884
-82.763897
28.921946
141.55577
254.14858
365.76093
475.52542
582.66465
686.50405
786.47929
882.13854
973.14029
1059.2473
1140.3181
1216.2961
1287.198
1353.1022
1414.1366
1470.4677
1522.2905
1569.8198
1613.2818
1652.9078
1688.9289
1721.5711
1751.0521
1777.5785
1801.3437
1822.5266
1841.2901
1857.7819
1872.1315
1884.4503
1894.8367
1903.3888
1910.1475
1915.2443
1918.4416
1919.7262
-15.971853
-25.886806
-36.690423
-47.428652
-58.096718
-68.654758
-79.054013
-89.236675
-99.136016
-108.67701
-117.77737
-126.34897
-134.29953
-141.53466
-147.96004
-153.48392
-158.01961
-161.48826
-163.82151
-164.96451
-164.87756
-163.54111
-160.95563
-157.1419
-152.15074
-146.06984
-139.01552
-131.12571
-122.5626
-113.51555
-104.19876
-94.849835
-85.727034
-77.10514
-69.271756
-62.522666
-57.157195
-53.473396
-51.76324
-52.307973
-55.373575
-61.206672
-70.030287
-82.041126
-97.403823
-116.25257
-138.6839
-164.76119
-194.49212
-227.83141
-264.69097
-304.94291
-348.40798
-394.85384
-443.99092
-495.46957
-548.87774
-603.73911
-659.51278
-715.59425
-771.31845
-825.96503
-878.76606
-928.9164
-975.58665
-1017.9384
-1055.1411
-1086.3909
-1110.9285
-1128.0574
-1137.1589
-1137.709
-1129.2853
-1111.5686
-1084.3324
-1047.507
-1001.1962
-945.58098
-880.91218
-807.54608
-725.95373
-636.72228
-540.5549
-438.2671
-330.77705
-219.08928
-104.2719
12.571272
130.33191
247.92885
364.33806
478.61854
589.93286
697.56132
800.9097
899.51089
993.02139
1081.2135
1163.9647
1241.2445
1313.1011
1379.6474
1441.0479
1497.5056
1549.2516
1596.5347
1639.6133
1678.7485
1714.1981
1746.2123
1775.0302
1800.8771
1823.9628
1844.4804
1862.6049
1878.4945
1892.2874
1904.1028
1914.0456
1922.2189
1928.6676
1933.528
1936.5726
1937.795
-16.621504
-26.837876
-37.990983
-49.095614
-60.148925
-71.111378
-81.932878
-92.552677
-102.89953
-112.89239
-122.4416
-131.45043
-139.81698
-147.43637
-154.20319
-160.01416
-164.77089
-168.38292
-170.7706
-171.86841
-171.62676
-170.01756
-167.03406
-162.69124
-157.03618
-150.15626