/*--------------------------------*- C++ -*----------------------------------*\
| =========                 |                                                 |
| \\      /  F ield         | foam-extend: Open Source CFD                    |
|  \\    /   O peration     | Version:     4.1                                |
|   \\  /    A nd           | Web:         http://www.foam-extend.org         |
|    \\/     M anipulation  |                                                 |
\*---------------------------------------------------------------------------*/
FoamFile
{
    version     2.0;
    format      ascii;
    class       volScalarField;
    location    "0.25";
    object      p;
}
// * * * * * * * * * * * * * * * * * * * * * * * * * * * * * * * * * * * * * //

dimensions      [0 2 -2 0 0 0 0];

internalField   nonuniform List<scalar> 
16796
(
10.530648
10.876213
20.032135
27.721268
36.771816
45.842482
55.26954
64.884608
74.669634
84.580768
94.598146
104.70657
114.89938
125.17525
135.53737
145.99221
156.54808
167.21359
177.99586
188.89836
199.91889
211.04705
222.26234
233.53183
244.8088
256.03124
267.1216
277.98659
288.51871
298.5984
308.09756
316.88443
324.83867
331.80028
337.56146
341.97951
344.95512
346.37932
346.15983
344.22511
340.52567
335.03604
327.75618
318.71389
307.97587
295.62799
281.67876
266.1815
249.2856
231.1255
211.85034
191.62284
170.61865
149.0266
127.04813
104.89699
82.798849
60.990823
39.720684
19.245933
-0.16754977
-18.247295
-34.716388
-49.296119
-61.709028
-71.682421
-78.952087
-83.266345
-84.390282
-82.109905
-76.236284
-66.609487
-53.102106
-35.622365
-14.11674
11.428218
40.984782
74.483738
111.81527
152.83421
197.36895
245.17166
295.93591
349.38254
405.2225
463.13016
522.76623
583.78138
645.82287
708.53987
771.5885
834.63637
897.36655
959.48103
1020.7035
1080.7815
1139.4877
1196.6212
1252.0072
1305.4972
1356.9678
1406.3199
1453.4772
1498.3842
1541.0045
1581.3189
1619.3234
1655.0268
1688.4496
1719.6213
1748.5798
1775.3692
1800.0401
1822.6492
1843.2499
1861.9028
1878.685
1893.6771
1906.979
1918.7968
1929.3187
1937.9666
1946.8067
1969.1691
9.2642409
11.240347
20.152821
27.669444
36.462304
45.546061
55.0151
64.675886
74.499254
84.438709
94.475513
104.59709
114.79899
125.08176
135.45006
145.9115
156.47535
167.15104
177.94639
188.86552
199.90672
211.06002
222.30519
233.60941
244.92591
256.19239
267.33074
278.24679
288.83196
298.96526
308.5133
317.32067
325.22538
332.10708
337.86936
342.36799
345.44489
346.97739
346.86567
345.03225
341.42291
336.00688
328.7768
319.74608
308.94285
296.42386
282.32276
266.75568
249.7962
231.56699
212.21701
191.90836
170.81694
149.13184
127.05487
104.80021
82.594053
60.674117
39.288903
18.696763
-0.83545294
-19.034175
-35.621274
-50.316723
-62.841668
-72.921959
-80.291906
-84.698361
-85.904979
-83.696421
-77.882526
-68.302285
-54.827414
-37.365512
-15.862736
9.6942455
39.276928
72.814395
110.19305
151.25271
195.78938
243.59403
294.43732
348.01972
404.01208
462.08244
521.88593
583.07029
645.28038
708.16337
771.37352
834.57676
897.45466
959.70793
1021.0592
1081.255
1140.0677
1197.2957
1252.7642
1306.3245
1357.8537
1407.253
1454.4464
1499.379
1542.0154
1582.3368
1620.3399
1656.0345
1689.4413
1720.5907
1749.5206
1776.2749
1800.9028
1823.4565
1843.9981
1862.5928
1879.3042
1894.2018
1907.3706
1918.9541
1929.0368
1937.4103
1945.363
1955.1018
6.0304186
11.708154
20.882559
28.978789
37.928233
46.997818
56.346299
65.846238
75.488085
85.236248
95.076188
104.99779
114.99889
125.08281
135.25756
145.53447
155.92667
166.4474
177.10804
187.9159
198.87201
209.96858
221.18698
232.49536
243.8473
255.18021
266.41507
277.45626
288.1926
298.49515
308.22616
317.25112
325.42507
332.59351
338.60401
343.30239
346.55234
348.23976
348.26755
346.55924
343.06113
337.7431
330.59959
321.64853
310.9273
298.48831
284.40606
268.7706
251.6981
233.32806
213.80657
193.29622
171.97458
150.03286
127.67547
105.11966
82.595
60.342909
38.615826
17.676226
-2.2047808
-20.749292
-37.674832
-52.69708
-65.533
-75.904429
-83.541902
-88.188776
-89.605546
-87.574085
-81.90185
-72.425881
-59.016381
-41.579881
-20.061882
5.5512447
35.231066
68.906423
106.46155
147.73831
192.53957
240.63179
291.75066
345.60319
401.87619
460.23704
520.33855
581.82507
644.33778
707.52014
771.02292
834.50882
897.65656
960.16436
1021.7528
1082.167
1141.178
1198.5837
1254.209
1307.9056
1359.5508
1409.0468
1456.3188
1501.3131
1543.9957
1584.3497
1622.3731
1658.0776
1691.4857
1722.6295
1751.5485
1778.2888
1802.9011
1825.4397
1845.9635
1864.5359
1881.224
1896.0995
1909.2477
1920.7791
1930.7316
1939.1733
1946.9548
1952.4911
4.384522
11.679136
20.859395
29.207653
38.222161
47.337764
56.702106
66.195997
75.807356
85.503365
95.272437
105.10876
115.01491
124.99919
135.07462
145.2574
155.56531
166.0158
176.62405
187.40052
198.34876
209.46279
220.72501
232.10387
243.55244
255.00694
266.38659
277.59277
288.5068
298.99532
308.92038
318.13661
326.49015
333.82996
340.01159
344.8891
348.32187
350.18583
350.37589
348.80854
345.42361
340.18485
333.08071
324.12359
313.34955
300.81897
286.61837
270.84612
253.61163
235.0466
215.29957
194.5342
172.92934
150.67795
127.98661
105.07509
82.175951
59.533939
37.405231
16.056381
-4.2371189
-23.192743
-40.523216
-55.939323
-69.153115
-79.881592
-87.850608
-92.799087
-94.483416
-92.681763
-87.198356
-77.86754
-64.557427
-47.173113
-25.659383
-0.002599635
29.768128
63.579358
101.30914
142.79815
187.85214
236.2408
287.70161
341.93588
398.61919
457.4106
517.95582
579.89263
642.85613
706.48404
770.42181
834.32722
897.87467
960.75862
1022.6966
1083.4312
1142.7319
1200.3954
1256.2463
1310.1364
1361.9438
1411.5716
1458.9466
1504.0169
1546.7503
1587.1319
1625.162
1660.8541
1694.2326
1725.3312
1754.1908
1780.8582
1805.3848
1827.8252
1848.2374
1866.6811
1883.2165
1897.9051
1910.8164
1922.0205
1931.5232
1939.4465
1946.221
1949.9844
3.6892846
12.029917
21.420584
30.095511
39.242887
48.395182
57.711019
67.102446
76.572605
86.100965
95.684025
105.32258
115.02509
124.80558
134.68286
144.67884
154.81694
165.11995
175.60796
186.29571
197.1904
208.28884
219.5754
231.01956
242.57449
254.17561
265.74038
277.16448
288.32307
299.08711
309.31524
318.85391
327.54394
335.22411
341.7354
346.92282
350.64177
352.76542
353.18637
351.81866
348.59969
343.49093
336.47857
327.5724
316.80476
304.22986
289.92513
273.98661
256.5289
237.68899
217.61904
196.48495
174.46837
151.76565
128.58726
105.15739
81.713509
58.505794
35.796245
13.857624
-7.028062
-26.571535
-44.478621
-60.453147
-74.200258
-85.430191
-93.862294
-99.229343
-101.28203
-99.793376
-94.563087
-85.421681
-72.234195
-54.903465
-33.372858
-7.628035
22.301801
56.339861
94.360166
136.20062
181.65994
230.49876
282.44549
337.19765
394.42778
453.78919
514.92073
577.45273
641.01272
705.23101
769.74596
834.20891
898.28846
961.67412
1024.0793
1085.2436
1144.9342
1202.9466
1259.1049
1313.2612
1365.2948
1415.1105
1462.6371
1507.8256
1550.6464
1591.0877
1629.153
1664.859
1698.2333
1729.3123
1758.1399
1784.7652
1809.2412
1831.624
1851.9712
1870.3418
1886.7932
1901.3816
1914.1631
1925.1767
1934.41
1941.9547
1947.8594
1950.4058
3.162647
11.961114
21.437326
30.287408
39.524108
48.72949
58.058361
67.431163
76.853201
86.307998
95.796164
105.32336
114.90342
124.55618
134.30642
144.18212
154.21264
164.42644
174.84883
185.49927
196.38894
207.51784
218.8727
230.42436
242.12638
253.91368
265.7015
277.37819
288.81588
299.88259
310.42845
320.294
329.31423
337.3225
344.1547
349.65183
353.66447
356.05877
356.71991
355.55483
352.49447
347.49472
340.53736
331.62931
320.80226
308.11159
293.63554
277.47117
259.73354
240.55971
220.10395
198.53447
176.03559
152.80701
129.06306
105.03234
80.957352
57.09383
33.709915
11.085027
-10.491704
-30.723492
-49.308355
-65.942131
-80.321908
-92.149947
-101.13782
-107.01089
-109.5129
-108.41054
-103.49793
-94.600808
-81.580356
-64.336557
-42.810975
-16.988345
13.102038
47.379624
85.715902
127.94672
173.86763
223.23468
275.76927
331.16045
389.07117
449.14458
511.00939
574.28584
638.5915
703.54711
768.78206
833.93943
898.68046
962.68838
1025.6715
1087.3652
1147.5341
1205.9719
1262.5023
1316.9777
1369.2787
1419.3122
1467.0097
1512.325
1555.2322
1595.7231
1633.8049
1669.4978
1702.8331
1733.8506
1762.597
1789.1241
1813.4871
1835.7434
1855.9512
1874.1683
1890.4503
1904.8499
1917.4161
1928.1761
1937.1234
1944.3436
1949.7512
1951.8904
3.1137185
12.247238
21.894979
30.919465
40.249
49.483243
58.779777
68.07102
77.371554
86.673846
95.986264
105.32166
114.70082
124.15047
133.70232
143.3913
153.25361
163.32434
173.63503
184.21084
195.06793
206.21044
217.6282
229.29406
241.16249
253.16799
265.22177
277.20646
288.995
300.44866
311.4103
321.71261
331.18137
339.63989
346.91328
352.83282
357.24065
359.9952
360.97472
360.07995
357.23627
352.39453
345.53205
336.65173
325.78172
312.9745
298.30604
281.87331
263.79328
244.20664
223.27171
201.16016
178.0602
154.17618
129.72769
104.94924
80.089894
55.412596
31.193313
7.7198572
-14.709743
-35.78938
-55.207441
-72.649941
-87.804099
-100.36241
-110.02695
-116.514
-119.55883
-118.92039
-114.3859
-105.77527
-92.944897
-75.791246
-54.253653
-28.315798
1.992704
36.587003
75.333689
118.06357
164.56554
214.58782
267.84322
324.01211
382.74803
443.6835
506.43585
570.61352
635.82226
701.6713
767.77913
833.77881
899.32271
964.08645
1027.7721
1090.1104
1150.8625
1209.8205
1266.8073
1321.6762
1374.3094
1424.6166
1472.5326
1518.0152
1561.0428
1601.6119
1639.7344
1675.4351
1708.7498
1739.7224
1768.4035
1794.8481
1819.1138
1841.2596
1861.3443
1879.4244
1895.5525
1909.7759
1922.1337
1932.6397
1941.2825
1948.1247
1953.0307
1954.8196
2.8936346
12.216075
21.968848
31.112859
40.523539
49.80041
59.100132
68.357646
77.590702
86.795848
95.986324
105.18057
114.40562
123.69494
133.08741
142.6253
152.3522
162.31042
172.53846
183.06784
193.92043
205.10521
216.61578
228.42757
240.49655
252.75715
265.11578
277.45028
289.62979
301.50837
312.92156
323.69376
333.64175
342.57941
350.32222
356.69204
361.52184
364.66076
365.97804
365.36606
362.74273
358.05263
351.2681
342.38842
331.43957
318.47295
303.56412
286.81046
268.33004
248.26598
226.78016
204.0478
180.26108
155.62924
130.37736
104.74624
78.991951
53.385226
28.210578
3.7650873
-19.643295
-41.697975
-62.076406
-80.453372
-96.504732
-109.91167
-120.36522
-127.57104
-131.25445
-131.16525
-127.08255
-118.81922
-106.22594
-89.194814
-67.662276
-41.610394
-11.068653
23.874116
63.080268
106.37634
153.5448
204.32559
258.42137
315.50107
375.20562
437.15398
500.94941
566.18599
632.45524
699.35256
766.48343
833.46896
899.95091
965.59586
1030.0985
1093.1841
1154.6098
1214.1656
1271.6739
1326.9888
1379.9948
1430.6047
1478.7574
1524.4155
1567.5625
1608.2005
1646.3468
1682.0321
1715.2974
1746.1919
1774.7709
1801.0937
1825.2219
1847.2175
1867.1414
1885.0518
1901.0019
1915.0381
1927.1973
1937.4907
1945.9098
1952.5051
1957.1294
1958.7764
2.9205565
12.446686
22.347714
31.605494
41.084817
50.377293
59.642726
68.819461
77.931307
86.981209
95.989375
104.98145
113.99202
123.06238
132.23952
141.57398
151.11771
160.92126
171.03105
181.48605
192.31488
203.53228
215.13649
227.10621
239.3993
251.95022
264.6604
277.40463
290.04759
302.43503
314.39345
325.7369
336.27053
345.79588
354.11566
361.03927
366.38777
369.99911
371.7322
371.47013
369.12268
364.62746
357.95104
349.08815
338.06146
324.92032
309.73945
292.61677
273.67202
253.05223
230.92424
207.4679
182.8803
157.3766
131.18855
104.56441
77.768539
51.080839
24.795807
-0.77868408
-25.323152
-48.508834
-70.000505
-89.459929
-106.54979
-120.93814
-132.30319
-140.33828
-144.75713
-145.29894
-141.73334
-133.86508
-121.53821
-104.63982
-83.103064
-56.908352
-26.085315
9.2725567
49.021606
92.982638
140.93023
192.59468
247.66739
305.80462
366.63324
429.75695
494.76286
561.22845
628.72867
696.84281
765.16111
833.29074
900.86112
967.52833
1032.9786
1096.9306
1159.1375
1219.3866
1277.5001
1333.3333
1386.7733
1437.7368
1486.1676
1532.0341
1575.3258
1616.0511
1654.2341
1689.9117
1723.131
1753.9472
1782.4207
1808.6154
1832.5967
1854.4297
1874.1774
1891.8989
1907.6472
1921.4678
1933.3956
1943.4415
1951.6014
1957.9248
1962.2817
1963.8006
2.7463951
12.450674
22.467141
31.825686
41.37666
50.698315
59.951654
69.074319
78.093321
87.015561
95.866677
104.67869
113.49343
122.36023
131.3346
140.47604
149.84563
159.50305
169.50359
179.89467
190.71256
201.97875
213.69692
225.84976
238.3976
251.27535
264.38012
277.58072
290.73599
303.68395
316.24151
328.21158
339.38694
349.55594
358.5076
366.03766
371.9539
376.0815
378.26747
378.3842
376.33211
372.04099
365.47124
356.613
345.48591
332.13767
316.64262
299.0994
279.62933
258.38318
235.53288
211.26313
185.77626
159.29375
132.05448
104.31471
76.347828
48.443696
20.90779
-5.9400795
-31.767593
-56.23236
-78.984888
-99.672214
-117.94206
-133.44755
-145.85221
-154.83527
-160.09717
-161.36486
-158.39706
-150.98907
-138.97715
-122.24242
-100.714
-74.370012
-43.239799
-7.4214669
32.935452
77.645554
126.47472
179.14224
235.32644
294.6686
356.77902
421.24344
487.63012
555.49723
624.40041
693.90028
763.5694
832.9988
901.80366
969.62797
1036.1482
1101.076
1164.1593
1225.1833
1283.9698
1340.3756
1394.2912
1445.6382
1494.3661
1540.45
1583.8868
1624.6925
1662.8989
1698.5505
1731.7019
1762.4153
1790.7577
1816.799
1840.61
1862.2602
1881.8163
1899.3404
1914.8874
1928.5043
1940.2261
1950.0655
1958.0218
1964.1446
1968.3211
1969.7681
2.7083636
12.636102
22.794342
32.2511
41.860801
51.188378
60.398898
69.430143
78.313838
87.062092
95.707211
104.28868
112.85663
121.46932
130.19179
139.09346
148.24559
157.7181
167.57637
177.87739
188.6664
199.97272
211.80661
224.15562
236.98325
250.22531
263.77471
277.49487
291.23817
304.83311
318.0852
330.78404
342.70764
353.62852
363.3194
371.55971
378.14143
382.87482
385.59319
386.15669
384.45518
380.40966
373.97355
365.13179
353.90057
340.32576
324.48138
306.46716
286.40648
264.45477
240.79035
215.60373
189.10326
161.5176
133.09371
104.09689
74.810626
45.535974
16.590715
-11.691948
-38.96528
-64.871561
-89.045219
-111.11667
-130.71672
-147.48158
-161.05814
-171.10962
-177.32138
-179.40651
-177.1113
-170.2204
-158.56126
-142.00828
-120.48606
-93.970219
-62.489908
-26.14833
14.897968
60.456641
110.28394
164.08695
221.5295
282.23617
345.79856
411.78209
479.73353
549.18896
619.6819
690.75149
761.95005
832.85011
903.05056
972.18166
1039.9089
1105.9358
1170.0051
1231.8994
1291.4401
1348.4866
1402.9332
1454.707
1503.7646
1550.0886
1593.6844
1634.5766
1672.8057
1708.4247
1741.4967
1772.0912
1800.2827
1826.1475
1849.7619
1871.2006
1890.5343
1907.8285
1923.1411
1936.5215
1948.0074
1957.6158
1965.3525
1971.2724
1975.2826
1976.6636
2.5015637
12.669686
22.957169
32.517506
42.195176
51.540448
60.721024
69.672961
78.43142
87.012668
95.455116
103.80556
112.12263
120.47406
128.93514
137.58615
146.50961
155.78681
165.49443
175.70034
186.45991
197.81156
209.77313
222.33801
235.47355
249.11697
263.15705
277.45003
291.841
306.1489
320.16695
333.67029
346.42066
358.17311
368.68212
377.70887
385.02752
390.43148
393.73855
394.79512
393.4793
389.7024
383.41032
374.58255
363.23182
349.40229
333.16791
314.62977
293.91391
271.18017
246.61354
220.41121
192.78788
163.97986
134.24275
103.85156
73.100653
42.303261
11.790591
-18.089444
-46.974189
-74.488913
-100.25012
-123.86963
-144.95927
-163.1362
-178.02855
-189.28148
-196.56324
-199.5712
-198.0376
-191.73488
-180.48045
-164.14094
-142.63557
-115.93686
-84.07336
-47.153546
-5.3413467
41.163113
92.105395
147.1789
206.03111
268.26761
333.45873
401.14672
470.8538
542.09079
614.36595
687.19386
760.10373
832.64701
904.40414
974.98986
1044.0574
1111.3013
1176.4586
1239.3092
1299.6752
1357.4183
1412.4381
1464.6684
1514.0739
1560.6464
1604.4009
1645.3722
1683.6108
1719.18
1752.1521
1782.6059
1810.6243
1836.2911
1859.6896
1880.9005
1899.9996
1917.0567
1932.1335
1945.2824
1956.5443
1965.9402
1973.4816
1979.2282
1983.1038
1984.4353
2.3652937
12.828318
23.26521
32.931673
42.668578
52.013773
61.139496
69.980931
78.577702
86.951081
95.146467
103.21883
111.23618
119.27665
127.4268
135.77887
144.42783
153.46771
162.98785
173.06849
183.77665
195.16129
207.2493
220.04111
233.50898
247.59222
262.17613
277.10956
292.22903
307.34244
322.22876
336.64629
350.33796
363.03856
374.48151
384.4069
392.56836
398.74001
402.72202
404.34528
403.47469
400.01081
393.89133
385.08984
373.61544
359.51065
342.84959
323.73506
302.29664
278.69913
253.13519
225.8101
196.94539
166.78578
135.5963
103.66253
71.290759
38.807472
6.5586063
-25.091755
-55.763391
-85.062741
-112.58641
-137.9255
-160.67064
-180.41769
-196.77379
-209.36381
-217.83688
-221.87274
-221.18788
-215.54112
-204.73865
-188.63839
-167.15359
-140.25328
-107.96531
-70.403782
-27.740753
19.815416
71.998763
128.48775
188.9118
252.85541
319.86509
389.45694
461.12543
534.35269
608.61827
683.4088
758.22721
832.6011
906.08999
978.29124
1048.8444
1117.4341
1183.7913
1247.6936
1308.9634
1367.4664
1423.1078
1475.8296
1525.6057
1572.4384
1616.3539
1657.3982
1695.6333
1731.1335
1763.9818
1794.2671
1822.0814
1847.5172
1870.6654
1891.6133
1910.443
1927.2296
1942.0395
1954.9297
1965.9457
1975.1141
1982.4527
1988.0272
1991.7752
1993.0598
2.0954602
12.893535
23.48077
33.267755
43.075559
52.429813
61.506126
70.237987
78.669026
86.825272
94.759173
102.53421
110.22839
117.93106
125.74108
133.76386
142.10815
150.88215
160.18944
170.12418
180.76664
192.17788
204.39525
217.42749
231.25275
245.81316
260.99056
276.62535
292.54468
308.54487
324.38935
339.8179
354.55249
368.30519
380.78574
391.71038
400.80956
407.83559
412.56887
414.82289
414.44797
411.33293
405.4066
396.63646
385.02794
370.62221
353.49391
333.74808
311.51798
286.97409
260.31763
231.76235
201.53713
169.89558
137.11276
103.48547
69.332713
34.995257
0.83495845
-32.766499
-65.409668
-96.680265
-126.15289
-153.39565
-177.97557
-199.46473
-217.44678
-231.52387
-241.32365
-246.50612
-246.77006
-241.85903
-231.56653
-215.74066
-194.28777
-167.17276
-134.42229
-96.156381
-52.555823
-3.838068
49.718356
107.77546
169.94272
235.78109
304.81035
376.51721
450.36472
525.80253
602.27758
679.24483
756.17745
832.57604
907.97667
981.95724
1054.1422
1124.2055
1191.8717
1256.9161
1319.1627
1378.4815
1434.7852
1488.0251
1538.1862
1585.2829
1629.3542
1670.4591
1708.6727
1744.0818
1776.7814
1806.8719
1834.4556
1859.6345
1882.508
1903.1712
1921.7126
1938.2134
1952.7451
1965.3696
1976.1371
1985.0797
1992.2211
1997.6324
2001.2627
2002.5051
1.8515248
13.048524
23.805335
33.721504
43.59677
52.947456
61.953657
70.547942
78.778766
86.677631
94.304815
101.73313
109.05147
116.36143
123.77529
131.41289
139.39824
147.85527
156.90353
166.65294
177.19892
188.6165
200.95536
214.23425
228.43862
243.51458
259.34142
275.75045
292.55795
309.54716
326.46386
343.02665
358.9336
373.8708
387.5209
399.57294
409.73101
417.7227
423.30609
426.27527
426.46436
423.74937
418.04961
409.32611
397.58074
382.85353
365.22011
344.78831
321.69555
296.11888
268.26966
238.37107
206.65975
173.39889
138.87421
103.39449
67.292331
30.923828
-5.3319713
-41.074277
-75.882659
-109.32011
-140.93697
-170.27596
-196.87789
-220.28842
-240.06503
-255.78457
-267.05081
-273.50175
-274.81652
-270.72172
-260.99682
-245.47905
-224.06708
-196.72113
-163.46642
-124.42921
-79.79952
-29.804169
25.264999
85.052243
149.14521
217.07889
288.34327
362.39208
438.65299
516.53892
595.45987
674.83493
754.10358
832.73599
910.24186
986.17742
1060.1505
1131.8234
1200.9142
1267.1962
1330.4955
1390.6879
1447.6949
1501.4787
1552.037
1599.3982
1643.6157
1684.7634
1722.9306
1758.2184
1790.7351
1820.5936
1847.9077
1872.79
1895.3494
1915.6895
1933.9065
1950.0883
1964.3125
1976.6468
1987.1467
1995.8501
2002.787
2008.0328
2011.5465
2012.7472
1.4991586
13.155236
24.091909
34.157672
44.113176
53.466852
62.402201
70.850622
78.865418
86.483784
93.774298
100.81978
107.72091
114.59261
121.56186
128.7644
136.34109
144.43337
153.17867
162.70468
173.12399
184.52769
196.97968
210.5105
225.11437
240.7425
257.27217
274.52474
292.3045
310.38085
328.48021
346.29767
363.50444
379.75737
394.70845
408.01591
419.35398
428.42237
434.9541
438.72164
439.54128
437.27509
431.83231
423.16742
411.27891
396.20612
378.02634
356.85086
332.82192
306.12384
276.97916
245.62134
212.29513
177.27366
140.8538
103.3569
65.129872
26.545104
-11.999955
-50.083906
-87.26352
-123.07694
-157.04787
-188.69094
-217.51795
-243.04516
-264.80093
-282.3339
-295.22117
-303.07624
-305.55637
-302.36928
-293.27884
-278.11012
-256.75317
-229.16274
-195.36209
-155.48394
-109.72826
-58.331865
-1.600832
60.089917
126.30422
196.54839
270.27934
346.91384
425.83974
506.42844
588.04819
670.07746
751.91766
833.00471
912.81882
990.89217
1066.8143
1140.2354
1210.8667
1278.48
1342.9049
1404.0244
1461.7704
1516.1181
1567.0802
1614.7009
1659.0503
1700.2186
1738.3119
1773.4466
1805.7462
1835.3371
1862.3459
1886.8967
1909.1089
1929.095
1946.9597
1962.7978
1976.6936
1988.7206
1998.9402
2007.3959
2014.1233
2019.2023
2022.5999
2023.7593
1.1393608
13.332482
24.469925
34.701167
44.73872
54.086952
62.933087
71.208144
78.970989
86.265241
93.16858
99.774717
106.19713
112.56518
119.02189
125.7204
132.82011
140.48194
148.86327
158.11182
168.3598
179.71675
192.26326
206.04392
221.0637
237.28062
254.57131
272.74642
291.59649
310.8756
330.28841
349.5034
368.16132
385.88571
402.29366
417.00839
429.67023
439.94742
447.54484
452.2109
453.74232
451.98609
446.84084
438.25443
426.22224
410.78354
392.01795
370.041
345.00043
317.08875
286.54149
253.60354
218.52795
181.59826
143.123
103.43663
62.901091
21.906021
-19.131509
-59.767939
-99.535352
-137.9448
-174.49078
-208.65697
-239.92309
-267.77282
-291.70217
-311.22841
-325.89909
-335.30052
-339.06579
-336.88182
-328.49534
-313.71809
-292.43061
-264.58153
-230.19167
-189.40056
-142.4184
-89.492016
-30.942252
32.835552
101.37947
174.1644
250.61055
330.09337
411.9559
495.52266
580.11458
665.06415
749.72979
833.50882
915.84846
996.25424
1074.2958
1149.6102
1221.902
1290.9425
1356.5657
1418.6636
1477.1808
1532.1076
1583.4739
1631.3419
1675.8006
1716.9589
1754.9411
1789.881
1821.9185
1851.1952
1877.8516
1902.0246
1923.8446
1943.4344
1960.9074
1976.3665
1989.9032
2001.597
2011.5155
2019.7078
2026.2152
2031.121
2034.3993
2035.5164
0.68284399
13.495085
24.851657
35.274889
45.408346
54.755659
63.506493
71.591731
79.076106
86.010211
92.48157
98.595703
104.47997
110.2795
116.15481
122.27813
128.82936
135.99096
143.94263
152.85466
162.88145
174.15372
186.77138
200.79553
216.2441
233.08369
251.19168
270.36724
290.38563
310.98465
331.84506
352.60557
372.87261
392.23203
410.26129
426.54379
440.68146
452.30697
461.09363
466.76313
469.0907
467.90719
463.10018
454.61101
442.4326
426.60491
407.21095
384.37149
358.24074
329.02043
296.96028
262.31757
225.35398
186.36354
145.66677
103.61156
60.575465
16.966175
-26.77844
-70.191115
-112.77728
-154.01852
-193.37731
-230.30328
-264.24065
-294.63692
-320.95214
-342.66871
-359.30126
-370.40593
-375.58904
-374.51456
-366.91036
-352.57349
-331.374
-303.25354
-268.22982
-226.44942
-178.13329
-123.53855
-63.001391
3.0612286
74.159646
149.73442
229.16512
311.78107
396.87487
483.71805
571.57798
659.73506
747.49911
834.22404
919.32021
1002.2637
1082.6026
1159.96
1234.0345
1304.5975
1371.4893
1434.6133
1493.9289
1549.4442
1601.209
1649.3064
1693.8464
1734.9592
1772.7891
1807.4893
1839.2177
1868.1325
1894.3895
1918.1387
1939.5231
1958.6759
1975.7203
1990.7672
2003.9156
2015.2518
2024.8491
2032.7626
2039.0387
2043.7638
2046.9186
2047.992
0.18875268
13.719525
25.319786
35.959459
46.195564
55.536685
64.174359
72.040326
79.20588
85.729411
91.709177
97.263505
102.53476
107.68512
112.8941
118.35478
124.26953
130.84469
138.28482
146.78558
156.52661
167.66298
180.31708
194.56963
210.45426
227.94865
246.93317
267.19478
288.49137
310.54302
333.00391
355.47914
377.53629
398.71826
418.55738
436.59176
452.37969
465.51367
475.63161
482.42555
485.64727
485.11036
480.69104
472.32449
460.00182
443.7648
423.70089
399.93726
372.63551
342.00763
308.31972
271.84273
232.8468
191.63672
148.54517
103.93376
58.196098
11.758712
-34.91862
-81.343364
-126.99226
-171.31489
-213.73874
-253.67595
-290.53152
-323.71284
-352.64002
-376.75671
-395.541
-408.51569
-415.25758
-415.40553
-408.66685
-394.82272
-373.73177
-345.32795
-309.6252
-266.77746
-217.01651
-160.60923
-97.907268
-29.350129
44.542922
123.17507
205.88102
291.93851
380.58337
471.02716
562.47642
654.15249
745.31016
835.25445
923.35454
1009.054
1091.8776
1171.434
1247.4159
1319.5967
1387.825
1452.0178
1512.1525
1568.2582
1620.4071
1668.7063
1713.2897
1754.3109
1791.9368
1826.3421
1857.7041
1886.1994
1911.9999
1935.2706
1956.1671
1974.8344
1991.4056
2006.0005
2018.7258
2029.6746
2038.9262
2046.5416
2052.572
2057.1065
2060.1315
2061.1589
-0.40381711
13.956517
25.824304
36.714457
47.068545
56.406599
64.920073
72.542433
79.352014
85.415834
90.84382
95.768186
100.34755
104.76255
109.21338
113.91586
119.09704
124.98963
131.8259
139.82998
149.21013
160.14923
172.79579
187.25358
203.5751
221.75193
241.67015
263.10386
285.79161
309.43472
333.65808
358.02916
382.07151
405.27927
427.13327
447.11997
464.74803
479.5645
491.16756
499.21635
503.43712
503.62515
499.64523
491.42695
478.96083
462.29181
441.51336
416.76052
388.2036
356.06605
320.63224
282.18777
241.01103
197.41747
151.75184
104.38943
55.740196
6.2500609
-43.598249
-93.285388
-142.2573
-189.92887
-235.68931
-278.90952
-318.95109
-355.1769
-386.9626
-413.70867
-434.85262
-449.88024
-458.33583
-459.83071
-454.04985
-440.75728
-419.79924
-391.10118
-354.67245
-310.67458
-259.35038
-200.97602
-135.91854
-64.640651
12.307034
94.287214
180.58513
270.42091
362.96636
457.36503
552.75439
648.2886
743.16012
836.61889
927.98807
1016.6755
1102.1807
1184.0977
1262.1143
1336.0075
1405.6368
1470.9362
1531.9043
1588.5945
1641.1053
1689.5708
1734.152
1775.0285
1812.3925
1846.4417
1877.3753
1905.3893
1930.6731
1953.4075
1973.7619
1991.8934
2007.9454
2022.0472
2034.3133
2044.8437
2053.7239
2061.0205
2066.7894
2071.1218
2074.0097
2074.9887
-1.0671544
14.255092
26.417725
37.59336
48.076618
57.408596
65.778751
73.123831
79.529909
85.073646
89.877633
94.08907
97.884046
101.46309
105.04869
108.88136
113.21513
118.3118
124.43439
131.83898
140.76625
151.43096
164.01194
178.64019
195.39095
214.27335
235.18291
257.88045
282.0827
307.4709
333.63757
360.10777
386.35513
411.81807
435.91863
458.08422
477.767
494.46254
507.72443
517.17538
522.51391
523.5161
520.03539
511.99677
499.39159
482.26967
460.7323
434.924
405.02507
371.27188
333.96943
293.41929
249.90761
203.76031
155.33395
105.01732
53.23676
0.458025
-52.812286
-106.0265
-158.59759
-209.90289
-259.2898
-306.08384
-349.59857
-389.1474
-424.05647
-453.67824
-477.40508
-494.68186
-505.01716
-507.99232
-503.26832
-490.59091
-469.7933
-440.79167
-403.59006
-358.35786
-305.34855
-244.84618
-177.2324
-102.99334
-22.712404
62.929482
153.16308
247.14412
343.97207
442.71317
542.42612
642.18856
741.12213
838.41462
933.33779
1025.2601
1113.6542
1198.0993
1278.2795
1353.9778
1425.0679
1491.5043
1553.3109
1610.5695
1663.4089
1711.9937
1756.5152
1797.1825
1834.2152
1867.8367
1898.2696
1925.7311
1950.4294
1972.562
1992.3129
2009.8519
2025.3334
2038.8961
2050.6627
2060.7402
2069.2202
2076.1746
2081.664
2085.7813
2088.5235
2089.4512
-1.8503538
14.588344
27.072536
38.57834
49.20795
58.536107
66.746816
73.781985
79.736023
84.696357
88.79931
92.208258
95.118058
97.750611
100.35245
103.19085
106.54931
110.72155
116.00473
122.69072
131.05682
141.35427
153.79698
168.54797
185.70979
205.31337
227.26837
251.32223
277.1674
304.46397
332.76898
361.5598
390.2533
418.22431
444.82743
469.42248
491.3971
510.18839
525.29984
536.31384
542.89891
544.81112
541.89312
534.06667
521.32597
503.72808
481.38435
454.45088
423.11964
387.64164
348.34496
305.54803
259.54389
210.66832
159.28902
105.80772
50.666889
-5.6476774
-62.604749
-119.62687
-176.09179
-231.33623
-284.66193
-335.34441
-382.64398
-425.81899
-464.14032
-496.90678
-523.46048
-543.20092
-555.59737
-560.19867
-556.64007
-544.64808
-524.04227
-494.72898
-456.70607
-410.15102
-355.32758
-292.52594
-222.14108
-144.68206
-60.766142
28.879034
123.42437
221.95354
323.4841
426.99416
531.45237
635.84892
739.22488
840.69779
939.482
1034.9028
1126.4042
1213.5509
1296.025
1373.6188
1446.224
1513.8201
1576.4611
1634.2617
1687.3853
1736.0314
1780.4255
1820.809
1857.4319
1890.5457
1920.3983
1947.2296
1971.2679
1992.7283
2011.8102
2028.6964
2043.5528
2056.5277
2067.752
2077.3399
2085.3888
2091.9761
2097.1665
2101.0542
2103.6413
2104.5143
-2.7538632
14.988408
27.821202
39.706454
50.497353
59.820223
67.849289
74.534415
79.979038
84.282649
87.596388
90.100964
92.011242
93.571921
95.055283
96.757464
98.993917
102.09339
106.39082
112.21805
119.89375
129.71089
141.92395
156.73365
174.27521
194.60673
217.65811
243.16389
270.78937
300.17231
330.83097
362.1889
393.59834
424.36124
453.75477
481.0611
505.59405
526.7243
543.89898
556.65587
564.6312
567.56052
565.27657
557.69984
544.82998
526.73401
503.53605
475.40609
442.54952
405.23393
363.81333
318.62404
269.9649
218.18067
163.6493
106.78453
48.044393
-12.065363
-72.988304
-134.11582
-194.78818
-254.29824
-311.89786
-366.80745
-418.22824
-465.35715
-507.40328
-543.60544
-573.24966
-595.68515
-610.33811
-616.72223
-614.44561
-603.21492
-582.83598
-553.20497
-514.31283
-466.34545
-409.57575
-344.2971
-270.91538
-189.96123
-102.08617
-8.0674895
91.200044
194.71932
301.4149
410.16402
519.83196
629.30867
737.54323
843.57363
946.55008
1045.7506
1140.5891
1230.6162
1315.5149
1395.0903
1469.2572
1538.0254
1601.4842
1659.787
1713.1366
1761.7722
1805.9572
1845.9692
1882.0916
1914.6063
1943.7886
1969.9026
1993.1981
2013.9085
2032.2492
2048.4169
2062.5887
2074.923
2085.5589
2094.6174
2102.202
2108.3949
2113.2651
2116.9076
2119.3292
2120.144
-3.8335752
15.44096
28.647973
40.973281
51.94454
61.263752
69.089152
75.382195
80.256005
83.823612
86.252105
87.740719
88.525563
88.875552
89.090425
89.49728
90.446182
92.304142
95.447774
100.25351
107.08669
116.28784
128.15836
142.94311
160.81638
181.87019
206.06224
233.11487
262.66342
294.32287
327.56928
361.76537
396.18963
430.06027
462.56521
492.89725
520.28544
544.02477
563.49891
578.19633
587.71864
591.78065
590.20673
582.91879
569.92527