/*--------------------------------*- C++ -*----------------------------------*\
| =========                 |                                                 |
| \\      /  F ield         | foam-extend: Open Source CFD                    |
|  \\    /   O peration     | Version:     4.1                                |
|   \\  /    A nd           | Web:         http://www.foam-extend.org         |
|    \\/     M anipulation  |                                                 |
\*---------------------------------------------------------------------------*/
FoamFile
{
    version     2.0;
    format      ascii;
    class       surfaceScalarField;
    location    "0.25";
    object      phi;
}
// * * * * * * * * * * * * * * * * * * * * * * * * * * * * * * * * * * * * * //

dimensions      [0 3 -1 0 0 0 0];

internalField   nonuniform List<scalar> 
32976
(
-0.22232272
0.00042888087
-0.22280849
0.00048577185
-0.22331923
0.00051074055
-0.22384862
0.000529391
-0.22439296
0.000544343
-0.22494933
0.00055636555
-0.22551488
0.00056554724
-0.22608671
0.00057183191
-0.22666182
0.00057511234
-0.22723713
0.00057531159
-0.2278095
0.00057236267
-0.22837575
0.00056625468
-0.22893275
0.00055699923
-0.22947742
0.00054467046
-0.23000679
0.00052936884
-0.23051805
0.00051125791
-0.23100857
0.00049052767
-0.231476
0.00046742788
-0.23191823
0.00044223205
-0.2323335
0.00041526686
-0.23272038
0.00038687765
-0.23307783
0.00035745341
-0.23340523
0.00032739452
-0.23370236
0.00029713315
-0.23396946
0.00026710361
-0.23420722
0.00023775823
-0.23441676
0.00020954139
-0.23459966
0.00018290126
-0.23475793
0.00015826674
-0.23489399
0.00013605395
-0.23501063
0.00011664871
-0.23511104
0.00010040685
-0.23519869
8.7645897e-05
-0.23527732
7.8633869e-05
-0.23535092
7.3598524e-05
-0.23542363
7.2711078e-05
-0.23549971
7.607597e-05
-0.23558344
8.3736979e-05
-0.23567912
9.5678557e-05
-0.23579094
0.0001118148
-0.23592293
0.00013199527
-0.23607893
0.00015599931
-0.23626248
0.00018355145
-0.2364768
0.00021431415
-0.23672468
0.00024788404
-0.23700849
0.00028380846
-0.23733008
0.00032158784
-0.23769076
0.00036068278
-0.23809128
0.00040051951
-0.23853178
0.00044049913
-0.23901178
0.0004800055
-0.2395302
0.00051841434
-0.2400853
0.00055510228
-0.24067476
0.00058945752
-0.24129565
0.00062088712
-0.24194447
0.00064882848
-0.24261723
0.00067275753
-0.24330943
0.00069219754
-0.24401616
0.00070672696
-0.24473214
0.00071598828
-0.24545184
0.00071969161
-0.24616946
0.00071762295
-0.24687911
0.00070964712
-0.24757482
0.00069571094
-0.24825066
0.00067584486
-0.24890082
0.00065016282
-0.24951969
0.00061886232
-0.25010191
0.00058221879
-0.25064249
0.00054058413
-0.25113687
0.00049437982
-0.25158096
0.00044409014
-0.25197121
0.0003902541
-0.25230467
0.00033345805
-0.25257899
0.0002743191
-0.25279246
0.00021347311
-0.25294405
0.00015158298
-0.25303337
8.9323204e-05
-0.25306074
2.736818e-05
-0.25302704
-3.3702909e-05
-0.2529332
-9.3834032e-05
-0.25278018
-0.00015301781
-0.25256984
-0.00021034847
-0.25230518
-0.00026465724
-0.25198997
-0.00031521286
-0.25162844
-0.000361526
-0.25122521
-0.00040322627
-0.25078518
-0.00044003157
-0.25031344
-0.00047173911
-0.24981522
-0.00049822132
-0.2492958
-0.00051942286
-0.24876044
-0.00053535793
-0.24821434
-0.00054610388
-0.24766254
-0.00055179784
-0.24710991
-0.00055262937
-0.24656108
-0.00054883382
-0.24602039
-0.00054068498
-0.2454919
-0.0005284874
-0.24497933
-0.00051256993
-0.24448606
-0.00049327639
-0.2440151
-0.00047096093
-0.24356911
-0.00044598068
-0.24315042
-0.00041869034
-0.24276099
-0.00038943727
-0.24240243
-0.00035855805
-0.24207606
-0.00032637365
-0.24178287
-0.00029318858
-0.24152358
-0.00025928813
-0.24129864
-0.00022493752
-0.24110826
-0.00019038133
-0.24095242
-0.00015584403
-0.24083089
-0.00012153053
-0.24074326
-8.7627315e-05
-0.24068895
-5.4305301e-05
-0.24066723
-2.1722846e-05
-0.24067718
9.9520091e-06
-0.24071766
4.0476844e-05
-0.24078734
6.9683741e-05
-0.24088486
9.7520268e-05
-0.24100857
0.00012370897
-0.24115591
0.00014733648
-0.24132298
0.0001670685
-0.2415038
0.00018082567
-0.24170833
0.00020453109
0.00022711633
-0.25402518
0.00066748534
-0.25425651
0.00071710491
-0.25450347
0.00075770107
-0.25476568
0.0007915956
-0.25504135
0.0008200171
-0.25532833
0.00084334014
-0.25562427
0.00086149428
-0.25592673
0.0008742885
-0.2562331
0.00088147889
-0.25654067
0.0008828804
-0.25684664
0.00087833574
-0.25714817
0.00086778781
-0.2574424
0.00085122984
-0.2577265
0.00082876833
-0.2579977
0.00080056861
-0.25825336
0.00076691181
-0.25849097
0.00072813943
-0.25870824
0.00068470384
-0.25890312
0.00063711374
-0.25907383
0.00058597711
-0.25921891
0.00053194919
-0.25933722
0.00047576691
-0.25942803
0.00041820086
-0.25949097
0.00036008058
-0.25952612
0.00030225135
-0.25953395
0.0002455905
-0.25951538
0.00019097123
-0.25947175
0.00013927084
-0.25940483
9.1339406e-05
-0.25931677
4.799704e-05
-0.25921014
1.0016405e-05
-0.25908784
-2.1892052e-05
-0.25895311
-4.7085426e-05
-0.25880945
-6.5019239e-05
-0.25866059
-7.5264642e-05
-0.2585104
-7.7479174e-05
-0.25836292
-7.1407332e-05
-0.25822226
-5.6923901e-05
-0.25809254
-3.4039394e-05
-0.25797783
-2.8904161e-06
-0.25788209
3.6251006e-05
-0.25780906
8.2974496e-05
-0.25776222
0.00013671175
-0.25774469
0.00019677703
-0.2577592
0.000262397
-0.25780808
0.0003326913
-0.25789318
0.00040668287
-0.2580158
0.00048330997
-0.25817673
0.00056143986
-0.25837611
0.00063988638
-0.25861353
0.00071742669
-0.25888794
0.00079281935
-0.25919766
0.00086482265
-0.25954042
0.00093221533
-0.25991334
0.00099381215
-0.260313
0.0010484862
-0.26073543
0.0010951856
-0.26117618
0.0011329512
-0.26163039
0.0011609328
-0.26209281
0.0011784064
-0.2625579
0.0011847824
-0.2630199
0.0011796218
-0.26347289
0.0011626426
-0.26391091
0.0011337265
-0.26432798
0.0010929224
-0.26471827
0.0010404465
-0.26507609
0.00097668253
-0.26539604
0.00090217151
-0.26567306
0.00081760835
-0.26590251
0.00072382871
-0.26608022
0.00062179557
-0.26620255
0.00051258373
-0.26626646
0.00039736582
-0.26626951
0.00027737489
-0.26620994
0.00015389626
-0.26608663
2.8279198e-05
-0.26589919
-9.812219e-05
-0.26564782
-0.00022399331
-0.26533345
-0.00034807627
-0.26495825
-0.00046903791
-0.26452571
-0.00058555656
-0.26403948
-0.00069657292
-0.26350299
-0.00080114938
-0.26291984
-0.00089836165
-0.26229397
-0.00098739882
-0.26162961
-0.0010675894
-0.26093123
-0.0011384043
-0.26020352
-0.0011994567
-0.25945124
-0.0012505006
-0.25867923
-0.0012914266
-0.25789233
-0.0013222584
-0.2570953
-0.0013431395
-0.25629277
-0.001354328
-0.25548921
-0.0013561826
-0.2546889
-0.0013491494
-0.25389584
-0.0013337484
-0.25311376
-0.0013105584
-0.25234613
-0.0012802052
-0.25159606
-0.0012433424
-0.25086638
-0.0012006443
-0.25015957
-0.0011527903
-0.2494778
-0.0011004555
-0.24882294
-0.0010443007
-0.24819653
-0.00098496682
-0.24759984
-0.00092306403
-0.24703386
-0.00085917172
-0.24649931
-0.00079383262
-0.2459967
-0.00072755118
-0.24552629
-0.00066079241
-0.24508815
-0.00059398364
-0.24468217
-0.0005275133
-0.24430806
-0.00046173549
-0.24396539
-0.00039697547
-0.24365357
-0.00033353717
-0.24337191
-0.00027171406
-0.24311966
-0.00021177234
-0.24289599
-0.00015398421
-0.24269978
-9.8687351e-05
-0.24252956
-4.6511677e-05
-0.24238345
1.2217264e-06
-0.24225978
4.3395488e-05
-0.24215423
7.5278393e-05
-0.24206067
0.00011096845
0.00010190039
-0.25804771
0.00088446129
-0.25826407
0.00093346698
-0.25848482
0.00097844688
-0.25871037
0.0010171435
-0.25893956
0.0010492138
-0.25917067
0.00107445
-0.25940172
0.0010925434
-0.25963062
0.0011031902
-0.25985522
0.0011060755
-0.26007332
0.0011009814
-0.26028272
0.0010877387
-0.26048125
0.0010663143
-0.26066677
0.0010367487
-0.26083724
0.00099923429
-0.26099072
0.00095404833
-0.26112543
0.00090162259
-0.26123976
0.00084247638
-0.26133234
0.00077727606
-0.26140199
0.00070677022
-0.26144785
0.00063183777
-0.26146933
0.00055342718
-0.26146616
0.000472592
-0.26143839
0.00039043596
-0.26138645
0.00030813533
-0.26131109
0.00022689068
-0.26121343
0.00014793603
-0.26109496
7.2501604e-05
-0.2609575
1.8110021e-06
-0.26080321
-6.2947194e-05
-0.26063458
-0.00012063703
-0.26045437
-0.00017019008
-0.26026563
-0.0002106406
-0.26007158
-0.00024112846
-0.25987569
-0.00026091253
-0.25968156
-0.00026939508
-0.25949291
-0.00026613104
-0.25931346
-0.00025085771
-0.25914691
-0.00022347507
-0.25899687
-0.00018407217
-0.25886685
-0.00013291787
-0.25876012
-7.0475696e-05
-0.25867975
2.6100189e-06
-0.25862856
8.5518786e-05
-0.25860904
0.00017725165
-0.25862328
0.00027664494
-0.25867298
0.00038238881
-0.25875934
0.00049304319
-0.25888308
0.00060705258
-0.25904441
0.00072276643
-0.25924299
0.00083846249
-0.25947793
0.00095237028
-0.25974781
0.0010626964
-0.26005064
0.0011676507
-0.2603839
0.0012654752
-0.26074455
0.0013544666
-0.26112907
0.0014330078
-0.26153348
0.0014995914
-0.26195337
0.0015528458
-0.262384
0.0015915573
-0.26282029
0.0016146954
-0.26325693
0.0016214251
-0.26368844
0.0016111298
-0.26410921
0.0015834204
-0.26451363
0.0015381456
-0.26489611
0.0014753972
-0.26525117
0.0013955099
-0.26557355
0.001299062
-0.26585824
0.001186861
-0.26610057
0.0010599382
-0.26629627
0.00091953003
-0.26644153
0.00076705838
-0.26653306
0.00060410894
-0.2665681
0.00043240911
-0.2665445
0.00025377293
-0.2664607
7.0096346e-05
-0.26631579
-0.00011662985
-0.2661095
-0.00030441139
-0.26584224
-0.0004912578
-0.26551506
-0.00067525643
-0.26512957
-0.00085452567
-0.26468786
-0.0010272671
-0.26419257
-0.001191862
-0.26364688
-0.0013468411
-0.26305438
-0.0014908579
-0.26241905
-0.0016227324
-0.26174516
-0.0017414805
-0.26103724
-0.0018463231
-0.26030001
-0.0019366889
-0.25953829
-0.0020122141
-0.25875698
-0.0020727368
-0.25796095
-0.0021182925
-0.25715499
-0.0021490941
-0.2563438
-0.0021655247
-0.25553186
-0.0021681167
-0.25472348
-0.002157532
-0.25392269
-0.0021345419
-0.25313324
-0.0021000046
-0.2523586
-0.0020548479
-0.2516019
-0.0020000405
-0.25086596
-0.0019365807
-0.25015328
-0.0018654747
-0.24946601
-0.0017877214
-0.24880602
-0.001704298
-0.24817483
-0.001616152
-0.24757371
-0.001524185
-0.24700363
-0.0014292526
-0.24646531
-0.0013321559
-0.24595922
-0.0012336393
-0.24548562
-0.0011343885
-0.24504457
-0.0010350338
-0.24463594
-0.00093614692
-0.24425942
-0.00083824953
-0.24391458
-0.00074181794
-0.24360083
-0.00064729429
-0.24331744
-0.00055509567
-0.2430636
-0.0004656186
-0.24283832
-0.00037925754
-0.24264052
-0.00029649444
-0.24246888
-0.00021814746
-0.2423222
-0.0001454635
-0.24219985
-7.8947504e-05
-0.24209641
-2.8159939e-05
-0.24200657
2.1126488e-05
3.0927597e-05
-0.25849686
0.0010988877
-0.25871484
0.0011514462
-0.25893611
0.0011997195
-0.25916012
0.001241146
-0.25938557
0.0012746688
-0.25961081
0.0012996878
-0.25983395
0.0013156892
-0.26005303
0.0013222709
-0.26026602
0.0013190644
-0.26047088
0.00130584
-0.26066558
0.0012824368
-0.26084813
0.0012488633
-0.2610166
0.0012052213
-0.26116917
0.0011517975
-0.2613041
0.0010889852
-0.26141984
0.0010173648
-0.261515
0.00093762719
-0.26158836
0.00085064108
-0.26163897
0.00075737984
-0.26166611
0.00065897431
-0.26166932
0.00055664516
-0.26164847
0.00045173941
-0.26160371
0.00034567063
-0.26153551
0.00023993841
-0.2614447
0.00013607618
-0.26133241
3.5651833e-05
-0.26120015
-5.9763661e-05
-0.26104972
-0.00014861251
-0.26088329
-0.0002293799
-0.26070331
-0.00030061965
-0.26051251
-0.00036098415
-0.26031391
-0.00040924148
-0.26011073
-0.00044430955
-0.25990639
-0.00046525814
-0.25970443
-0.0004713508
-0.25950852
-0.00046204347
-0.25932235
-0.00043702615
-0.25914962
-0.00039620175
-0.25899397
-0.00033972567
-0.2588589
-0.00026798283
-0.25874776
-0.00018161462
-0.25866366
-8.1493445e-05
-0.25860941
3.126982e-05
-0.2585875
0.00015533577
-0.25860001
0.00028915453
-0.25864861
0.00043099065
-0.25873451
0.00057894096
-0.2588584
0.00073095064
-0.25902048
0.0008848468
-0.25922039
0.0010383658
-0.2594572
0.0011891848
-0.25972946
0.0013349547
-0.26003514
0.0014733336
-0.26037169
0.0016020246
-0.26073603
0.0017188051
-0.26112459
0.0018215666
-0.26153334
0.001908346
-0.26195786
0.0019773584
-0.26239333
0.0020270261
-0.26283464
0.0020560113
-0.26327645
0.0020632321
-0.26371321
0.0020478919
-0.26413928
0.0020094924
-0.26454898
0.0019478462
-0.26493667
0.0018630846
-0.26529682
0.001755658
-0.26562409
0.0016263364
-0.26591342
0.0014761915
-0.26616008
0.0013065902
-0.26635972
0.00111917
-0.26650847
0.00091581333
-0.26660298
0.00069862217
-0.26664046
0.00046988189
-0.26661869
0.00023200165
-0.26653609
-1.2498873e-05
-0.26639174
-0.00026098547
-0.26618532
-0.00051082714
-0.26591718
-0.00075939735
-0.26558831
-0.0010041281
-0.26520031
-0.0012425271
-0.26475534
-0.0014722327
-0.26425613
-0.0016910682
-0.26370593
-0.0018970501
-0.26310839
-0.0020883941
-0.26246758
-0.0022635446
-0.26178786
-0.0024212017
-0.26107384
-0.0025603345
-0.26033035
-0.0026801875
-0.25956228
-0.0027802807
-0.25877461
-0.002860403
-0.2579723
-0.0029206066
-0.25716021
-0.0029611801
-0.2563431
-0.0029826394
-0.25552552
-0.0029856985
-0.2547118
-0.0029712444
-0.25390604
-0.002940309
-0.253112
-0.0028940389
-0.25233318
-0.0028336735
-0.25157271
-0.0027605046
-0.25083343
-0.0026758629
-0.25011782
-0.002581088
-0.24942803
-0.0024775088
-0.2487659
-0.002366424
-0.24813296
-0.0022490921
-0.24753044
-0.0021267089
-0.24695928
-0.0020004084
-0.24642019
-0.0018712515
-0.24591361
-0.0017402225
-0.24543977
-0.0016082277
-0.2449987
-0.0014760986
-0.24459026
-0.0013445885
-0.24421413
-0.0012143836
-0.24386984
-0.0010861083
-0.24355679
-0.00096033731
-0.24327428
-0.00083760565
-0.24302148
-0.00071842081
-0.24279745
-0.00060328757
-0.24260113
-0.00049281841
-0.24243137
-0.00038790911
-0.24228724
-0.00028958499
-0.24216801
-0.00019818138
-0.24206765
-0.00012851938
-0.24198614
-6.0387452e-05
-1.9758877e-05
-0.2585348
0.0013125046
-0.2587546
0.0013712441
-0.25897872
0.0014238391
-0.25920582
0.0014682461
-0.25943438
0.0015032286
-0.25966266
0.0015279709
-0.25988878
0.0015418008
-0.26011073
0.0015442265
-0.26032649
0.0015348251
-0.260534
0.0015133528
-0.26073122
0.0014796552
-0.26091614
0.0014337808
-0.26108681
0.0013758909
-0.26124138
0.0013063644
-0.2613781
0.0012257079
-0.26149538
0.001134648
-0.2615918
0.0010340442
-0.26166612
0.0009249648
-0.26171735
0.00080860578
-0.26174472
0.00068634831
-0.26174776
0.00055968463
-0.26172628
0.00043025576
-0.2616804
0.00029978716
-0.26161056
0.00017010579
-0.26151757
4.308026e-05
-0.26140254
-7.9379764e-05
-0.26126695
-0.00019535022
-0.26111263
-0.00030293149
-0.26094174
-0.00040027234
-0.26075675
-0.00048561143
-0.26056043
-0.00055729945
-0.26035583
-0.0006138392
-0.26014624
-0.00065390703
-0.25993512
-0.00067637136
-0.25972613
-0.00068034568
-0.259523
-0.00066517445
-0.25932953
-0.00063049467
-0.25914952
-0.00057620582
-0.25898673
-0.00050252413
-0.25884476
-0.00040994834
-0.25872708
-0.00029929801
-0.25863689
-0.00017167806
-0.25857713
-2.8492302e-05
-0.25855037
0.00012857489
-0.25855879
0.00029757975
-0.25860415
0.00047634735
-0.25868771
0.00066249627
-0.25881022
0.00085346656
-0.25897192
0.0010465476
-0.25917248
0.0012389209
-0.25941099
0.001427696
-0.25968599
0.0016099529
-0.25999544
0.0017827831
-0.26033675
0.0019433356
-0.2607068
0.0020888531
-0.26110195
0.0022167217
-0.26151811
0.0023245083
-0.26195076
0.0024100016
-0.26239498
0.0024712479
-0.26284556
0.0025065912
-0.26329702
0.0025146931
-0.2637437
0.0024945695
-0.26417981
0.0024456064
-0.26459954
0.0023675769
-0.26499711
0.0022606502
-0.26536684
0.0021253931
-0.26570328
0.0019627705
-0.26600121
0.0017741244
-0.26625579
0.0015611656
-0.26646256
0.0013259431
-0.26661756
0.0010708127
-0.26671734
0.00079840791
-0.26675905
0.00051159313
-0.26674044
0.00021338907
-0.26665989
-9.304742e-05
-0.26651645
-0.00040443331
-0.26630981
-0.00071746076
-0.26604037
-0.0010288429
-0.26570913
-0.0013353605
-0.26531776
-0.0016338987
-0.26486849
-0.0019215068
-0.26436411
-0.0021954444
-0.26380795
-0.0024532106
-0.26320378
-0.0026925686
-0.26255575
-0.002911575
-0.26186834
-0.0031086071
-0.2611463
-0.0032823791
-0.26039453
-0.0034319507
-0.25961809
-0.003556728
-0.25882203
-0.0036564552
-0.25801143
-0.0037312081
-0.25719125
-0.0037813594
-0.25636633
-0.0038075677
-0.25554128
-0.0038107406
-0.25472053
-0.0037920018
-0.25390818
-0.0037526565
-0.25310806
-0.0036941527
-0.25232369
-0.0036180528
-0.25155821
-0.0035259836
-0.25081445
-0.0034196186
-0.2500949
-0.0033006402
-0.24940169
-0.0031707155
-0.24873664
-0.0030314715
-0.24810125
-0.0028844828
-0.24749672
-0.0027312435
-0.24692396
-0.002573169
-0.24638363
-0.0024115811
-0.24587615
-0.0022477048
-0.24540171
-0.0020826654
-0.24496031
-0.0019174943
-0.24455178
-0.0017531223
-0.24417577
-0.0015903954
-0.2438318
-0.001430079
-0.24351926
-0.0012728711
-0.24323746
-0.0011194127
-0.24298557
-0.00097030409
-0.24276272
-0.00082613707
-0.24256794
-0.00068760009
-0.24240029
-0.00055555763
-0.24225905
-0.00043082722
-0.24214336
-0.00031387657
-0.24204782
-0.00022405605
-0.2419756
-0.00013260287
-5.9912807e-05
-0.25854306
0.0015280969
-0.25876565
0.0015938315
-0.25899339
0.0016515805
-0.25922467
0.0016995256
-0.25945779
0.0017363504
-0.25969092
0.0017611059
-0.25992212
0.001772996
-0.26014934
0.0017714469
-0.26037049
0.0017559794
-0.26058347
0.0017263307
-0.26078616
0.0016823478
-0.2609765
0.0016241146
-0.26115246
0.0015518481
-0.26131211
0.0014660167
-0.26145364
0.0013672388
-0.26157538
0.0012563867
-0.26167582
0.0011344887
-0.26175367
0.0010028154
-0.26180785
0.00086278811
-0.26183755
0.00071604328
-0.26184222
0.00056435073
-0.26182161
0.00040965288
-0.26177582
0.00025399616
-0.26170526
9.9544346e-05
-0.26161069
-5.1488869e-05
-0.26149323
-0.0001968362
-0.26135438
-0.00033420803
-0.26119595
-0.00046135842
-0.26102015
-0.00057607277
-0.26082949
-0.00067627271
-0.2606268
-0.00075998922
-0.26041519
-0.0008254429
-0.26019804
-0.0008710597
-0.25997892
-0.0008954933
-0.25976157
-0.00089769505
-0.25954986
-0.00087688899
-0.2593477
-0.00083265204
-0.25915903
-0.00076487435
-0.25898773
-0.00067382945
-0.25883755
-0.00056012782
-0.25871208
-0.00042476802
-0.25861466
-0.00026908951
-0.25854836
-9.4794788e-05
-0.25851587
9.6078626e-05
-0.25851947
0.00030118361
-0.25856102
0.00051789551
-0.25864186
0.00074334255
-0.25876284
0.00097444355
-0.25892423
0.0012079337
-0.25912573
0.0014404231
-0.25936647
0.0016684368
-0.25964498
0.0018884652
-0.25995921
0.002097014
-0.26030654
0.0022906589
-0.26068377
0.0024660893
-0.26108722
0.0026201667
-0.26151268
0.0027499704
-0.26195552
0.0028528455
-0.26241072
0.0029264467
-0.26287292
0.0029687854
-0.26333648
0.0029782547
-0.26379558
0.0029536727
-0.26424428
0.002894303
-0.26467658
0.0027998739
-0.26508652
0.002670591
-0.26546826
0.0025071388
-0.26581617
0.002310682
-0.26612489
0.0020828406
-0.2663894
0.0018256796
-0.26660513
0.0015416733
-0.26676799
0.0012336667
-0.26687442
0.00090484171
-0.2669215
0.00055867146
-0.26690691
0.00019880255
-0.266829
-0.00017095803
-0.26668678
-0.00054665232
-0.26647996
-0.00092428014
-0.26620894
-0.0012998658
-0.26587478
-0.0016695177
-0.26547921
-0.0020294755
-0.26502454
-0.0023761765
-0.26451368
-0.0027063041
-0.26395006
-0.0030168306
-0.26333757
-0.0033050543
-0.26268052
-0.0035686325
-0.26198351
-0.003805612
-0.26125144
-0.0040144484
-0.26048938
-0.0041940159
-0.2597025
-0.0043436092
-0.25889602
-0.0044629335
-0.25807513
-0.0045520967
-0.25724492
-0.0046115666
-0.25641033
-0.0046421577
-0.25557609
-0.0046449851
-0.25474666
-0.0046214253
-0.25392625
-0.0045730725
-0.25311871
-0.0045016918
-0.25232758
-0.0044091847
-0.25155603
-0.0042975269
-0.2508069
-0.0041687481
-0.25008266
-0.0040248856
-0.24938542
-0.0038679547
-0.24871697
-0.0036999193
-0.24807878
-0.003522677
-0.24747199
-0.0033380256
-0.2468975
-0.0031476654
-0.2463559
-0.0029531814
-0.24584756
-0.0027560401
-0.24537264
-0.0025575859
-0.24493109
-0.0023590478
-0.24452268
-0.0021615323
-0.24414703
-0.0019660411
-0.24380364
-0.0017734753
-0.24349186
-0.0015846488
-0.24321097
-0.0014002991
-0.24296017
-0.0012211076
-0.24273857
-0.0010477332
-0.24254528
-0.00088089307
-0.24237947
-0.00072137127
-0.24224045
-0.0005698418
-0.24212741
-0.00042691423
-0.24203582
-0.00031565368
-0.24197003
-0.00019839104
-9.4491888e-05
-0.25855599
0.001746316
-0.25878224
0.0018200733
-0.2590145
0.0018838488
-0.25925097
0.0019359899
-0.25948978
0.0019751671
-0.25972902
0.0020003453
-0.25996665
0.0020106271
-0.26020057
0.002005363
-0.26042861
0.0019840161
-0.26064858
0.0019463
-0.26085829
0.0018920578
-0.26105558
0.001821404
-0.26123834
0.0017346071
-0.26140454
0.0016322225
-0.26155228
0.0015149786
-0.26167979
0.0013838934
-0.26178546
0.0012401658
-0.26186792
0.0010852712
-0.26192599
0.00092086125
-0.26195878
0.00074883371
-0.26196568
0.00057124386
-0.26194637
0.00039034472
-0.26190089
0.00020851605
-0.26182961
2.8267346e-05
-0.26173327
-0.00014782606
-0.26161299
-0.00031712086
-0.26147025
-0.00047695185
-0.2613069
-0.00062470293
-0.26112518
-0.00075779671
-0.26092765
-0.00087380081
-0.26071722
-0.00097041693
-0.2604971
-0.0010455675
-0.26027075
-0.00109741
-0.26004187
-0.0011243704
-0.25981434
-0.0011252242
-0.25959217
-0.0010990633
-0.25937942
-0.0010453962
-0.2591802
-0.00096409666
-0.25899854
-0.00085549143
-0.25883837
-0.000720301
-0.25870343
-0.00055970441
-0.25859724
-0.00037527898
-0.258523
-0.00016903298
-0.25848356
5.6634188e-05
-0.25848133
0.00029895815
-0.25851829
0.00055485305
-0.25859588
0.00082093719
-0.25871503
0.0010935912
-0.25887608
0.0013689786
-0.25907877
0.0016431165
-0.25932226
0.0019119234
-0.25960507
0.0021712779
-0.25992513
0.0024170769
-0.26027977
0.0026453001
-0.26066574
0.0028520604
-0.26107925
0.0030336726
-0.26151599
0.0031867068
-0.26197119
0.0033080444
-0.26243967
0.0033949296
-0.26291591
0.0034450246
-0.26339409
0.0034564392
-0.2638682
0.0034277823
-0.26433208
0.0033581854
-0.26477954
0.0032473271
-0.26520439
0.0030954472
-0.2656006
0.0029033497
-0.26596233
0.0026724047
-0.26628401
0.0024045194
-0.26656045
0.0021021263
-0.26678692
0.0017681414
-0.26695917
0.0014059186
-0.26707354
0.0010192093
-0.267127
0.0006121278
-0.26711716
0.00018896789
-0.26704233
-0.00024579364
-0.26690148
-0.00068749613
-0.26669434
-0.0011314214
-0.26642133
-0.0015728786
-0.26608357
-0.0020072801
-0.26568285
-0.0024301951
-0.2652216
-0.0028374244
-0.26470285
-0.0032250565
-0.26413016
-0.0035895211
-0.26350757
-0.0039276364
-0.26283956
-0.0042366476
-0.26213091
-0.0045142623
-0.26138668
-0.0047586722
-0.26061213
-0.0049685656
-0.25981261
-0.0051431289
-0.25899351
-0.0052820354
-0.25816017
-0.0053854355
-0.25731784
-0.0054539054
-0.25647156
-0.0054884314
-0.25562619
-0.0054903543
-0.2547863
-0.0054613221
-0.25395613
-0.0054032376
-0.25313962
-0.0053182025
-0.25234033
-0.0052084756
-0.25156146
-0.0050763997
-0.25080583
-0.0049243764
-0.2500759
-0.0047548119
-0.24937377
-0.0045700818
-0.2487012
-0.004372497
-0.24805959
-0.004164286
-0.24745006
-0.003947556
-0.24687343
-0.0037242959
-0.24633025
-0.0034963562
-0.24582085
-0.0032654451
-0.24534531
-0.0030331249
-0.24490354
-0.00280082
-0.24449526
-0.0025698084
-0.24412006
-0.0023412424
-0.24377738
-0.0021161523
-0.24346657
-0.0018954598
-0.24318688
-0.0016799901
-0.24293749
-0.0014704949
-0.24271754
-0.0012676811
-0.24252617
-0.0010722672
-0.24236258
-0.00088495713
-0.24222608
-0.00070634218
-0.24211592
-0.0005370822
-0.24202804
-0.00040353188
-0.24196687
-0.00025956192
-0.00012575908
-0.25857973
0.0019685454
-0.25881057
0.0020509083
-0.25904813
0.0021214124
-0.25929053
0.0021783918
-0.25953583
0.0022204655
-0.25978201
0.0022465193
-0.26002694
0.0022555618
-0.26026845
0.0022468701
-0.26050428
0.0022198465
-0.26073215
0.0021741764
-0.26094979
0.0021096928
-0.26115492
0.002026536
-0.26134534
0.0019250215
-0.2615189
0.0018057887
-0.2616736
0.0016696746
-0.26180755
0.0015178426
-0.26191905
0.0013516642
-0.2620066
0.0011728229
-0.26206894
0.00098320614
-0.26210509
0.00078498019
-0.26211434
0.00058049473
-0.26209632
0.0003723241
-0.262051
0.0001631945
-0.26197871
-4.4024354e-05
-0.26188015
-0.00024638033
-0.26175644
-0.00044083671
-0.26160904
-0.00062434586
-0.26143986
-0.00079388092
-0.26125117
-0.00094649477
-0.26104558
-0.0010793842
-0.2608261
-0.0011898962
-0.26059603
-0.0012756381
-0.26035896
-0.0013344817
-0.26011872
-0.0013646066
-0.25987935
-0.0013645974
-0.25964501
-0.0013334004
-0.25941997
-0.0012704448
-0.25920848
-0.0011755796
-0.25901479
-0.0010491795
-0.25884302
-0.00089207293
-0.25869711
-0.00070562069
-0.25858074
-0.00049164258
-0.25849732
-0.00025245976
-0.25844984
9.1567877e-06
-0.25844089
0.00029000736
-0.25847257
0.00058653076
-0.25854645
0.00089481707
-0.25866354
0.0012106866
-0.25882427
0.0015297099
-0.25902844
0.0018472867
-0.25927522
0.0021587039
-0.25956315
0.0024592018
-0.25989011
0.0027440422
-0.26025339
0.0030085819
-0.26064966
0.0032483306
-0.26107502
0.0034590307
-0.26152503
0.0036367176
-0.26199477
0.0037777853
-0.26247889
0.0038790454
-0.26297166
0.003937791
-0.26346705
0.0039518314
-0.26395882
0.003919552
-0.26444057
0.0038399418
-0.26490587
0.0037126227
-0.26534829
0.003537866
-0.26576154
0.0033165971
-0.26613953
0.0030503977
-0.26647648
0.0027414729
-0.26676699
0.002392638
-0.26700612
0.0020072697
-0.26718946
0.0015892534
-0.26731318
0.001142936
-0.26737416
0.00067310746
-0.26736993
0.0001847357
-0.26729872
-0.00031700802
-0.26715949
-0.00082672773
-0.26695195
-0.0013389566
-0.26667657
-0.0018482563
-0.26633454
-0.0023493128
-0.26592774
-0.0028369962
-0.26545872
-0.0033064446
-0.26493065
-0.0037531284
-0.26434725
-0.0041729145
-0.26371277
-0.0045621234
-0.26303184
-0.0049175739
-0.26230948
-0.0052366238
-0.26155096
-0.0055171954
-0.26076173
-0.0057577902
-0.25994737
-0.0059574901
-0.25911346
-0.006115945
-0.25826554
-0.0062333602
-0.257409
-0.0063104372
-0.25654908
-0.006348353
-0.25569074
-0.0063486956
-0.25483866
-0.0063134074
-0.25399717
-0.0062447233
-0.25317027
-0.006145105
-0.25236155
-0.0060171912
-0.25157424
-0.0058637123
-0.25081115
-0.0056874612
-0.25007474
-0.0054912299
-0.24936705
-0.0052777686
-0.2486898
-0.0050497469
-0.24804435
-0.0048097336
-0.24743176
-0.0045601523
-0.24685277
-0.0043032851
-0.24630787
-0.0040412504
-0.24579732
-0.0037759986
-0.24532114
-0.0035093089
-0.24487916
-0.0032427981
-0.24447105
-0.0029779115
-0.24409635
-0.0027159461
-0.24375445
-0.002458054
-0.24344465
-0.002205256
-0.24316619
-0.0019584548
-0.24291822
-0.001718459
-0.2426999
-0.001486005
-0.24251037
-0.0012617931
-0.24234887
-0.0010464566
-0.24221469
-0.00084052585
-0.24210716
-0.00064461532
-0.24202243
-0.00048825736
-0.24196459
-0.00031740907
-0.00015489461
-0.25861153
0.0021954424
-0.25884783
0.0022872124
-0.25909162
0.0023652046
-0.25934093
0.0024277041
-0.25959374
0.0024732691
-0.25984792
0.0025007041
-0.26010128
0.0025089236
-0.26035154
0.0024971289
-0.26059635
0.0024646567
-0.26083333
0.0024111581
-0.26106009
0.0023364501
-0.26127425
0.0022406927
-0.26147347
0.0021242437
-0.26165551
0.0019878232
-0.2618182
0.0018323743
-0.26195957
0.0016592063
-0.26207777
0.0014698641
-0.26217119
0.0012662439
-0.26223846
0.0010504739
-0.26227847
0.00082499701
-0.26229045
0.00059246709
-0.26227391
0.00035579214
-0.26222878
0.00011805767
-0.26215532
-0.00011748544
-0.2620542
-0.00034749409
-0.26192652
-0.00056852105
-0.26177375
-0.00077710983
-0.26159783
-0.00096980905
-0.26140105
-0.0011432698
-0.26118614
-0.0012942989
-0.26095617
-0.0014198659
-0.26071457
-0.0015172391
-0.26046506
-0.001583984
-0.26021166
-0.0016180135
-0.25995855
-0.0016177038
-0.25971011
-0.0015818398
-0.2594708
-0.0015097588
-0.2592451
-0.0014012759
-0.25903747
-0.0012568077
-0.25885226
-0.0010772878
-0.25869362
-0.00086426065
-0.25856547
-0.0006197938
-0.2584714
-0.00034652951
-0.25841462
-4.7622204e-05
-0.25839788
0.00027327209
-0.25842345
0.00061209897
-0.25849304
0.00096440121
-0.25860776
0.0013254118
-0.25876813
0.0016900832
-0.25897402
0.0020531701
-0.25922461
0.0024092989
-0.25951845
0.0027530411
-0.2598534
0.0030789927
-0.26022668
0.0033818567
-0.26063486
0.0036565095
-0.26107392
0.0038980906
-0.26153927
0.0041020722
-0.26202582
0.0042643334
-0.262528
0.0043812277
-0.26303987
0.0044496563
-0.26355514
0.0044671079
-0.26406732
0.0044317277
-0.26456973
0.00434235
-0.26505564
0.0041985317
-0.26551834
0.0040005726
-0.26595127
0.0037495214
-0.26634805
0.0034471784
-0.26670263
0.0030960593
-0.26700938
0.0026993796
-0.2672631
0.002260999
-0.26745921
0.0017853616
-0.26759372
0.0012774391
-0.26766334
0.00074273569
-0.26766554
0.0001869275
-0.26759845
-0.0003840904
-0.26746103
-0.00096415206
-0.26725298
-0.0015470052
-0.26697481
-0.0021264282
-0.26662778
-0.0026963454
-0.26621388
-0.0032508944
-0.2657358
-0.0037845197
-0.26519689
-0.0042920461
-0.26460105
-0.0047687538
-0.26395273
-0.0052104446
-0.2632568
-0.0056134941
-0.26251853
-0.0059748985
-0.26174342
-0.0062923042
-0.26093719
-0.0065640245
-0.26010564
-0.0067890419
-0.25925459
-0.0069669925
-0.2583898
-0.0070981521
-0.25751687
-0.007183366
-0.25664119
-0.0072240252
-0.2557679
-0.0072219903
-0.25490178
-0.0071795251
-0.25404728
-0.0070992243
-0.25320845
-0.0069839367
-0.25238893
-0.0068367074
-0.25159197
-0.0066606788
-0.25082037
-0.0064590569
-0.25007656
-0.0062350387
-0.24936257
-0.0059917658
-0.24868003
-0.0057322797
-0.24803027
-0.0054595001
-0.24741424
-0.0051761742
-0.24683265
-0.0048848827
-0.24628588
-0.0045880142
-0.24577412
-0.0042877623
-0.24529731
-0.0039861211
-0.24485521
-0.0036848972
-0.24444742
-0.0033856989
-0.2440734
-0.0030899621
-0.24373251
-0.0027989538
-0.24342397
-0.0025137864
-0.243147
-0.0022354312
-0.24290071
-0.0019647432
-0.24268425
-0.0017024738
-0.24249674
-0.0014492972
-0.24233741
-0.0012057851
-0.24220553
-0.0009724041
-0.24210049
-0.00074966082
-0.24201845
-0.0005702966
-0.2419631
-0.0003727598
-0.00018254404
-0.25865166
0.0024279834
-0.25889431
0.0025298569
-0.25914518
0.0026160761
-0.25940227
0.0026848018
-0.2596635
0.0027344933
-0.25992665
0.0027638597
-0.26018944
0.0027717137
-0.26044949
0.0027571743
-0.26070434
0.0027195052
-0.2609515
0.002658316
-0.26118845
0.0025734002
-0.26141268
0.002464931
-0.26162174
0.0023333027
-0.26181323
0.0021793124
-0.26198487
0.0020040067
-0.2621345
0.0018088405
-0.26226017
0.0015955341
-0.26236013
0.0013661997
-0.26243286
0.001123213
-0.26247717
0.00086930212
-0.26249214