/*--------------------------------*- C++ -*----------------------------------*\
| =========                 |                                                 |
| \\      /  F ield         | foam-extend: Open Source CFD                    |
|  \\    /   O peration     | Version:     4.1                                |
|   \\  /    A nd           | Web:         http://www.foam-extend.org         |
|    \\/     M anipulation  |                                                 |
\*---------------------------------------------------------------------------*/
FoamFile
{
    version     2.0;
    format      ascii;
    class       surfaceScalarField;
    location    "0.25";
    object      phi;
}
// * * * * * * * * * * * * * * * * * * * * * * * * * * * * * * * * * * * * * //

dimensions      [0 3 -1 0 0 0 0];

internalField   nonuniform List<scalar> 
32976
(
-0.21919281
-0.000173747
-0.21906467
-0.00012813864
-0.21903373
-3.0941334e-05
-0.21910472
7.0989068e-05
-0.21928092
0.00017620502
-0.21955432
0.00027340042
-0.21991617
0.0003618531
-0.2203577
0.00044152708
-0.22087054
0.00051283851
-0.22144657
0.00057602852
-0.22207767
0.00063109859
-0.22275552
0.00067785257
-0.22347149
0.00071596636
-0.2242166
0.00074511407
-0.2249816
0.00076499465
-0.22575702
0.00077542858
-0.22653337
0.00077634126
-0.2273012
0.00076783278
-0.22805133
0.00075013638
-0.22877501
0.00072367187
-0.229464
0.00068899174
-0.23011082
0.00064682276
-0.23070883
0.00059800714
-0.23125236
0.00054353389
-0.23173684
0.00048448044
-0.23215888
0.0004220351
-0.23251632
0.00035744451
-0.23280835
0.00029202926
-0.23303549
0.00022714016
-0.23319965
0.00016416283
-0.23330414
0.00010448115
-0.23335363
4.9498546e-05
-0.23335414
5.0386895e-07
-0.23331192
-4.2213518e-05
-0.23323249
-7.9430559e-05
-0.23312139
-0.00011110545
-0.2329852
-0.00013618477
-0.23283148
-0.00015372394
-0.23266853
-0.00016295016
-0.23250526
-0.0001632655
-0.23235098
-0.00015427986
-0.23221518
-0.00013580152
-0.23210733
-0.00010785124
-0.23203667
-7.0665886e-05
-0.23201192
-2.4743079e-05
-0.23204057
2.8649585e-05
-0.23212716
8.6592884e-05
-0.23227422
0.00014705144
-0.23248407
0.00020985871
-0.23275857
0.0002745001
-0.23309865
0.00034008012
-0.23350425
0.00040559652
-0.23397426
0.00047000857
-0.23450655
0.00053229211
-0.23509802
0.00059146405
-0.23574462
0.00064660191
-0.23644148
0.00069685731
-0.23718294
0.000741468
-0.23796271
0.00077976738
-0.2387739
0.00081119416
-0.2396092
0.00083529534
-0.24046093
0.00085173351
-0.24132122
0.0008602878
-0.24218208
0.00086085471
-0.24303552
0.00085344685
-0.24387371
0.00083818966
-0.24468903
0.00081531858
-0.2454742
0.00078516941
-0.24622237
0.00074817426
-0.24692723
0.00070485108
-0.24758302
0.0006557942
-0.24818468
0.00060166325
-0.24872786
0.00054317314
-0.24920894
0.00048107944
-0.2496251
0.0004161686
-0.24997435
0.00034924417
-0.25025546
0.00028111393
-0.25046804
0.00021257517
-0.25061243
0.00014439595
-0.25068974
7.7302065e-05
-0.25070165
1.1914267e-05
-0.25064981
-5.1840671e-05
-0.25053566
-0.00011415156
-0.25036174
-0.00017391688
-0.25013197
-0.00022976774
-0.24985096
-0.00028101241
-0.24952377
-0.00032718918
-0.24915579
-0.00036798546
-0.24875259
-0.00040319507
-0.24831989
-0.00043270074
-0.24786342
-0.00045646686
-0.24738889
-0.00047453123
-0.24690189
-0.00048700056
-0.24640785
-0.0004940428
-0.24591197
-0.00049588019
-0.24541919
-0.00049278171
-0.24493413
-0.00048505521
-0.24446109
-0.0004730407
-0.24400399
-0.0004571009
-0.24356637
-0.00043761632
-0.2431514
-0.00041497756
-0.24276182
-0.00038957955
-0.2424
-0.00036181611
-0.24206792
-0.00033207586
-0.24176719
-0.00030073664
-0.24149902
-0.00026816358
-0.24126432
-0.00023470513
-0.24106363
-0.00020069067
-0.2408972
-0.00016642829
-0.240765
-0.00013220344
-0.24066672
-9.8277467e-05
-0.24060183
-6.4888949e-05
-0.24056958
-3.2252565e-05
-0.24056901
-5.7048086e-07
-0.24059888
2.9875672e-05
-0.24065779
5.8908256e-05
-0.24074429
8.6496448e-05
-0.24085677
0.00011248714
-0.24099337
0.00013660005
-0.24115184
0.00015846977
-0.24132873
0.00017688272
-0.24151693
0.00018820002
-0.24171411
0.00019718212
0.00022134118
-0.25033104
-0.00030452498
-0.25022365
-0.00023552529
-0.25015891
-9.5676727e-05
-0.25013703
4.9100172e-05
-0.25016484
0.00020402201
-0.25025067
0.0003592315
-0.25039917
0.0005103459
-0.25061117
0.00065353415
-0.25088453
0.00078620028
-0.25121484
0.00090632945
-0.25159605
0.0010123176
-0.25202105
0.0011028493
-0.25248187
0.0011767884
-0.25297
0.0012332364
-0.25347648
0.0012714809
-0.25399216
0.0012911048
-0.25450775
0.0012919342
-0.25501406
0.0012741445
-0.25550211
0.0012381874
-0.25596332
0.0011848792
-0.25638964
0.0011153097
-0.25677373
0.001030909
-0.25710907
0.00093334689
-0.25739011
0.00082457739
-0.25761237
0.00070673697
-0.2577725
0.00058216717
-0.25786837
0.00045331856
-0.25789909
0.00032275157
-0.257865
0.00019304697
-0.25776762
6.6779058e-05
-0.25760956
-5.357872e-05
-0.25739423
-0.00016583192
-0.25712578
-0.00026794639
-0.25681021
-0.00035778148
-0.25645624
-0.00043339951
-0.25607392
-0.00049342059
-0.25567321
-0.00053689825
-0.25526381
-0.0005631207
-0.25485507
-0.00057169251
-0.25445583
-0.00056250522
-0.25407434
-0.00053577506
-0.25371814
-0.00049199966
-0.25339401
-0.00043198117
-0.25310788
-0.00035679598
-0.2528648
-0.00026781975
-0.25266947
-0.00016668102
-0.2525278
-5.5081249e-05
-0.25244567
6.492853e-05
-0.25242678
0.00019096063
-0.25247306
0.00032078778
-0.25258529
0.00045231094
-0.25276312
0.00058342664
-0.25300516
0.00071204062
-0.25330898
0.00083611533
-0.25367122
0.00095370293
-0.2540876
0.0010629797
-0.25455301
0.0011622715
-0.25506162
0.0012500772
-0.25560694
0.0013250861
-0.25618194
0.0013861969
-0.25677917
0.0014325233
-0.25739084
0.001463408
-0.25800898
0.0014784241
-0.2586255
0.0014773776
-0.25923236
0.0014603039
-0.25982163
0.0014274623
-0.26038564
0.0013793292
-0.26091705
0.0013165806
-0.26140896
0.001240083
-0.26185498
0.0011508731
-0.26224933
0.0010501389
-0.26258686
0.00093919835
-0.26286317
0.00081947879
-0.26307458
0.00069248922
-0.26321821
0.00055980054
-0.26329199
0.00042301897
-0.26329463
0.00028376227
-0.2632257
0.00014363684
-0.26308551
4.2099686e-06
-0.26287516
-0.00013304539
-0.26259649
-0.00026676355
-0.26225278
-0.00039554484
-0.26184886
-0.0005180767
-0.26138946
-0.00063331152
-0.26087892
-0.00074031285
-0.2603217
-0.0008382296
-0.25972252
-0.00092636798
-0.25908631
-0.0010041963
-0.25841816
-0.0010713432
-0.25772327
-0.0011275924
-0.25700686
-0.0011728779
-0.25627412
-0.001207271
-0.25553015
-0.0012309735
-0.25477988
-0.001244304
-0.25402808
-0.0012476843
-0.25327924
-0.0012416254
-0.25253758
-0.0012267122
-0.25180703
-0.0012035914
-0.25109118
-0.0011729519
-0.25039328
-0.0011355169
-0.24971623
-0.0010920282
-0.24906257
-0.0010432355
-0.2484345
-0.00098988591
-0.24783386
-0.00093271661
-0.24726215
-0.00087244325
-0.24672056
-0.00080975743
-0.24620995
-0.00074531883
-0.24573089
-0.00067975089
-0.24528368
-0.00061363665
-0.24486836
-0.00054751682
-0.24448476
-0.00048188513
-0.24413245
-0.00041719029
-0.24381087
-0.00035383629
-0.24351925
-0.00029219001
-0.24325681
-0.00023256468
-0.24302264
-0.00017526607
-0.24281552
-0.00012062319
-0.24263402
-6.9013049e-05
-0.2424765
-2.0911713e-05
-0.24234107
2.3032474e-05
-0.24222533
6.1144803e-05
-0.24212738
9.0249547e-05
-0.24204301
0.0001128111
0.00011378336
-0.25367351
-0.00031225376
-0.25374209
-0.00016695212
-0.25385932
2.1555368e-05
-0.25402189
0.0002116677
-0.25422487
0.00040700435
-0.25446597
0.00060033866
-0.25474299
0.0007873646
-0.25505307
0.00096360967
-0.25539248
0.0011256102
-0.25575669
0.0012705357
-0.25614042
0.001396054
-0.25653784
0.0015002659
-0.25694262
0.0015815732
-0.25734815
0.0016387608
-0.25774758
0.0016709174
-0.25813405
0.0016775703
-0.25850072
0.0016586071
-0.25884099
0.0016144079
-0.25914855
0.0015457473
-0.25941757
0.0014539031
-0.2596428
0.0013405381
-0.25981967
0.0012077785
-0.25994441
0.0010580849
-0.26001413
0.00089429794
-0.2600269
0.0007195084
-0.2599818
0.00053706984
-0.25987896
0.00035047827
-0.25971956
0.00016335301
-0.25950584
-2.0674687e-05
-0.25924103
-0.00019802782
-0.25892934
-0.00036527342
-0.25857606
-0.00051910498
-0.25818753
-0.00065648625
-0.25777062
-0.00077468781
-0.25733268
-0.000871337
-0.2568815
-0.00094459787
-0.25642517
-0.00099323228
-0.25597187
-0.0010164219
-0.25552973
-0.0010138268
-0.25510672
-0.0009855233
-0.25471042
-0.00093206864
-0.254348
-0.00085442678
-0.25402597
-0.00075400617
-0.25375017
-0.00063259163
-0.25352567
-0.00049232801
-0.25335671
-0.00033563976
-0.25324666
-0.00016513176
-0.253198
1.6266957e-05
-0.25321243
0.00020539237
-0.25329074
0.00039909739
-0.25343267
0.0005942452
-0.25363698
0.00078773765
-0.25390149
0.00097654451
-0.25422312
0.0011577457
-0.25459799
0.0013285717
-0.25502145
0.0014864456
-0.25548819
0.0016290149
-0.2559923
0.0017541813
-0.25652734
0.0018601246
-0.25708647
0.0019453265
-0.25766252
0.0020085785
-0.25824811
0.0020490003
-0.25883573
0.0020660419
-0.25941784
0.0020594853
-0.25998698
0.0020294411
-0.26053585
0.001976339
-0.26105744
0.0019009191
-0.26154507
0.0018042063
-0.26199248
0.0016874975
-0.26239394
0.0015523324
-0.26274427
0.001400467
-0.26303892
0.0012338424
-0.26327399
0.0010545551
-0.26344632
0.0008648182
-0.26355345
0.00066693165
-0.26359368
0.00046324477
-0.26356604
0.00025612295
-0.26347032
4.7917086e-05
-0.26330703
-0.00015907704
-0.26307743
-0.00036264201
-0.2627835
-0.0005606979
-0.2624278
-0.00075124667
-0.26201342
-0.00093245228
-0.26154397
-0.0011027636
-0.26102347
-0.0012608175
-0.26045631
-0.0014053867
-0.25984722
-0.0015354582
-0.25920116
-0.0016502524
-0.25852328
-0.0017492242
-0.25781882
-0.001832057
-0.25709304
-0.0018986566
-0.25635118
-0.0019491307
-0.25559837
-0.0019837809
-0.25483959
-0.0020030813
-0.25407962
-0.0020076585
-0.25332297
-0.001998271
-0.2525739
-0.0019757861
-0.25183633
-0.0019411625
-0.25111386
-0.0018954203
-0.25040975
-0.0018396299
-0.24972689
-0.0017748882
-0.24906782
-0.0017023033
-0.24843473
-0.0016229782
-0.24782944
-0.0015380013
-0.24725346
-0.0014484278
-0.24670794
-0.0013552771
-0.24619374
-0.0012595212
-0.24571141
-0.0011620782
-0.24526124
-0.0010638065
-0.24484325
-0.00096550238
-0.24445725
-0.0008678924
-0.2441028
-0.00077163657
-0.24377931
-0.0006773274
-0.243486
-0.00058549498
-0.24322196
-0.00049661025
-0.2429861
-0.00041112548
-0.24277721
-0.00032950696
-0.24259395
-0.00025227241
-0.24243482
-0.00018004757
-0.24229807
-0.00011371317
-0.24218188
-5.5046237e-05
-0.24208524
-6.3931848e-06
-0.24200434
3.1907893e-05
4.5047427e-05
-0.25398575
-0.00028601203
-0.25408977
-6.2940774e-05
-0.25424719
0.00017898065
-0.2544541
0.00041857852
-0.25470381
0.00065671674
-0.25499097
0.00088749436
-0.25531036
0.0011067591
-0.255657
0.0013102486
-0.25602576
0.001494372
-0.25641129
0.0016560597
-0.25680792
0.0017926867
-0.25720977
0.001902113
-0.25761076
0.0019825612
-0.25800474
0.0020327394
-0.25838556
0.0020517384
-0.25874718
0.0020391909
-0.25908374
0.0019951662
-0.25938965
0.001920325
-0.2596597
0.0018157976
-0.25988911
0.0016833126
-0.26007363
0.0015250578
-0.26020963
0.0013437727
-0.26029414
0.0011426004
-0.26032498
0.00092513906
-0.26030077
0.00069529566
-0.26022099
0.00045729381
-0.26008606
0.00021554161
-0.2598973
-2.5400248e-05
-0.25965703
-0.00026095372
-0.25936846
-0.00048659004
-0.2590358
-0.00069794091
-0.25866404
-0.00089086399
-0.25825897
-0.0010615522
-0.25782706
-0.0012066037
-0.25737526
-0.0013231335
-0.25691102
-0.0014088333
-0.25644218
-0.00146208
-0.25597679
-0.0014818087
-0.255523
-0.0014676166
-0.25508885
-0.0014196747
-0.2546821
-0.0013388161
-0.25431011
-0.0012264208
-0.25397965
-0.0010844653
-0.25369682
-0.00091542175
-0.25346691
-0.00072223329
-0.25329433
-0.00050822554
-0.25318245
-0.00027700797
-0.25313371
-3.2470367e-05
-0.25314963
0.00022131406
-0.25323077
0.00048023304
-0.25337668
0.00074016003
-0.25358596
0.00099701205
-0.25385623
0.0012468204
-0.25418427
0.0014857842
-0.25456602
0.0017103177
-0.25499667
0.0019171008
-0.25547078
0.0021031168
-0.25598228
0.002265688
-0.25652466
0.0024025035
-0.25709098
0.002511648
-0.25767401
0.0025916098
-0.25826632
0.0026413024
-0.25886034
0.0026600667
-0.25944853
0.0026476719
-0.2600234
0.0026043108
-0.26057765
0.0025305878
-0.26110423
0.0024275073
-0.26159647
0.0022964418
-0.26204809
0.0021391151
-0.26245332
0.0019575665
-0.26280697
0.0017541157
-0.26310445
0.0015313238
-0.26334185
0.0012919552
-0.26351596
0.0010389274
-0.2636243
0.00077527335
-0.26366515
0.0005040917
-0.26363753
0.00022850559
-0.26354124
-4.8374626e-05
-0.26337679
-0.00032352449
-0.26314541
-0.0005940284
-0.26284898
-0.00085712767
-0.26249001
-0.0011102109
-0.26207159
-0.0013508745
-0.26159736
-0.0015769918
-0.26107148
-0.0017866981
-0.26049848
-0.0019783841
-0.25988321
-0.0021507324
-0.25923073
-0.0023027277
-0.2585463
-0.0024336601
-0.25783524
-0.0025431194
-0.2571029
-0.0026309898
-0.25635461
-0.0026974229
-0.25559556
-0.0027428284
-0.2548308
-0.0027678444
-0.25406515
-0.0027733122
-0.25330317
-0.0027602472
-0.25254915
-0.002729809
-0.25180703
-0.0026832774
-0.25108044
-0.0026220129
-0.25037263
-0.0025474406
-0.2496865
-0.0024610204
-0.24902457
-0.0023642248
-0.24838903
-0.0022585182
-0.24778169
-0.0021453442
-0.24720402
-0.0020261009
-0.24665716
-0.0019021378
-0.24614194
-0.0017747402
-0.2456589
-0.0016451214
-0.24520829
-0.001514414
-0.24479012
-0.0013836682
-0.24440417
-0.0012538404
-0.24405001
-0.0011257982
-0.24372702
-0.0010003184
-0.24343442
-0.00087809268
-0.2431713
-0.00075973664
-0.2429366
-0.00064582213
-0.24272919
-0.0005369134
-0.24254785
-0.00043361868
-0.24239124
-0.0003366508
-0.24225797
-0.0002469922
-0.24214672
-0.00016629588
-0.24205667
-9.6443262e-05
-0.24198555
-3.9209175e-05
-5.0515221e-06
-0.25394331
-0.00025110596
-0.25404838
4.2128734e-05
-0.25420926
0.00033986171
-0.25442172
0.00063103665
-0.2546794
0.00091439944
-0.25497679
0.0011848855
-0.25530826
0.0014382237
-0.25566816
0.0016701556
-0.25605072
0.0018769256
-0.25644997
0.0020553089
-0.2568598
0.0022025256
-0.25727403
0.002316339
-0.25768639
0.0023949189
-0.25809065
0.0024369974
-0.25848065
0.0024417419
-0.2588504
0.0024089416
-0.25919411
0.0023388762
-0.25950628
0.0022324976
-0.25978177
0.0020912849
-0.26001586
0.0019173984
-0.26020432
0.001713521
-0.26034352
0.0014829705
-0.26043045
0.0012295362
-0.26046286
0.00095754075
-0.26043924
0.00067168096
-0.26035898
0.0003770358
-0.26022236
7.8924025e-05
-0.26003062
-0.00021714806
-0.25978595
-0.00050562493
-0.2594915
-0.00078103532
-0.25915138
-0.0010380586
-0.25877058
-0.001271664
-0.25835492
-0.001477214
-0.25791097
-0.0016505523
-0.25744594
-0.0017881627
-0.25696758
-0.0018871928
-0.25648404
-0.0019456232
-0.25600369
-0.0019621557
-0.25553496
-0.001936348
-0.25508615
-0.001868489
-0.25466525
-0.0017597111
-0.25427984
-0.0016118344
-0.25393688
-0.0014274266
-0.25364264
-0.0012096638
-0.25340258
-0.00096229178
-0.25322128
-0.00068952199
-0.25310235
-0.00039593516
-0.2530484
-8.6423687e-05
-0.253061
0.00023391795
-0.2531407
0.00055992967
-0.253287
0.00088646224
-0.25349843
0.0012084371
-0.25377254
0.0015209309
-0.254106
0.0018192419
-0.25449463
0.0020989485
-0.2549335
0.0023559701
-0.25541699
0.0025866119
-0.25593891
0.0027876055
-0.25649255
0.0029561418
-0.2570708
0.0030899029
-0.25766626
0.0031870709
-0.25827131
0.0032463525
-0.25887823
0.00326698
-0.25947927
0.0032487128
-0.26006679
0.0031918302
-0.26063332
0.0030971172
-0.26117166
0.0029658506
-0.26167498
0.0027997597
-0.26213687
0.0026010069
-0.26255145
0.0023721435
-0.2629134
0.0021160674
-0.26321805
0.0018359757
-0.26346141
0.0015353175
-0.26364022
0.001217733
-0.26375195
0.0008870061
-0.26379486
0.00054700425
-0.26376798
0.00020162771
-0.26367112
-0.00014523998
-0.26350483
-0.00048981308
-0.26327041
-0.00082844515
-0.26296987
-0.0011576713
-0.26260584
-0.0014742381
-0.26218156
-0.0017751593
-0.26170078
-0.0020577707
-0.26116774
-0.002319735
-0.26058708
-0.0025590488
-0.25996374
-0.0027740741
-0.25930291
-0.0029635515
-0.25860997
-0.0031266044
-0.25789035
-0.0032627325
-0.25714954
-0.0033718046
-0.25639294
-0.0034540254
-0.25562584
-0.003509923
-0.25485337
-0.0035403122
-0.25408043
-0.0035462611
-0.25331162
-0.0035290557
-0.25255127
-0.003490161
-0.25180335
-0.0034311908
-0.25107151
-0.0033538577
-0.25035899
-0.0032599534
-0.2496687
-0.00315131
-0.24900316
-0.0030297734
-0.2483645
-0.0028971768
-0.24775452
-0.0027553248
-0.24717465
-0.0026059631
-0.24662602
-0.0024507747
-0.2461094
-0.0022913603
-0.24562529
-0.0021292292
-0.24517391
-0.0019657888
-0.24475524
-0.0018023414
-0.24436901
-0.0016400712
-0.24401476
-0.0014800494
-0.24369185
-0.0013232312
-0.24339948
-0.0011704619
-0.24313673
-0.001022489
-0.24290256
-0.00087999171
-0.24269586
-0.00074361281
-0.24251547
-0.00061400977
-0.2423602
-0.00049191224
-0.24222893
-0.00037826225
-0.24212082
-0.00027441091
-0.24203549
-0.00018177413
-0.24197241
-0.0001022875
-4.2010685e-05
-0.25384473
-0.00021050764
-0.25395186
0.00014925953
-0.25411639
0.00050439088
-0.25433409
0.00084873255
-0.25459886
0.001179176
-0.25490502
0.0014910443
-0.2552467
0.0017799048
-0.25561805
0.0020414975
-0.25601306
0.0022719407
-0.25642563
0.0024678795
-0.25684949
0.0026263884
-0.25727829
0.0027451325
-0.25770559
0.0028222217
-0.258125
0.0028564039
-0.25853017
0.0028469143
-0.25891492
0.0027936902
-0.25927326
0.0026972135
-0.25959948
0.0025587202
-0.25988823
0.0023800325
-0.26013457
0.0021637385
-0.26033406
0.0019130164
-0.26048286
0.0016317672
-0.26057776
0.0013244367
-0.26061631
0.00099608922
-0.26059686
0.00065223476
-0.26051866
0.0002988383
-0.26038191
-5.7832294e-05
-0.26018776
-0.00041129523
-0.25993841
-0.00075497367
-0.25963705
-0.0010823922
-0.25928789
-0.0013872229
-0.25889607
-0.0016634881
-0.25846761
-0.0019056691
-0.25800935
-0.002108817
-0.25752875
-0.0022687556
-0.25703387
-0.0023820782
-0.25653313
-0.0024463633
-0.25603522
-0.0024600615
-0.2555489
-0.0024226732
-0.25508279
-0.0023345942
-0.25464525
-0.0021972565
-0.25424415
-0.0020129312
-0.25388677
-0.0017848013
-0.25357965
-0.001516785
-0.25332846
-0.0012134843
-0.25313793
-0.00088005745
-0.25301176
-0.00052210194
-0.25295263
-0.00014555191
-0.25296216
0.0002434472
-0.2530409
0.00063866874
-0.25318834
0.0010339068
-0.25340296
0.0014230521
-0.25368222
0.0018001942
-0.25402268
0.0021597036
-0.25442003
0.0024962995
-0.25486919
0.0028051211
-0.25536435
0.0030817779
-0.25589914
0.003322397
-0.25646666
0.003523659
-0.25705959
0.0036828347
-0.25767031
0.0037977937
-0.25829099
0.0038670323
-0.25891369
0.0038896741
-0.25953045
0.0038654706
-0.26013341
0.003794793
-0.26071491
0.0036786149
-0.26126755
0.003518496
-0.26178433
0.0033165361
-0.26225867
0.0030753519
-0.26268455
0.0027980249
-0.26305654
0.0024880512
-0.26336985
0.0021492853
-0.26362041
0.0017858836
-0.26380491
0.0014022319
-0.2639208
0.0010028888
-0.26396631
0.00059251353
-0.26394048
0.00017580429
-0.26384316
-0.00024256419
-0.26367494
-0.00065803209
-0.26343718
-0.0010662066
-0.26313194
-0.001462907
-0.26276196
-0.0018442157
-0.26233059
-0.0022065355
-0.26184172
-0.002546642
-0.26129974
-0.0028617097
-0.26070946
-0.0031493331
-0.26007598
-0.0034075519
-0.25940467
-0.003634865
-0.25870104
-0.0038302339
-0.25797069
-0.0039930752
-0.25721925
-0.004123252
-0.25645224
-0.0042210339
-0.25567508
-0.0042870812
-0.25489299
-0.0043224003
-0.25411095
-0.0043283028
-0.25333364
-0.0043063618
-0.25256544
-0.004258364
-0.25181036
-0.0041862736
-0.25107204
-0.0040921703
-0.25035377
-0.003978226
-0.24965842
-0.0038466576
-0.2489885
-0.0036996947
-0.24834613
-0.0035395483
-0.24773306
-0.0033683912
-0.24715071
-0.0031883221
-0.24660012
-0.0030013611
-0.24608205
-0.0028094269
-0.24559696
-0.0026143254
-0.24514501
-0.002417738
-0.24472613
-0.0022212184
-0.24434003
-0.0020261752
-0.2439862
-0.0018338799
-0.24366397
-0.0016454607
-0.24337252
-0.0014619101
-0.24311091
-0.0012840963
-0.24287811
-0.0011127916
-0.24267302
-0.00094870216
-0.24249451
-0.00079251701
-0.24234147
-0.0006449608
-0.24221283
-0.00050689805
-0.24210784
-0.00037940547
-0.24202607
-0.00026353595
-0.24196759
-0.00016077242
-7.4149215e-05
-0.25372744
-0.00016907544
-0.25383432
0.00025613819
-0.25400069
0.00067076453
-0.2542221
0.001070138
-0.25449288
0.0014499593
-0.25480742
0.0018055797
-0.2551598
0.0021322869
-0.25554398
0.0024256794
-0.25595372
0.0026816818
-0.25638262
0.0028967803
-0.25682414
0.0030679019
-0.25727163
0.0031926207
-0.2577184
0.003268992
-0.25815777
0.0032957808
-0.25858314
0.0032722851
-0.25898804
0.0031985835
-0.25936618
0.0030753512
-0.25971156
0.0029041011
-0.26001852
0.002686993
-0.26028182
0.0024270432
-0.26049673
0.002127929
-0.26065911
0.0017941459
-0.26076549
0.0014308136
-0.26081316
0.0010437629
-0.26080028
0.00063934958
-0.2607259
0.00022446421
-0.2605901
-0.00019363353
-0.26039398
-0.00060742054
-0.26013969
-0.0010092578
-0.2598305
-0.0013915849
-0.25947071
-0.0017470096
-0.25906566
-0.0020685427
-0.25862161
-0.0023497213
-0.25814568
-0.0025847426
-0.25764573
-0.0027687106
-0.25713018
-0.0028976209
-0.25660792
-0.0029686274
-0.25608806
-0.0029799199
-0.25557979
-0.0029309456
-0.25509216
-0.0028222209
-0.25463392
-0.0026554998
-0.25421332
-0.0024335329
-0.25383797
-0.0021601521
-0.2535147
-0.0018400533
-0.25324945
-0.001478733
-0.25304717
-0.0010823365
-0.25291175
-0.00065752017
-0.25284599
-0.00021131619
-0.25285155
0.00024901421
-0.25292901
0.00071612245
-0.2530778
0.0011827
-0.25329632
0.0016415674
-0.25358192
0.0020857939
-0.253931
0.002508792
-0.2543391
0.0029043944
-0.25480091
0.0032669362
-0.25531045
0.0035913114
-0.25586108
0.0038730257
-0.25644565
0.0041082364
-0.25705661
0.0042937935
-0.25768607
0.0044272474
-0.25832592
0.0045068809
-0.25896795
0.004531709
-0.25960396
0.0045014784
-0.26022582
0.0044166588
-0.26082563
0.0042784221
-0.26139576
0.0040886238
-0.26192897
0.0038497501
-0.26241851
0.0035648906
-0.26285816
0.003237678
-0.26324234
0.0028722301
-0.26356614
0.0024730839
-0.26382539
0.0020451299
-0.26401668
0.0015935274
-0.26413743
0.001123638
-0.26418586
0.0006409415
-0.26416102
0.00015096301
-0.26406278
-0.00034080121
-0.26389183
-0.00082898412
-0.26364962
-0.0013084174
-0.26333834
-0.0017741856
-0.26296087
-0.0022216876
-0.2625207
-0.0026467001
-0.26202191
-0.0030454334
-0.26146905
-0.003414568
-0.2608671
-0.003751286
-0.26022136
-0.0040532975
-0.25953736
-0.0043188566
-0.25882083
-0.004546765
-0.25807755
-0.0047363628
-0.25731328
-0.0048875183
-0.25653373
-0.0050005798
-0.25574446
-0.0050763571
-0.25495079
-0.0051160666
-0.25415781
-0.0051212836
-0.25337028
-0.0050938885
-0.25259264
-0.0050360105
-0.25182893
-0.0049499835
-0.25108282
-0.0048382729
-0.2503576
-0.0047034477
-0.24965614
-0.0045481244
-0.2489809
-0.0043749296
-0.24833399
-0.0041864621
-0.24771711
-0.003985272
-0.24713161
-0.0037738169
-0.24657851
-0.0035544586
-0.24605851
-0.003329436
-0.24557198
-0.0031008526
-0.24511905
-0.0028706628
-0.2446996
-0.0026406684
-0.24431328
-0.0024124992
-0.24395954
-0.0021876202
-0.24363767
-0.0019673256
-0.24334684
-0.0017527447
-0.24308608
-0.0015448536
-0.24285437
-0.0013445013
-0.24265064
-0.0011524356
-0.24247381
-0.00096934933
-0.24232284
-0.00079592652
-0.24219682
-0.00063291516
-0.24209509
-0.00048114009
-0.24201726
-0.0003413634
-0.24196345
-0.00021458386
-0.00010199932
-0.25359582
-0.0001242437
-0.25370664
0.00036695859
-0.25387869
0.00084282271
-0.25410767
0.0012991134
-0.25438811
0.0017303966
-0.25471435
0.0021318198
-0.25508039
0.0024983339
-0.25548006
0.0028253406
-0.25590692
0.0031085479
-0.25635441
0.0033442641
-0.25681575
0.0035292495
-0.2572841
0.0036609659
-0.2577525
0.0037373901
-0.258214
0.0037572812
-0.25866169
0.0037199779
-0.25908879
0.003625681
-0.25948868
0.0034752433
-0.25985502
0.0032704441
-0.26018181
0.003013776
-0.26046345
0.0027086848
-0.26069487
0.0023593558
-0.26087162
0.0019708952
-0.26098993
0.0015491203
-0.26104683
0.0011006615
-0.26104024
0.00063275973
-0.26096905
0.00015327931
-0.26083321
-0.00032947792
-0.26063374
-0.00080688535
-0.26037283
-0.0012701758
-0.26005377
-0.0017106382
-0.25968104
-0.0021197454
-0.25926016
-0.0024894241
-0.25879768
-0.0028121979
-0.25830107
-0.0030813467
-0.25777859
-0.0032911998
-0.25723909
-0.0034371127
-0.25669194
-0.0035157856
-0.25614673
-0.0035251283
-0.25561315
-0.0034645266
-0.25510075
-0.0033346202
-0.25461874
-0.003137503
-0.25417584
-0.0028764349
-0.25378005
-0.002555939
-0.25343857
-0.0021815415
-0.25315761
-0.0017596938
-0.25294235
-0.0012975914
-0.25279686
-0.00080300952
-0.25272404
-0.00028413817
-0.25272561
0.0002505881
-0.25280214
0.00079264732
-0.25295302
0.0013335798
-0.25317654
0.0018650912
-0.25346994
0.0023791896
-0.25382944
0.0028682932
-0.25425036
0.0033253175
-0.25472719
0.0037437666
-0.25525368
0.004117797
-0.25582293
0.0044422745
-0.25642751
0.0047128184
-0.25705956
0.0049258468
-0.2577109
0.0050785836
-0.25837311
0.0051690945
-0.25903769
0.0051962854
-0.25969611
0.0051599024
-0.26033997
0.0050605208
-0.26096107
0.0048995221
-0.26155152
0.0046790728
-0.26210384
0.0044020636
-0.26261102
0.004072079
-0.26306667
0.003693328
-0.26346502
0.0032705773
-0.26380101
0.0028090761
-0.26407036
0.0023144799
-0.26426959
0.0017927534
-0.26439605
0.0012500937
-0.26444794
0.00069283322
-0.26442433
0.00012735493
-0.26432514
-0.00043999354
-0.26415111
-0.0010030125
-0.2639038
-0.0015557288
-0.26358552
-0.0020924638
-0.2631993
-0.0026079043
-0.26274883
-0.0030971752
-0.26223836
-0.0035559017
-0.26167267
-0.0039802563
-0.26105696
-0.0043669983
-0.26039675
-0.0047135034
-0.25969783
-0.0050177806
-0.25896612
-0.0052784764
-0.25820762
-0.0054948638
-0.2574283
-0.0056668296
-0.25663407
-0.0057948184
-0.25583061
-0.0058798091
-0.25502343
-0.0059232511
-0.25421771
-0.0059270069
-0.2534183
-0.0058932892
-0.25262972
-0.0058245936
-0.25185606
-0.0057236473
-0.25110101
-0.0055933234
-0.25036785
-0.0054366077
-0.24965944
-0.005256534
-0.24897823
-0.0050561407
-0.24832626
-0.0048384276
-0.2477052
-0.0046063315
-0.24711634
-0.0043626767
-0.24656063
-0.0041101719
-0.24603868
-0.0038513793
-0.24555084
-0.003588701
-0.24509713
-0.0033243643
-0.24467739
-0.0030604173
-0.24429118
-0.0027987071
-0.24393791
-0.0025408885
-0.24361682
-0.0022884157
-0.24332702
-0.0020425477
-0.24306751
-0.0018043595
-0.24283724
-0.0015747671
-0.24263513
-0.001354549
-0.24246009
-0.0011443903
-0.2423111
-0.0009449208
-0.24218725
-0.00075676249
-0.24208787
-0.00058051462
-0.24201257
-0.00041666843
-0.24196141
-0.00026574739
-0.00012795511
-0.25344698
-7.8117361e-05
-0.25356099
0.00048096868
-0.25373895
0.0010207862
-0.2539763
0.0015364576
-0.25426768
0.0020217778
-0.25460739
0.0024715346
-0.25498934
0.0028802827
-0.25540715
0.0032431475
-0.25585417
0.0035555717
-0.25632356
0.0038136538
-0.25680828
0.004013968
-0.25730116
0.0041538499
-0.25779496
0.0042311855
-0.25828239
0.0042447144
-0.25875622
0.0041938009
-0.25920929
0.0040787531
-0.25963463
0.0039005868
-0.26002552
0.0036613367
-0.26037557
0.0033638199
-0.26067879
0.0030119103
-0.26092974
0.0026103048
-0.26112358
0.0021647331
-0.26125619
0.0016817304
-0.26132429
0.0011687562
-0.2613255
0.00063397643
-0.2612585
8.6276376e-05
-0.26112304
-0.00046494151
-0.26092005
-0.0010098742
-0.26065169
-0.0015385352
-0.26032134
-0.002040984
-0.25993362
-0.0025074688
-0.2594943
-0.0029287437
-0.25901026
-0.0032962333
-0.25848939
-0.0036022208
-0.2579404
-0.0038401914
-0.25737271
-0.0040048045
-0.25679622
-0.0040922697
-0.25622116
-0.0041001948
-0.25565778
-0.0040279004
-0.25511624
-0.0038761615
-0.2546063
-0.0036474388
-0.2541372
-0.003345541
-0.2537174
-0.0029757333
-0.25335451
-0.0025444317
-0.2530551
-0.0020591074
-0.25282462
-0.0015280756
-0.25266732
-0.00096030147
-0.25258626
-0.0003652058
-0.2525832
0.00024753273
-0.2526587
0.00086815131
-0.2528121
0.0014869784
-0.25304156
0.0020945523
-0.25334415
0.002681774
-0.25371588
0.003240027
-0.25415184
0.003761275
-0.25464624
0.004238162
-0.25519252
0.004664082
-0.25578349
0.0050332411
-0.25641137
0.0053407052
-0.25706798
0.0055824489
-0.25774475
0.0057553621
-0.25843295
0.0058572898
-0.25912369
0.0058870292
-0.25980812
0.0058443302
-0.26047748
0.0057298825
-0.26112325
0.0055452899
-0.26173723
0.0052930468
-0.26231163
0.0049764695
-0.26283921
0.0045996624
-0.26331333
0.0041674389
-0.26372799
0.0036852463
-0.264078
0.0031590798
-0.26435891
0.0025953963
-0.26456716
0.0020010032
-0.26470004
0.0013829715
-0.26475573
0.00074852483
-0.26473332
0.0001049427
-0.26463278
-0.00054053729
-0.26445495
-0.0011808447
-0.2642015
-0.0018091695
-0.26387493
-0.002419041
-0.26347842
-0.0030044068
-0.26301588
-0.0035597158
-0.2624918
-0.0040799887
-0.26191118
-0.0045608743
-0.26127948
-0.0049986972
-0.26060249
-0.0053904907
-0.25988626
-0.0057340173
-0.25913696
-0.0060277731
-0.25836085
-0.006270974
-0.25756414
-0.0064635414
-0.25675292
-0.0066060359
-0.2559331
-0.0066996299
-0.25511032
-0.0067460322
-0.2542899
-0.006747421
-0.25347682
-0.00670637
-0.25267565
-0.0066257701
-0.25189052
-0.0065087692
-0.25112517
-0.0063586733
-0.25038287
-0.0061789081
-0.24966646
-0.0059729454
-0.24897835
-0.0057442522
-0.24832054
-0.0054962434
-0.24769461
-0.0052322534
-0.24710181
-0.0049554814
-0.24654299
-0.0046689878
-0.24601871
-0.0043756612
-0.24552921
-0.0040782027
-0.24507446
-0.0037791103
-0.24465421
-0.0034806753
-0.24426796
-0.0031849571
-0.24391505
-0.0028937935
-0.24359468
-0.0026087906
-0.24330589
-0.0023313282
-0.24304768
-0.0020625698
-0.24281897
-0.0018034867
-0.24261864
-0.0015548772
-0.24244562
-0.0013174095
-0.24229888
-0.0010916539
-0.24217753
-0.00087811664
-0.24208083
-0.00067721709
-0.24200826
-0.00048923434
-0.24195967
-0.0003143364
-0.00015217784
-0.25328183
-2.7962808e-05
-0.25340218
0.00060131944
-0.25358894
0.001207545
-0.25383762
0.0017851373
-0.25414289
0.0023270505
-0.25449897
0.0028276168
-0.25489964
0.0032809486
-0.25533834
0.0036818482
-0.25580823
0.0040254593
-0.25630222
0.0043076423
-0.25681301
0.0045247583
-0.25733315
0.0046739918
-0.25785507
0.0047531113
-0.25837117
0.0047608125
-0.25887383
0.0046964601
-0.25935553
0.0045604474
-0.25980887
0.004353933
-0.26022673
0.004079192
-0.26060226
0.0037393558
-0.26092908
0.0033387231
-0.26120128
0.0028825073
-0.26141362
0.0023770757
-0.2615616
0.0018297052
-0.26164156
0.00124872