/*--------------------------------*- C++ -*----------------------------------*\
| =========                 |                                                 |
| \\      /  F ield         | foam-extend: Open Source CFD                    |
|  \\    /   O peration     | Version:     4.1                                |
|   \\  /    A nd           | Web:         http://www.foam-extend.org         |
|    \\/     M anipulation  |                                                 |
\*---------------------------------------------------------------------------*/
FoamFile
{
    version     2.0;
    format      ascii;
    class       volScalarField;
    location    "0.25";
    object      rAU;
}
// * * * * * * * * * * * * * * * * * * * * * * * * * * * * * * * * * * * * * //

dimensions      [0 0 1 0 0 0 0];

internalField   nonuniform List<scalar> 
16796
(
0.00012986436
0.00012964965
0.00012945112
0.00012924391
0.00012902773
0.00012880517
0.00012857566
0.00012834186
0.00012810333
0.00012786285
0.00012762011
0.00012737797
0.00012713618
0.00012689763
0.00012666205
0.00012643228
0.00012620798
0.00012599185
0.0001257834
0.00012558516
0.00012539641
0.00012521944
0.00012505328
0.00012489989
0.00012475802
0.0001246293
0.00012451214
0.00012440784
0.00012431445
0.00012423293
0.000124161
0.00012409889
0.00012404554
0.0001239986
0.00012395827
0.00012392157
0.0001238885
0.00012385592
0.00012382371
0.00012378864
0.00012375059
0.00012370649
0.00012365574
0.00012359645
0.00012352729
0.00012344703
0.00012335457
0.00012324914
0.00012312997
0.00012299663
0.00012284894
0.00012268695
0.0001225109
0.00012232147
0.00012211934
0.00012190558
0.00012168143
0.00012144836
0.00012120798
0.00012096217
0.00012071277
0.00012046182
0.00012021143
0.00011996371
0.0001197208
0.00011948478
0.00011925782
0.00011904176
0.0001188385
0.00011864978
0.00011847716
0.000118322
0.00011818561
0.0001180689
0.00011797269
0.00011789757
0.00011784389
0.00011781176
0.0001178012
0.00011780118
0.0001178118
0.00011784337
0.0001178956
0.00011796786
0.00011805913
0.00011816817
0.00011829359
0.00011843384
0.00011858729
0.0001187522
0.0001189269
0.00011910947
0.00011929815
0.00011949111
0.0001196866
0.00011988288
0.00012007825
0.00012027125
0.00012046027
0.00012064397
0.00012082108
0.00012099042
0.00012115094
0.00012130182
0.00012144216
0.00012157131
0.00012168871
0.00012179391
0.00012188653
0.00012196644
0.00012203337
0.00012208731
0.00012212827
0.00012215636
0.00012217171
0.00012216552
0.00012214468
0.00012211265
0.00012207003
0.00012201777
0.00012195729
0.0001218909
0.00012181472
0.000121704
0.00011735754
0.00011724906
0.00011716758
0.00011708205
0.00011699048
0.00011689469
0.00011679384
0.00011669016
0.00011658302
0.00011647479
0.00011636495
0.00011625595
0.00011614733
0.00011604157
0.0001159382
0.00011583967
0.00011574546
0.00011565792
0.00011557642
0.00011550316
0.00011543734
0.00011538098
0.00011533304
0.0001152953
0.00011526648
0.0001152481
0.00011523858
0.00011523915
0.00011524796
0.00011526593
0.00011529093
0.00011532323
0.0001153619
0.00011540478
0.00011544547
0.0001154871
0.00011553322
0.00011558109
0.00011563088
0.00011567975
0.00011572777
0.00011577215
0.00011580227
0.00011582206
0.00011583228
0.00011583194
0.00011582019
0.0001157965
0.00011576028
0.00011571134
0.00011564964
0.00011557537
0.00011548892
0.00011539103
0.00011528247
0.00011516434
0.00011503789
0.00011490456
0.00011476592
0.00011462379
0.00011447989
0.00011433617
0.00011419458
0.00011405711
0.00011392573
0.00011380233
0.00011368891
0.00011358715
0.00011349876
0.0001134253
0.00011336814
0.00011332851
0.00011330753
0.00011330598
0.00011332455
0.00011336369
0.00011342366
0.00011347335
0.00011353428
0.00011360597
0.00011368855
0.00011379128
0.0001139135
0.00011405458
0.0001142138
0.00011439027
0.00011458298
0.00011479075
0.00011501229
0.0001152462
0.00011549111
0.00011574541
0.00011600757
0.00011627601
0.00011654915
0.00011682542
0.00011710326
0.00011738129
0.00011765799
0.00011793205
0.0001182022
0.00011846727
0.00011872613
0.00011897793
0.00011922168
0.00011945662
0.00011968209
0.0001198975
0.00012010232
0.00012029628
0.00012047895
0.00012065014
0.0001208097
0.00012095753
0.0001210936
0.000121209
0.00012131021
0.00012140035
0.00012147969
0.00012154871
0.00012159803
0.00012163452
0.00012166184
0.00012167562
0.00011593502
0.00011582902
0.00011574372
0.00011565749
0.00011556894
0.00011547997
0.00011538979
0.00011530063
0.00011521184
0.00011512571
0.00011504165
0.00011496194
0.00011488595
0.00011481595
0.00011475122
0.00011469393
0.00011464328
0.00011460127
0.00011456694
0.00011454214
0.0001145257
0.00011451925
0.00011452139
0.00011453351
0.00011455396
0.00011458389
0.00011462136
0.00011466726
0.00011471941
0.00011477845
0.00011483988
0.00011488673
0.00011493948
0.00011499614
0.00011505055
0.000115106
0.00011516618
0.00011522856
0.00011529344
0.00011535814
0.00011542285
0.00011548492
0.00011553387
0.00011557366
0.00011558539
0.0001155779
0.00011555741
0.00011552374
0.00011547669
0.00011541646
0.00011534338
0.00011525804
0.00011516116
0.00011505384
0.00011493715
0.00011481246
0.00011468129
0.00011454527
0.00011440613
0.00011426582
0.00011412613
0.00011398906
0.00011385655
0.00011373055
0.00011361295
0.00011350554
0.00011341017
0.00011332835
0.0001132616
0.00011321126
0.00011317849
0.00011316424
0.00011316943
0.00011319454
0.00011324002
0.00011330608
0.00011335565
0.00011337109
0.00011339699
0.00011344306
0.00011350959
0.00011359658
0.00011370381
0.00011383088
0.00011397718
0.00011414196
0.00011432428
0.00011452304
0.00011473703
0.00011496486
0.00011520521
0.00011545645
0.00011571704
0.00011598537
0.00011625982
0.00011653876
0.00011682056
0.00011710376
0.00011738675
0.00011766814
0.00011794656
0.00011822074
0.00011848946
0.00011875177
0.00011900658
0.00011925304
0.00011949041
0.000119718
0.00011993521
0.00012014169
0.00012033694
0.0001205207
0.00012069275
0.00012085296
0.00012100119
0.00012113756
0.00012126199
0.0001213746
0.00012147543
0.00012156433
0.00012163126
0.00012168095
0.00012171958
0.00012172404
0.00011572974
0.00011562014
0.00011553021
0.00011543974
0.0001153479
0.00011525681
0.00011516578
0.00011507707
0.00011499007
0.00011490707
0.00011482745
0.00011475348
0.00011468449
0.00011462266
0.00011456721
0.00011452022
0.00011448078
0.0001144508
0.00011442917
0.00011441763
0.00011441486
0.00011442237
0.00011443861
0.00011446484
0.00011449927
0.00011454289
0.00011459366
0.00011465231
0.00011471656
0.00011476323
0.00011480571
0.00011483554
0.00011487358
0.00011491821
0.00011497023
0.00011502742
0.00011509033
0.00011515649
0.00011522624
0.00011529693
0.00011536873
0.00011543893
0.00011550713
0.00011557152
0.0001156111
0.00011559787
0.0001155671
0.00011552233
0.00011546354
0.0001153911
0.00011530555
0.00011520766
0.00011509838
0.00011497901
0.00011485083
0.0001147154
0.00011457443
0.00011442974
0.00011428321
0.00011413693
0.00011399284
0.00011385301
0.00011371948
0.00011359425
0.00011347925
0.00011337628
0.00011328716
0.00011321338
0.00011315641
0.00011311749
0.00011309771
0.0001130979
0.00011311884
0.00011316086
0.00011322427
0.00011330545
0.00011329483
0.00011328078
0.00011328697
0.00011331383
0.00011336184
0.00011343115
0.00011352169
0.0001136332
0.00011376519
0.00011391699
0.00011408775
0.00011427645
0.00011448189
0.00011470273
0.00011493764
0.00011518499
0.0001154432
0.00011571063
0.00011598559
0.00011626639
0.00011655133
0.00011683886
0.00011712729
0.00011741512
0.00011770089
0.00011798324
0.00011826086
0.00011853269
0.00011879754
0.00011905451
0.00011930273
0.00011954146
0.00011977003
0.00011998799
0.00012019479
0.0001203901
0.00012057365
0.00012074524
0.00012090469
0.00012105203
0.00012118715
0.00012131007
0.00012142074
0.00012151897
0.00012160475
0.0001216749
0.00012173353
0.00012174081
0.00011565624
0.00011554311
0.00011544955
0.00011535552
0.00011526044
0.0001151666
0.00011507338
0.00011498311
0.00011489521
0.000114812
0.0001147329
0.00011466016
0.00011459314
0.00011453401
0.000114482
0.00011443916
0.00011440454
0.00011438002
0.00011436448
0.00011435957
0.00011436394
0.00011437902
0.00011440321
0.00011443766
0.00011448051
0.00011453266
0.00011459196
0.00011465904
0.00011470041
0.00011471631
0.00011473272
0.00011475869
0.00011479393
0.0001148369
0.00011488851
0.00011494656
0.00011501166
0.00011508136
0.000115156
0.00011523289
0.00011531218
0.00011539109
0.00011546912
0.00011554434
0.00011561532
0.00011562196
0.00011558134
0.00011552584
0.0001154556
0.00011537112
0.00011527315
0.00011516264
0.00011504074
0.00011490896
0.00011476876
0.00011462193
0.00011447036
0.00011431605
0.00011416106
0.00011400764
0.00011385788
0.00011371396
0.00011357803
0.00011345218
0.00011333838
0.00011323848
0.00011315431
0.00011308735
0.00011303903
0.00011301053
0.00011300287
0.00011301677
0.00011305288
0.00011311141
0.0001131925
0.00011326314
0.00011320927
0.00011317492
0.00011316121
0.00011316879
0.00011319829
0.00011325003
0.00011332408
0.00011342032
0.00011353836
0.00011367764
0.00011383737
0.00011401657
0.00011421409
0.00011442859
0.00011465875
0.00011490289
0.00011515942
0.00011542664
0.00011570279
0.00011598611
0.00011627482
0.00011656728
0.00011686169
0.00011715648
0.00011745008
0.00011774103
0.00011802793
0.00011830962
0.00011858484
0.00011885257
0.00011911189
0.00011936197
0.00011960207
0.00011983168
0.00012005017
0.00012025717
0.00012045234
0.00012063542
0.00012080619
0.00012096463
0.00012111053
0.00012124387
0.00012136449
0.00012147219
0.00012156696
0.0001216437
0.00012171154
0.00012173374
0.00011559257
0.00011547503
0.00011537748
0.00011527965
0.00011518109
0.00011508415
0.0001149883
0.00011489592
0.00011480648
0.00011472233
0.00011464293
0.00011457056
0.00011450459
0.00011444722
0.00011439767
0.00011435799
0.00011432725
0.00011430729
0.00011429696
0.0001142979
0.0001143087
0.00011433074
0.00011436235
0.00011440462
0.0001144556
0.00011451609
0.00011458385
0.00011463704
0.00011463799
0.00011463986
0.00011465128
0.00011467332
0.00011470576
0.00011474719
0.00011479853
0.00011485768
0.00011492526
0.00011499885
0.00011507878
0.00011516233
0.0001152496
0.00011533774
0.00011542615
0.00011551278
0.00011559605
0.00011564655
0.00011559607
0.00011552974
0.00011544784
0.00011535106
0.00011524031
0.00011511673
0.00011498169
0.00011483688
0.000114684
0.00011452503
0.00011436207
0.00011419731
0.000114033
0.00011387157
0.00011371522
0.00011356631
0.0001134271
0.00011329975
0.00011318632
0.00011308869
0.00011300874
0.00011294793
0.00011290766
0.00011288909
0.00011289313
0.00011292042
0.0001129715
0.00011304644
0.00011314521
0.00011318448
0.00011310956
0.0001130545
0.00011302062
0.00011300873
0.00011301967
0.00011305388
0.00011311161
0.00011319283
0.00011329727
0.00011342445
0.00011357365
0.00011374391
0.00011393413
0.00011414294
0.00011436902
0.00011461066
0.00011486621
0.00011513391
0.00011541192
0.00011569842
0.00011599151
0.00011628947
0.00011659041
0.00011689263
0.00011719449
0.00011749442
0.00011779091
0.00011808273
0.00011836852
0.00011864719
0.00011891773
0.00011917924
0.0001194309
0.00011967215
0.00011990232
0.00012012096
0.00012032769
0.00012052221
0.00012070424
0.00012087374
0.00012103045
0.00012117428
0.00012130507
0.00012142264
0.00012152689
0.00012161102
0.00012168702
0.0001217197
0.00011552746
0.00011540528
0.00011530327
0.00011520123
0.00011509873
0.00011499824
0.00011489927
0.00011480427
0.00011471275
0.00011462712
0.00011454687
0.00011447432
0.00011440887
0.00011435272
0.00011430514
0.00011426818
0.00011424089
0.00011422511
0.00011421969
0.00011422623
0.00011424328
0.00011427217
0.00011431117
0.00011436131
0.00011442055
0.0001144896
0.00011456612
0.00011457275
0.00011455675
0.00011455258
0.00011455899
0.00011457713
0.00011460692
0.00011464699
0.00011469835
0.00011475895
0.00011482944
0.00011490741
0.00011499318
0.000115084
0.0001151799
0.00011527797
0.00011537748
0.00011547627
0.0001155726
0.00011565895
0.00011561185
0.00011553462
0.00011544088
0.00011533149
0.00011520754
0.0001150704
0.00011492161
0.00011476311
0.00011459679
0.00011442486
0.00011424963
0.00011407351
0.00011389893
0.0001137285
0.00011356462
0.00011340976
0.00011326632
0.00011313657
0.00011302265
0.00011292651
0.00011285005
0.00011279474
0.00011276197
0.00011275286
0.00011276825
0.00011280871
0.00011287464
0.00011296597
0.00011308255
0.00011309286
0.00011299636
0.00011292014
0.00011286575
0.00011283419
0.00011282645
0.00011284316
0.00011288469
0.00011295113
0.00011304232
0.00011315783
0.00011329701
0.00011345893
0.00011364248
0.00011384632
0.00011406905
0.00011430895
0.00011456429
0.00011483324
0.0001151139
0.00011540431
0.00011570251
0.00011600666
0.00011631477
0.00011662503
0.0001169357
0.00011724511
0.00011755166
0.00011785402
0.00011815073
0.00011844064
0.00011872264
0.00011899579
0.00011925918
0.00011951221
0.00011975413
0.00011998446
0.00012020276
0.00012040871
0.00012060197
0.00012078246
0.0001209499
0.00012110416
0.00012124508
0.00012137251
0.00012148628
0.00012157821
0.00012166339
0.00012170693
0.00011545895
0.0001153315
0.00011522454
0.00011511783
0.00011501099
0.00011490652
0.00011480401
0.00011470597
0.00011461196
0.00011452445
0.00011444295
0.00011436985
0.00011430456
0.00011424934
0.00011420344
0.00011416895
0.00011414492
0.0001141332
0.0001141326
0.00011414471
0.00011416805
0.0001142039
0.00011425048
0.00011430873
0.00011437655
0.00011445455
0.00011451929
0.00011448935
0.00011446623
0.0001144559
0.00011445723
0.00011447149
0.00011449869
0.00011453754
0.00011458913
0.00011465146
0.00011472521
0.00011480798
0.00011490007
0.00011499871
0.00011510385
0.0001152125
0.00011532381
0.0001154355
0.00011554564
0.0001156522
0.0001156301
0.00011554177
0.00011543589
0.00011531348
0.00011517583
0.00011502451
0.00011486127
0.00011468828
0.00011450767
0.00011432186
0.00011413341
0.00011394492
0.00011375905
0.00011357861
0.00011340615
0.00011324433
0.00011309568
0.00011296258
0.00011284729
0.00011275182
0.0001126781
0.00011262765
0.00011260183
0.00011260173
0.00011262814
0.00011268153
0.00011276222
0.00011286999
0.00011300452
0.00011298875
0.00011286999
0.00011277208
0.00011269675
0.00011264521
0.00011261862
0.00011261778
0.00011264317
0.00011269502
0.00011277325
0.00011287749
0.00011300713
0.00011316127
0.00011333879
0.00011353833
0.00011375844
0.00011399735
0.00011425326
0.00011452424
0.0001148083
0.00011510338
0.0001154074
0.00011571842
0.00011603433
0.00011635323
0.00011667325
0.00011699262
0.00011730965
0.00011762291
0.00011793087
0.00011823228
0.00011852598
0.00011881094
0.00011908621
0.00011935111
0.00011960487
0.00011984696
0.00012007689
0.0001202943
0.00012049883
0.00012069037
0.0001208686
0.00012103339
0.00012118457
0.00012132201
0.00012144551
0.00012154565
0.00012164057
0.00012169495
0.0001153877
0.00011525465
0.00011514227
0.0001150304
0.00011491871
0.00011480976
0.00011470321
0.00011460161
0.00011450461
0.00011441471
0.00011433149
0.00011425737
0.00011419181
0.00011413709
0.00011409252
0.00011406017
0.00011403914
0.00011403124
0.00011403532
0.00011405291
0.00011408252
0.0001141254
0.00011417969
0.00011424628
0.00011432298
0.00011441031
0.0001144382
0.00011439596
0.00011436547
0.00011434879
0.00011434494
0.00011435528
0.00011437993
0.0001144177
0.00011446974
0.0001145341
0.00011461149
0.00011469952
0.00011479849
0.00011490556
0.00011502064
0.00011514062
0.00011526454
0.00011538996
0.00011551479
0.0001156368
0.00011565139
0.00011555175
0.00011543338
0.00011529749
0.00011514556
0.00011497936
0.00011480089
0.00011461255
0.00011441669
0.00011421601
0.00011401327
0.00011381134
0.00011361308
0.0001134215
0.00011323938
0.00011306953
0.00011291464
0.00011277723
0.00011265965
0.00011256401
0.0001124923
0.00011244606
0.00011242666
0.00011243516
0.00011247231
0.00011253849
0.00011263391
0.00011275822
0.00011291095
0.00011287247
0.00011273073
0.00011261049
0.00011251373
0.00011244185
0.00011239619
0.0001123777
0.000112387
0.00011242442
0.00011248996
0.00011258333
0.00011270392
0.00011285087
0.00011302302
0.00011321898
0.00011343726
0.00011367599
0.0001139333
0.00011420715
0.00011449544
0.00011479601
0.00011510665
0.0001154253
0.00011574974
0.00011607793
0.00011640792
0.00011673781
0.00011706582
0.00011739042
0.00011771
0.00011802324
0.00011832889
0.00011862587
0.00011891317
0.00011919007
0.00011945574
0.00011970961
0.00011995118
0.00012018003
0.0001203958
0.00012059835
0.00012078734
0.00012096264
0.0001211241
0.0001212716
0.00012140494
0.00012151354
0.00012161844
0.00012168354
0.00011531353
0.00011517435
0.00011505606
0.00011493854
0.00011482151
0.0001147076
0.00011459651
0.00011449088
0.0001143904
0.00011429764
0.00011421224
0.00011413666
0.00011407043
0.00011401586
0.00011397229
0.00011394181
0.00011392355
0.00011391933
0.00011392798
0.00011395103
0.00011398697
0.00011403699
0.0001140992
0.00011417442
0.00011426037
0.00011435749
0.00011434397
0.0001142931
0.00011425493
0.00011423167
0.00011422246
0.00011422879
0.00011425088
0.00011428764
0.00011434029
0.00011440693
0.00011448831
0.00011458205
0.00011468842
0.00011480454
0.00011493024
0.00011506233
0.00011519969
0.00011533974
0.00011548019
0.0001156186
0.00011567677
0.00011556552
0.00011543423
0.0001152843
0.00011511741
0.00011493555
0.00011474096
0.00011453627
0.00011432413
0.00011410745
0.00011388928
0.00011367272
0.00011346087
0.00011325698
0.00011306401
0.00011288499
0.00011272276
0.00011258
0.00011245919
0.00011236251
0.00011229204
0.00011224935
0.00011223583
0.00011225253
0.00011230014
0.00011237899
0.00011248916
0.00011263017
0.0001128014
0.00011274407
0.00011257849
0.00011243522
0.00011231645
0.0001122238
0.00011215878
0.00011212248
0.00011211568
0.00011213879
0.0001121919
0.00011227476
0.00011238679
0.00011252712
0.00011269457
0.00011288769
0.00011310492
0.0001133443
0.00011360386
0.00011388146
0.00011417485
0.00011448176
0.00011479984
0.00011512691
0.00011546061
0.0001157988
0.00011613937
0.00011648036
0.00011681987
0.00011715627
0.00011748787
0.00011781326
0.00011813115
0.00011844039
0.00011873991
0.00011902895
0.00011930664
0.00011957237
0.00011982563
0.00012006596
0.00012029298
0.00012050654
0.0001207063
0.00012089213
0.00012106389
0.00012122149
0.00012136477
0.00012148195
0.00012159691
0.00012167254
0.00011523682
0.00011509108
0.00011496638
0.00011484268
0.00011471978
0.00011460034
0.00011448417
0.00011437394
0.00011426944
0.00011417329
0.00011408519
0.00011400768
0.00011394032
0.00011388548
0.00011384252
0.00011381361
0.00011379785
0.00011379711
0.0001138102
0.00011383867
0.00011388097
0.00011393825
0.00011400859
0.00011409274
0.00011418834
0.00011429573
0.00011424015
0.00011418022
0.000114134
0.00011410386
0.00011408907
0.00011409126
0.00011411075
0.00011414656
0.00011419997
0.00011426915
0.00011435488
0.00011445479
0.00011456911
0.00011469495
0.00011483203
0.00011497705
0.00011512877
0.00011528442
0.00011544153
0.00011559742
0.00011570698
0.00011558378
0.00011543909
0.00011527448
0.00011509186
0.00011489346
0.00011468175
0.00011445966
0.00011423006
0.00011399619
0.00011376132
0.00011352885
0.00011330212
0.00011308463
0.00011287957
0.00011269017
0.00011251945
0.00011237027
0.00011224523
0.00011214662
0.00011207662
0.00011203683
0.00011202868
0.00011205319
0.00011211104
0.00011220247
0.00011232747
0.00011248541
0.00011267554
0.00011260372
0.00011241337
0.00011224627
0.00011210484
0.00011199089
0.00011190615
0.00011185186
0.00011182889
0.0001118378
0.00011187871
0.00011195144
0.0001120554
0.00011218971
0.00011235315
0.00011254419
0.00011276121
0.00011300213
0.00011326486
0.00011354712
0.00011384655
0.0001141607
0.00011448711
0.00011482344
0.00011516721
0.00011551613
0.00011586798
0.00011622069
0.00011657224
0.00011692092
0.00011726495
0.00011760286
0.00011793328
0.000118255
0.00011856692
0.00011886823
0.00011915803
0.00011943569
0.00011970064
0.00011995245
0.00012019072
0.00012041526
0.00012062577
0.0001208221
0.00012100416
0.00012117186
0.00012132511
0.00012145092
0.0001215759
0.00012166188
0.00011515759
0.00011500477
0.00011487313
0.00011474272
0.00011461338
0.00011448787
0.00011436604
0.00011425066
0.00011414159
0.0001140415
0.0001139502
0.00011387025
0.0001138013
0.00011374577
0.00011370307
0.00011367539
0.00011366189
0.00011366445
0.00011368189
0.00011371575
0.00011376447
0.00011382917
0.00011390789
0.0001140013
0.00011410699
0.00011421019
0.00011412684
0.00011405734
0.00011400265
0.00011396527
0.00011394463
0.00011394248
0.00011395928
0.00011399413
0.00011404842
0.00011412036
0.00011421078
0.00011431729
0.00011444014
0.00011457636
0.0001147256
0.00011488444
0.00011505149
0.00011522379
0.00011539868
0.00011557321
0.00011573241
0.00011560742
0.00011544875
0.00011526875
0.00011506954
0.0001148536
0.00011462369
0.00011438298
0.00011413467
0.00011388226
0.00011362934
0.00011337956
0.00011313657
0.0001129041
0.0001126856
0.00011248452
0.0001123041
0.00011214734
0.00011201702
0.00011191556
0.00011184521
0.00011180765
0.00011180434
0.0001118363
0.00011190418
0.00011200814
0.0001121481
0.00011232327
0.00011253274
0.00011245131
0.00011223515
0.00011204332
0.00011187848
0.00011174268
0.00011163779
0.00011156524
0.00011152604
0.0001115208
0.00011154974
0.00011161269
0.00011170908
0.00011183798
0.00011199812
0.0001121879
0.00011240558
0.00011264896
0.00011291582
0.00011320372
0.00011351015
0.00011383252
0.00011416819
0.00011451468
0.00011486935
0.00011522979
0.00011559365
0.00011595872
0.0001163229
0.00011668438
0.00011704129
0.00011739209
0.00011773536
0.00011806982
0.00011839435
0.00011870808
0.00011901009
0.00011929973
0.00011957643
0.00011983973
0.00012008921
0.00012032472
0.00012054594
0.00012075274
0.00012094506
0.00012112284
0.00012128604
0.00012142045
0.00012155537
0.0001216515
0.00011507608
0.00011491568
0.00011477655
0.00011463884
0.00011450248
0.00011437027
0.00011424219
0.00011412104
0.00011400679
0.00011390219
0.0001138071
0.00011372419
0.00011365315
0.00011359647
0.00011355363
0.00011352686
0.00011351534
0.00011352099
0.00011354266
0.00011358188
0.00011363708
0.00011370936
0.00011379672
0.00011389977
0.00011401601
0.00011409942
0.00011400377
0.00011392413
0.00011386045
0.0001138154
0.00011378857
0.00011378184
0.0001137958
0.00011382968
0.00011388493
0.00011395985
0.00011405528
0.00011416887
0.00011430083
0.00011444815
0.00011461037
0.00011478397
0.0001149674
0.0001151575
0.00011535138
0.00011554585
0.00011573754
0.00011563733
0.00011546404
0.00011526784
0.00011505108
0.00011481651
0.00011456717
0.00011430654
0.00011403812
0.00011376572
0.00011349325
0.00011322467
0.00011296391
0.00011271499
0.00011248162
0.00011226748
0.00011207605
0.00011191052
0.00011177384
0.00011166855
0.00011159702
0.00011156101
0.00011156202
0.00011160108
0.0001116788
0.0001117953
0.0001119504
0.00011214315
0.00011237251
0.00011228687
0.00011204376
0.00011182621
0.00011163713
0.0001114788
0.0001113533
0.00011126219
0.00011120661
0.00011118728
0.00011120446
0.00011125799
0.00011134731
0.00011147144
0.00011162903
0.00011181839
0.00011203765
0.00011228448
0.00011255648
0.00011285107
0.00011316554
0.00011349715
0.00011384307
0.00011420067
0.00011456714
0.00011493993
0.00011531656
0.00011569469
0.00011607211
0.00011644692
0.00011681717
0.00011718126
0.00011753769
0.00011788515
0.00011822247
0.00011854877
0.00011886309
0.00011916478
0.00011945324
0.00011972801
0.00011998869
0.00012023512
0.000120467
0.00012068422
0.00012088673
0.00012107453
0.00012124763
0.00012139055
0.00012153528
0.00012164136
0.00011499242
0.00011482388
0.00011467668
0.00011453107
0.00011438706
0.00011424754
0.00011411255
0.000113985
0.00011386494
0.00011375521
0.00011365576
0.00011356932
0.00011349568
0.00011343738
0.00011339398
0.00011336775
0.00011335794
0.00011336649
0.00011339227
0.00011343682
0.00011349858
0.00011357862
0.0001136749
0.00011378799
0.00011391531
0.0001139783
0.00011387083
0.0001137804
0.00011370716
0.00011365394
0.0001136205
0.00011360889
0.00011361983
0.00011365264
0.00011370891
0.00011378698
0.00011388774
0.00011400887
0.00011415054
0.00011430969
0.00011448578
0.00011467514
0.00011487606
0.0001150852
0.00011529939
0.00011551518
0.00011572891
0.00011567451
0.00011548586
0.00011527254
0.00011503716
0.00011478274
0.00011451264
0.00011423065
0.0001139406
0.00011364664
0.00011335301
0.00011306399
0.00011278384
0.00011251688
0.00011226709
0.00011203843
0.00011183461
0.00011165903
0.00011151482
0.00011140469
0.00011133112
0.00011129595
0.00011130075
0.00011134656
0.00011143397
0.00011156305
0.00011173351
0.00011194428
0.00011219413
0.00011211024
0.00011183891
0.00011159453
0.00011138031
0.00011119872
0.00011105206
0.00011094204
0.00011086993
0.00011083652
0.00011084213
0.00011088662
0.00011096939
0.00011108941
0.00011124525
0.00011143509
0.0001116569
0.00011190821
0.00011218644
0.00011248882
0.00011281245
0.00011315438
0.00011351162
0.00011388133
0.00011426055
0.00011464657
0.00011503677
0.00011542869
0.00011582
0.0001162087
0.00011659279
0.00011697056
0.00011734049
0.00011770122
0.00011805154
0.00011839055
0.00011871728
0.00011903106
0.00011933129
0.00011961753
0.00011988937
0.00012014666
0.00012038911
0.00012061667
0.00012082929
0.00012102703
0.00012120993
0.00012136124
0.00012151563
0.00012163146
0.00011490685
0.0001147296
0.00011457371
0.00011441956
0.00011426723
0.0001141197
0.00011397713
0.0001138425
0.00011371595
0.00011360043
0.00011349598
0.00011340542
0.00011332862
0.0001132682
0.00011322379
0.00011319773
0.00011318932
0.00011320055
0.00011323031
0.00011328017
0.00011334856
0.00011343656
0.00011354207
0.00011366562
0.00011380456
0.00011384787
0.00011372779
0.00011362585
0.00011354239
0.00011348043
0.00011343992
0.00011342306
0.00011343071
0.00011346235
0.00011351965
0.00011360103
0.00011370745
0.00011383657
0.00011398857
0.00011416032
0.00011435119
0.00011455739
0.00011477701
0.0001150065
0.00011524244
0.00011548109
0.00011571846
0.00011572003
0.00011551521
0.00011528377
0.00011502859
0.00011475299
0.00011446065
0.00011415572
0.00011384238
0.00011352514
0.00011320859
0.00011289738
0.00011259609
0.00011230937
0.00011204152
0.00011179677
0.00011157908
0.00011139211
0.00011123915
0.00011112311
0.00011104659
0.00011101155
0.0001110196
0.00011107182
0.00011116879
0.00011131052
0.00011149664
0.00011172591
0.00011199695
0.00011192131
0.00011162038
0.00011134799
0.00011110759
0.00011090194
0.00011073351
0.00011060418
0.00011051532
0.00011046784
0.00011046208
0.0001104979
0.00011057467
0.00011069129
0.0001108462
0.00011103746
0.00011126288
0.00011151978
0.0001118054
0.00011211674
0.0001124507
0.00011280412
0.00011317379
0.00011355669
0.00011394967
0.00011434985
0.00011475447
0.00011516094
0.00011556681
0.00011597
0.00011636841
0.0001167603
0.00011714406
0.00011751832
0.00011788184
0.0001182337
0.00011857292
0.00011889883
0.00011921084
0.00011950851
0.00011979144
0.00012005952
0.00012031246
0.00012055025
0.00012077287
0.00012098042
0.00012117299
0.00012133254
0.00012149642
0.00012162179
0.00011481958
0.000114633
0.00011446777
0.00011430439
0.00011414304
0.00011398681
0.00011383592
0.00011369349
0.00011355975
0.00011343774
0.00011332762
0.0001132323
0.00011315175
0.00011308868
0.00011304279
0.0001130165
0.00011300917
0.00011302283
0.00011305644
0.00011311158
0.0001131867
0.00011328284
0.00011339792
0.00011353239
0.00011368354
0.00011370806
0.00011357449
0.00011346022
0.00011336579
0.00011329445
0.00011324631
0.00011322376
0.00011322783
0.00011325812
0.00011331642
0.00011340125
0.00011351361
0.0001136512
0.00011381416
0.00011399932
0.00011420595
0.00011443011
0.00011466973
0.000114921
0.00011518025
0.00011544342
0.00011570615
0.00011577508
0.00011555318
0.00011530249
0.0001150262
0.00011472794
0.00011441176
0.00011408217
0.00011374372
0.00011340133
0.00011305998
0.00011272467
0.00011240036
0.00011209205
0.00011180437
0.00011154185
0.00011130872
0.0001111089
0.00011094591
0.00011082283
0.00011074242
0.00011070675
0.00011071751
0.00011077581
0.00011088222
0.00011103671
0.00011123883
0.00011148717
0.00011178018
0.00011171988
0.00011138784
0.0001110861
0.00011081844
0.00011058782
0.00011039694
0.00011024784
0.00011014202
0.00011008045
0.00011006351
0.00011009105
0.0001101624
0.00011027635
0.00011043123
0.00011062492
0.00011085506
0.00011111875
0.00011141299
0.00011173456
0.00011208012
0.00011244626
0.00011282956
0.00011322678
0.00011363458
0.00011404991
0.00011446985
0.00011489166
0.0001153128
0.00011573109
0.00011614434
0.00011655076
0.0001169487
0.00011733676
0.00011771367
0.00011807851
0.0001184303
0.00011876836
0.00011909214
0.00011940118
0.00011969514
0.00011997389
0.00012023721
0.00012048509
0.00012071758
0.00012093479
0.00012113688
0.00012130449
0.00012147765
0.00012161235
0.0001147309
0.00011453433
0.00011435907
0.00011418574
0.00011401463
0.00011384891
0.00011368895
0.00011353794
0.00011339624
0.00011326701
0.00011315051
0.00011304975
0.00011296482
0.00011289851
0.00011285064
0.00011282367
0.00011281708
0.00011283293
0.00011287024
0.00011293062
0.00011301254
0.00011311705
0.00011324203
0.00011338791
0.00011355191
0.00011355875
0.00011341071
0.00011328321
0.00011317699
0.00011309552
0.00011303913
0.0001130104
0.0001130105
0.00011303923
0.00011309847
0.00011318685
0.00011330543
0.00011345195
0.00011362652
0.00011382593
0.00011404935
0.00011429269
0.00011455368
0.00011482828
0.00011511252
0.00011540201
0.00011569202
0.00011584098
0.00011560099
0.00011532982
0.00011503098
0.00011470845
0.00011436665
0.00011401051
0.000113645
0.00011327543
0.0001129072
0.00011254573
0.00011219638
0.0001118645
0.00011155509
0.000111273
0.00011102277
0.00011080857
0.00011063418
0.00011050287
0.00011041758
0.00011038049
0.00011039339
0.00011045743
0.0001105732
0.0001107406
0.00011095911
0.00011122717
0.00011154301
0.00011150572
0.00011114093
0.00011080842
0.00011051227
0.00011025571
0.00011004165
0.00010987227
0.00010974922
0.00010967352
0.00010964559
0.00010966527
0.00010973179
0.00010984387
0.00010999967
0.00011019689
0.00011043294
0.0001107047
0.00011100889
0.00011134204
0.00011170054
0.00011208073
0.00011247893
0.00011289168
0.00011331544
0.00011374695
0.00011418314
0.00011462113
0.00011505828
0.00011549228
0.00011592091
0.00011634229
0.00011675475
0.00011715687
0.00011754736
0.0001179253
0.00011828972
0.00011863995
0.00011897545
0.0001192958