/*--------------------------------*- C++ -*----------------------------------*\
| =========                 |                                                 |
| \\      /  F ield         | foam-extend: Open Source CFD                    |
|  \\    /   O peration     | Version:     4.1                                |
|   \\  /    A nd           | Web:         http://www.foam-extend.org         |
|    \\/     M anipulation  |                                                 |
\*---------------------------------------------------------------------------*/
FoamFile
{
    version     2.0;
    format      ascii;
    class       volScalarField;
    location    "0.25";
    object      rAU;
}
// * * * * * * * * * * * * * * * * * * * * * * * * * * * * * * * * * * * * * //

dimensions      [0 0 1 0 0 0 0];

internalField   nonuniform List<scalar> 
16796
(
3.9005034e-05
3.9010189e-05
3.9016217e-05
3.9017008e-05
3.9011209e-05
3.9001588e-05
3.8988355e-05
3.8972006e-05
3.8952737e-05
3.8931015e-05
3.890702e-05
3.8881221e-05
3.8853815e-05
3.8825293e-05
3.8795872e-05
3.8766061e-05
3.8736085e-05
3.870645e-05
3.8677368e-05
3.864932e-05
3.8622477e-05
3.8597272e-05
3.8573817e-05
3.8552477e-05
3.8533285e-05
3.8516522e-05
3.850213e-05
3.8490296e-05
3.8480863e-05
3.8473918e-05
3.8469202e-05
3.8466661e-05
3.8466081e-05
3.8466045e-05
3.8467146e-05
3.8469634e-05
3.847345e-05
3.8478211e-05
3.8483786e-05
3.8489723e-05
3.8495836e-05
3.8501641e-05
3.8506877e-05
3.8511142e-05
3.8514091e-05
3.8514734e-05
3.8511927e-05
3.8506873e-05
3.849947e-05
3.8489647e-05
3.8477363e-05
3.8462615e-05
3.8445437e-05
3.842592e-05
3.8404166e-05
3.8380333e-05
3.8354604e-05
3.8327193e-05
3.8298334e-05
3.8268299e-05
3.8237352e-05
3.8205786e-05
3.8173895e-05
3.8141978e-05
3.8110332e-05
3.8079244e-05
3.8049006e-05
3.8019876e-05
3.7992107e-05
3.7965932e-05
3.7941558e-05
3.7919167e-05
3.7898928e-05
3.788096e-05
3.7865368e-05
3.7852227e-05
3.784158e-05
3.7833439e-05
3.7827804e-05
3.7824623e-05
3.7823843e-05
3.7823843e-05
3.7825399e-05
3.7829242e-05
3.7835286e-05
3.7843395e-05
3.7853408e-05
3.7865141e-05
3.7878404e-05
3.789299e-05
3.7908705e-05
3.7925331e-05
3.7942662e-05
3.7960495e-05
3.7978631e-05
3.7996875e-05
3.8015043e-05
3.8032972e-05
3.805049e-05
3.8067452e-05
3.8083725e-05
3.8099186e-05
3.8113727e-05
3.8127266e-05
3.8139715e-05
3.8151013e-05
3.8161111e-05
3.8169971e-05
3.8177565e-05
3.8183893e-05
3.8188941e-05
3.8192721e-05
3.8195251e-05
3.8196558e-05
3.8195644e-05
3.8193528e-05
3.819037e-05
3.8186233e-05
3.8181188e-05
3.8175318e-05
3.8168749e-05
3.8161758e-05
3.815442e-05
3.8143689e-05
3.7830265e-05
3.7834863e-05
3.7842835e-05
3.7847845e-05
3.7843458e-05
3.7837325e-05
3.7829159e-05
3.7819055e-05
3.7806901e-05
3.7792988e-05
3.7777371e-05
3.7760466e-05
3.7742417e-05
3.77237e-05
3.7704497e-05
3.7685303e-05
3.7666304e-05
3.7647988e-05
3.763052e-05
3.7614353e-05
3.7599609e-05
3.7586687e-05
3.7575643e-05
3.7566805e-05
3.756015e-05
3.7555921e-05
3.7554005e-05
3.7554555e-05
3.7557366e-05
3.7562501e-05
3.7569118e-05
3.7574136e-05
3.7581294e-05
3.7589319e-05
3.7598817e-05
3.7609925e-05
3.7622474e-05
3.7635988e-05
3.7650297e-05
3.7664929e-05
3.7679728e-05
3.7694254e-05
3.7708326e-05
3.772164e-05
3.773396e-05
3.7744429e-05
3.7751965e-05
3.7756275e-05
3.7755271e-05
3.7751837e-05
3.7745971e-05
3.7737713e-05
3.7727144e-05
3.7714394e-05
3.7699609e-05
3.7682979e-05
3.766472e-05
3.7645069e-05
3.7624284e-05
3.7602649e-05
3.7580442e-05
3.7557958e-05
3.7535494e-05
3.7513345e-05
3.7491801e-05
3.7471137e-05
3.7451632e-05
3.7433525e-05
3.7417051e-05
3.740242e-05
3.7389818e-05
3.7379402e-05
3.7371317e-05
3.7365657e-05
3.7362505e-05
3.7361909e-05
3.736389e-05
3.7368438e-05
3.7375532e-05
3.7381035e-05
3.7388204e-05
3.7396306e-05
3.7406043e-05
3.741805e-05
3.7432207e-05
3.7448393e-05
3.746647e-05
3.7486288e-05
3.7507683e-05
3.7530479e-05
3.7554507e-05
3.757957e-05
3.7605484e-05
3.7632063e-05
3.7659121e-05
3.7686477e-05
3.7713952e-05
3.7741392e-05
3.7768626e-05
3.7795511e-05
3.7821911e-05
3.7847701e-05
3.7872766e-05
3.7897017e-05
3.7920356e-05
3.7942712e-05
3.7964025e-05
3.7984245e-05
3.8003329e-05
3.8021262e-05
3.8038017e-05
3.8053591e-05
3.8067986e-05
3.8081213e-05
3.809226e-05
3.8102113e-05
3.8110909e-05
3.8118695e-05
3.8125521e-05
3.8130688e-05
3.8134342e-05
3.8137595e-05
3.8140415e-05
3.8141039e-05
3.7709493e-05
3.7710523e-05
3.7713657e-05
3.7709503e-05
3.769688e-05
3.7682866e-05
3.7667558e-05
3.7651355e-05
3.7634333e-05
3.7616884e-05
3.75991e-05
3.7581392e-05
3.7563875e-05
3.7546973e-05
3.7530805e-05
3.7515789e-05
3.7502024e-05
3.7489899e-05
3.7479475e-05
3.7471092e-05
3.7464751e-05
3.746073e-05
3.7458957e-05
3.7459632e-05
3.7462606e-05
3.7467995e-05
3.7475566e-05
3.7485354e-05
3.7497044e-05
3.7505506e-05
3.7513846e-05
3.752039e-05
3.7528877e-05
3.753905e-05
3.7550895e-05
3.7564059e-05
3.7578457e-05
3.7593678e-05
3.7609598e-05
3.7625777e-05
3.7642074e-05
3.7658052e-05
3.7673518e-05
3.768815e-05
3.7701686e-05
3.7713875e-05
3.7724485e-05
3.7731989e-05
3.7728543e-05
3.7721618e-05
3.7712302e-05
3.7700711e-05
3.7686995e-05
3.7671348e-05
3.7653969e-05
3.7635096e-05
3.7614983e-05
3.7593899e-05
3.7572122e-05
3.754995e-05
3.7527663e-05
3.7505555e-05
3.7483913e-05
3.7463015e-05
3.7443127e-05
3.7424498e-05
3.7407373e-05
3.7391956e-05
3.7378444e-05
3.7367005e-05
3.7357783e-05
3.7350892e-05
3.7346432e-05
3.7344457e-05
3.7345004e-05
3.7348083e-05
3.7353676e-05
3.7361735e-05
3.7367567e-05
3.7368994e-05
3.7372068e-05
3.7377621e-05
3.7385612e-05
3.7395977e-05
3.7408627e-05
3.7423455e-05
3.7440338e-05
3.7459131e-05
3.7479677e-05
3.7501803e-05
3.7525339e-05
3.7550088e-05
3.7575863e-05
3.7602469e-05
3.7629716e-05
3.7657413e-05
3.7685371e-05
3.7713426e-05
3.7741395e-05
3.7769123e-05
3.7796462e-05
3.7823275e-05
3.7849434e-05
3.7874838e-05
3.7899378e-05
3.7922971e-05
3.7945545e-05
3.7967039e-05
3.7987404e-05
3.8006613e-05
3.802463e-05
3.8041446e-05
3.8057056e-05
3.8071464e-05
3.808468e-05
3.8096733e-05
3.8107637e-05
3.8117424e-05
3.8126125e-05
3.8133007e-05
3.8138149e-05
3.8142524e-05
3.8145028e-05
3.8145059e-05
3.7698872e-05
3.7701525e-05
3.7701472e-05
3.7688941e-05
3.7673129e-05
3.7656021e-05
3.763781e-05
3.7619001e-05
3.7599756e-05
3.7580529e-05
3.7561456e-05
3.7542975e-05
3.7525208e-05
3.7508577e-05
3.7493182e-05
3.7479416e-05
3.7467341e-05
3.7457305e-05
3.7449318e-05
3.7443667e-05
3.7440298e-05
3.743943e-05
3.7440936e-05
3.744496e-05
3.7451299e-05
3.746002e-05
3.7470841e-05
3.7483754e-05
3.749174e-05
3.7494724e-05
3.7498367e-05
3.7504133e-05
3.7511964e-05
3.7521648e-05
3.7533203e-05
3.7546306e-05
3.75609e-05
3.7576589e-05
3.7593256e-05
3.7610457e-05
3.762804e-05
3.7645546e-05
3.7662758e-05
3.7679318e-05
3.769493e-05
3.7709304e-05
3.7722172e-05
3.7733304e-05
3.773092e-05
3.7721592e-05
3.7709832e-05
3.76958e-05
3.7679687e-05
3.7661726e-05
3.7642154e-05
3.7621242e-05
3.7599274e-05
3.7576547e-05
3.7553359e-05
3.7530028e-05
3.7506847e-05
3.7484121e-05
3.7462141e-05
3.7441187e-05
3.7421522e-05
3.7403389e-05
3.7387025e-05
3.7372621e-05
3.736036e-05
3.7350392e-05
3.7342844e-05
3.7337806e-05
3.7335361e-05
3.7335534e-05
3.7338343e-05
3.7343769e-05
3.7351771e-05
3.7361937e-05
3.7360394e-05
3.7358637e-05
3.7359464e-05
3.736288e-05
3.7368866e-05
3.7377377e-05
3.7388337e-05
3.7401648e-05
3.7417194e-05
3.7434835e-05
3.7454417e-05
3.7475768e-05
3.7498717e-05
3.7523063e-05
3.7548614e-05
3.7575169e-05
3.7602527e-05
3.7630489e-05
3.7658857e-05
3.7687451e-05
3.7716081e-05
3.7744576e-05
3.7772778e-05
3.7800535e-05
3.7827708e-05
3.7854184e-05
3.7879842e-05
3.7904588e-05
3.792834e-05
3.7951026e-05
3.7972587e-05
3.7992988e-05
3.8012185e-05
3.8030161e-05
3.8046904e-05
3.8062412e-05
3.8076688e-05
3.8089757e-05
3.8101625e-05
3.8112316e-05
3.812185e-05
3.813024e-05
3.8137467e-05
3.8143501e-05
3.8147218e-05
3.8147404e-05
3.7701058e-05
3.7706285e-05
3.7699203e-05
3.7683247e-05
3.7665547e-05
3.7646666e-05
3.7626806e-05
3.7606483e-05
3.7585887e-05
3.75655e-05
3.7545488e-05
3.7526307e-05
3.7508094e-05
3.7491276e-05
3.7475957e-05
3.7462522e-05
3.7451026e-05
3.7441803e-05
3.7434848e-05
3.7430432e-05
3.742848e-05
3.7429192e-05
3.7432418e-05
3.743828e-05
3.7446548e-05
3.7457265e-05
3.7470121e-05
3.7480714e-05
3.7480257e-05
3.7480243e-05
3.7482447e-05
3.7487e-05
3.7493873e-05
3.7502877e-05
3.7514052e-05
3.752708e-05
3.7541912e-05
3.7558152e-05
3.7575676e-05
3.759403e-05
3.7613043e-05
3.7632237e-05
3.7651367e-05
3.7670047e-05
3.7687945e-05
3.7704733e-05
3.7720102e-05
3.7733777e-05
3.7734134e-05
3.7722508e-05
3.7708393e-05
3.7691987e-05
3.7673521e-05
3.7653263e-05
3.7631485e-05
3.7608491e-05
3.7584596e-05
3.7560122e-05
3.7535392e-05
3.7510744e-05
3.7486489e-05
3.7462944e-05
3.744041e-05
3.7419172e-05
3.7399499e-05
3.7381631e-05
3.7365801e-05
3.7352193e-05
3.7340979e-05
3.7332298e-05
3.7326258e-05
3.7322934e-05
3.7322386e-05
3.7324619e-05
3.7329626e-05
3.7337364e-05
3.7347766e-05
3.7356954e-05
3.7350239e-05
3.7346148e-05
3.7344746e-05
3.7346057e-05
3.7350078e-05
3.7356775e-05
3.7366088e-05
3.7377931e-05
3.7392194e-05
3.7408743e-05
3.7427426e-05
3.744807e-05
3.7470503e-05
3.7494519e-05
3.7519919e-05
3.7546494e-05
3.7574035e-05
3.7602332e-05
3.7631173e-05
3.766037e-05
3.7689717e-05
3.7719034e-05
3.7748146e-05
3.7776892e-05
3.7805119e-05
3.7832702e-05
3.785951e-05
3.7885438e-05
3.7910392e-05
3.7934293e-05
3.795707e-05
3.7978683e-05
3.7999078e-05
3.8018233e-05
3.8036129e-05
3.8052758e-05
3.806812e-05
3.8082233e-05
3.80951e-05
3.8106739e-05
3.8117165e-05
3.8126381e-05
3.8134362e-05
3.8141079e-05
3.8146465e-05
3.8147665e-05
3.7705444e-05
3.7711823e-05
3.769742e-05
3.7679356e-05
3.765971e-05
3.7639021e-05
3.7617506e-05
3.7595688e-05
3.757377e-05
3.7552246e-05
3.7531291e-05
3.7511372e-05
3.7492631e-05
3.7475503e-05
3.7460093e-05
3.7446787e-05
3.7435642e-05
3.7426986e-05
3.7420813e-05
3.7417383e-05
3.7416616e-05
3.7418696e-05
3.7423462e-05
3.7431015e-05
3.7441107e-05
3.7453755e-05
3.7468622e-05
3.7470609e-05
3.7466414e-05
3.7464721e-05
3.7465463e-05
3.74688e-05
3.7474728e-05
3.748308e-05
3.7493909e-05
3.7506911e-05
3.7522043e-05
3.7538908e-05
3.7557377e-05
3.7576983e-05
3.7597536e-05
3.7618531e-05
3.7639693e-05
3.76606e-05
3.7680883e-05
3.7700176e-05
3.7718126e-05
3.773442e-05
3.7737857e-05
3.7723849e-05
3.7707285e-05
3.7688407e-05
3.766748e-05
3.7644813e-05
3.7620713e-05
3.7595518e-05
3.7569574e-05
3.754323e-05
3.7516836e-05
3.7490751e-05
3.7465304e-05
3.7440826e-05
3.7417631e-05
3.739601e-05
3.7376235e-05
3.7358547e-05
3.7343177e-05
3.7330302e-05
3.7320083e-05
3.7312646e-05
3.7308086e-05
3.7306458e-05
3.7307801e-05
3.73121e-05
3.731932e-05
3.7329395e-05
3.7342229e-05
3.7347707e-05
3.7338526e-05
3.7332064e-05
3.7328408e-05
3.7327603e-05
3.7329662e-05
3.7334567e-05
3.7342269e-05
3.735269e-05
3.7365726e-05
3.7381248e-05
3.7399103e-05
3.7419117e-05
3.7441114e-05
3.7464882e-05
3.7490215e-05
3.7516894e-05
3.75447e-05
3.757341e-05
3.7602802e-05
3.7632672e-05
3.7662804e-05
3.7693002e-05
3.7723081e-05
3.7752865e-05
3.7782189e-05
3.7810917e-05
3.7838905e-05
3.7866038e-05
3.7892213e-05
3.7917339e-05
3.794134e-05
3.7964165e-05
3.7985754e-05
3.8006078e-05
3.8025113e-05
3.8042846e-05
3.8059272e-05
3.8074405e-05
3.8088245e-05
3.8100808e-05
3.8112104e-05
3.8122138e-05
3.8130893e-05
3.8138351e-05
3.8144443e-05
3.8146457e-05
3.7710514e-05
3.7714896e-05
3.7696342e-05
3.7676171e-05
3.7654554e-05
3.7632017e-05
3.7608784e-05
3.7585384e-05
3.7562032e-05
3.7539237e-05
3.7517189e-05
3.7496367e-05
3.7476926e-05
3.7459308e-05
3.7443625e-05
3.7430271e-05
3.7419302e-05
3.7411049e-05
3.7405502e-05
3.7402922e-05
3.7403218e-05
3.7406568e-05
3.7412797e-05
3.7421991e-05
3.7433882e-05
3.7448464e-05
3.7463304e-05
3.7456842e-05
3.7450684e-05
3.7447237e-05
3.7446468e-05
3.7448568e-05
3.745356e-05
3.7461296e-05
3.7471847e-05
3.7484917e-05
3.7500464e-05
3.7518089e-05
3.7537655e-05
3.7558674e-05
3.7580936e-05
3.7603909e-05
3.7627282e-05
3.7650598e-05
3.7673447e-05
3.7695419e-05
3.7716117e-05
3.7735182e-05
3.7742133e-05
3.7725681e-05
3.7706589e-05
3.7685141e-05
3.7661643e-05
3.7636445e-05
3.7609892e-05
3.7582358e-05
3.755422e-05
3.7525862e-05
3.7497657e-05
3.7469989e-05
3.7443208e-05
3.741766e-05
3.7393671e-05
3.7371544e-05
3.7351553e-05
3.7333943e-05
3.731894e-05
3.7306718e-05
3.7297428e-05
3.7291186e-05
3.7288068e-05
3.7288114e-05
3.7291343e-05
3.7297714e-05
3.7307172e-05
3.7319622e-05
3.7334941e-05
3.7336749e-05
3.7325067e-05
3.7316213e-05
3.7310297e-05
3.7307382e-05
3.7307496e-05
3.7310636e-05
3.7316763e-05
3.7325809e-05
3.7337675e-05
3.7352233e-05
3.7369332e-05
3.7388794e-05
3.7410437e-05
3.7434043e-05
3.7459396e-05
3.7486267e-05
3.7514424e-05
3.7543633e-05
3.7573658e-05
3.7604282e-05
3.7635273e-05
3.7666424e-05
3.7697535e-05
3.7728417e-05
3.7758894e-05
3.7788817e-05
3.781803e-05
3.784641e-05
3.7873841e-05
3.7900227e-05
3.792548e-05
3.7949544e-05
3.7972352e-05
3.7993867e-05
3.8014062e-05
3.8032919e-05
3.8050427e-05
3.8066599e-05
3.8081431e-05
3.8094936e-05
3.8107123e-05
3.8117996e-05
3.8127541e-05
3.8135753e-05
3.8142576e-05
3.8145408e-05
3.7716225e-05
3.7716431e-05
3.7695474e-05
3.7672988e-05
3.7649186e-05
3.7624594e-05
3.7599449e-05
3.7574292e-05
3.754935e-05
3.7525144e-05
3.7501876e-05
3.7480035e-05
3.7459788e-05
3.7441585e-05
3.7425544e-05
3.7412066e-05
3.7401212e-05
3.7393315e-05
3.7388366e-05
3.7386623e-05
3.7387991e-05
3.739264e-05
3.7400382e-05
3.7411289e-05
3.7425072e-05
3.7441701e-05
3.7452523e-05
3.7441767e-05
3.7433588e-05
3.7428343e-05
3.7426035e-05
3.7426886e-05
3.7430946e-05
3.743809e-05
3.7448404e-05
3.7461602e-05
3.7477645e-05
3.7496129e-05
3.7516904e-05
3.7539467e-05
3.7563578e-05
3.7588676e-05
3.7614414e-05
3.7640291e-05
3.7665856e-05
3.7690652e-05
3.7714235e-05
3.77362e-05
3.7747124e-05
3.7728118e-05
3.7706378e-05
3.7682229e-05
3.7656022e-05
3.7628148e-05
3.7598992e-05
3.7568967e-05
3.7538486e-05
3.7507963e-05
3.7477801e-05
3.7448408e-05
3.7420156e-05
3.739341e-05
3.7368509e-05
3.7345765e-05
3.7325461e-05
3.7307841e-05
3.7293133e-05
3.7281502e-05
3.7273095e-05
3.7268012e-05
3.7266318e-05
3.7268032e-05
3.7273153e-05
3.7281619e-05
3.7293347e-05
3.7308216e-05
3.7326076e-05
3.732424e-05
3.7309995e-05
3.7298704e-05
3.7290497e-05
3.7285456e-05
3.7283626e-05
3.7285017e-05
3.72896e-05
3.7297314e-05
3.7308064e-05
3.7321723e-05
3.7338138e-05
3.7357126e-05
3.7378501e-05
3.7402033e-05
3.7427496e-05
3.745465e-05
3.7483249e-05
3.7513045e-05
3.7543787e-05
3.7575244e-05
3.760717e-05
3.7639343e-05
3.7671548e-05
3.7703585e-05
3.7735264e-05
3.7766424e-05
3.7796898e-05
3.7826553e-05
3.7855264e-05
3.7882925e-05
3.7909442e-05
3.7934749e-05
3.7958777e-05
3.7981482e-05
3.8002831e-05
3.8022804e-05
3.8041387e-05
3.8058592e-05
3.8074412e-05
3.8088861e-05
3.8101949e-05
3.8113684e-05
3.8124061e-05
3.8133085e-05
3.8140718e-05
3.814443e-05
3.7722594e-05
3.7718514e-05
3.7695082e-05
3.7670189e-05
3.7644082e-05
3.76173e-05
3.7590096e-05
3.7563024e-05
3.7536327e-05
3.7510541e-05
3.7485883e-05
3.7462856e-05
3.744164e-05
3.7422696e-05
3.7406153e-05
3.7392418e-05
3.7381558e-05
3.7373913e-05
3.7369474e-05
3.7368498e-05
3.7370888e-05
3.7376806e-05
3.7386055e-05
3.7398691e-05
3.7414407e-05
3.7433147e-05
3.7438046e-05
3.7424951e-05
3.7414638e-05
3.7407505e-05
3.7403594e-05
3.7403161e-05
3.7406283e-05
3.7412859e-05
3.7422989e-05
3.7436397e-05
3.7453044e-05
3.7472519e-05
3.7494658e-05
3.7518935e-05
3.7545082e-05
3.7572501e-05
3.7600805e-05
3.762945e-05
3.7657935e-05
3.7685753e-05
3.7712411e-05
3.7737453e-05
3.7752885e-05
3.7731221e-05
3.7706709e-05
3.7679722e-05
3.7650657e-05
3.7619949e-05
3.7588028e-05
3.7555345e-05
3.7522352e-05
3.7489496e-05
3.7457212e-05
3.7425937e-05
3.7396062e-05
3.7367974e-05
3.7342027e-05
3.7318544e-05
3.7297815e-05
3.728009e-05
3.7265593e-05
3.7254489e-05
3.7246913e-05
3.7242956e-05
3.7242667e-05
3.7246049e-05
3.7253078e-05
3.7263668e-05
3.7277713e-05
3.7295062e-05
3.7315537e-05
3.7310095e-05
3.7293229e-05
3.7279457e-05
3.7268931e-05
3.7261752e-05
3.7257981e-05
3.7257639e-05
3.7260709e-05
3.7267134e-05
3.7276823e-05
3.728965e-05
3.7305457e-05
3.7324056e-05
3.7345252e-05
3.7368804e-05
3.7394476e-05
3.7422012e-05
3.7451152e-05
3.7481633e-05
3.7513188e-05
3.754557e-05
3.7578518e-05
3.7611794e-05
3.7645171e-05
3.7678432e-05
3.7711376e-05
3.7743831e-05
3.7775619e-05
3.7806594e-05
3.7836625e-05
3.7865597e-05
3.7893407e-05
3.7919986e-05
3.7945254e-05
3.7969166e-05
3.7991684e-05
3.8012784e-05
3.8032451e-05
3.8050692e-05
3.8067502e-05
3.8082895e-05
3.8096883e-05
3.8109476e-05
3.812068e-05
3.8130509e-05
3.8138951e-05
3.8143516e-05
3.77297e-05
3.7721017e-05
3.7694909e-05
3.766741e-05
3.76388e-05
3.7609632e-05
3.7580179e-05
3.7551012e-05
3.752239e-05
3.7494865e-05
3.7468667e-05
3.7444316e-05
3.7422002e-05
3.74022e-05
3.7385049e-05
3.7370965e-05
3.7360025e-05
3.7352571e-05
3.7348602e-05
3.7348373e-05
3.7351788e-05
3.7359002e-05
3.7369808e-05
3.7384249e-05
3.7401998e-05
3.7422976e-05
3.74222e-05
3.7406648e-05
3.7394097e-05
3.7384992e-05
3.7379413e-05
3.7377652e-05
3.7379818e-05
3.7385834e-05
3.7395816e-05
3.7409497e-05
3.7426838e-05
3.744742e-05
3.7471061e-05
3.7497211e-05
3.7525569e-05
3.7555497e-05
3.7586565e-05
3.7618178e-05
3.7649783e-05
3.7680821e-05
3.7710743e-05
3.7739039e-05
3.7759559e-05
3.7735098e-05
3.7707662e-05
3.7677672e-05
3.7645577e-05
3.7611857e-05
3.7576989e-05
3.7541466e-05
3.750578e-05
3.7470415e-05
3.7435839e-05
3.7402515e-05
3.7370863e-05
3.7341288e-05
3.7314162e-05
3.728982e-05
3.7268561e-05
3.7250639e-05
3.7236279e-05
3.7225641e-05
3.7218855e-05
3.7215998e-05
3.7217106e-05
3.7222162e-05
3.7231123e-05
3.7243878e-05
3.7260293e-05
3.7280191e-05
3.7303361e-05
3.7294339e-05
3.7274775e-05
3.7258463e-05
3.7245577e-05
3.7236235e-05
3.7230515e-05
3.7228452e-05
3.7230034e-05
3.7235212e-05
3.7243895e-05
3.7255956e-05
3.7271232e-05
3.7289528e-05
3.7310638e-05
3.733431e-05
3.7360291e-05
3.7388311e-05
3.7418095e-05
3.744936e-05
3.7481825e-05
3.7515224e-05
3.754928e-05
3.758374e-05
3.761836e-05
3.7652912e-05
3.768718e-05
3.772098e-05
3.7754124e-05
3.7786456e-05
3.7817836e-05
3.7848142e-05
3.7877263e-05
3.7905124e-05
3.7931643e-05
3.7956767e-05
3.7980457e-05
3.8002686e-05
3.8023437e-05
3.8042718e-05
3.8060523e-05
3.8076868e-05
3.8091768e-05
3.8105239e-05
3.8117291e-05
3.8127952e-05
3.8137222e-05
3.8142641e-05
3.773765e-05
3.7724087e-05
3.7695181e-05
3.7664932e-05
3.7633657e-05
3.7601932e-05
3.7570052e-05
3.7538607e-05
3.7507876e-05
3.7478428e-05
3.7450512e-05
3.7424663e-05
3.7401087e-05
3.7380271e-05
3.7362369e-05
3.7347808e-05
3.7336673e-05
3.7329316e-05
3.7325739e-05
3.7326202e-05
3.7330608e-05
3.7339109e-05
3.7351489e-05
3.7367778e-05
3.7387632e-05
3.7410948e-05
3.7404725e-05
3.7386552e-05
3.7371621e-05
3.7360425e-05
3.7353087e-05
3.7349939e-05
3.7351123e-05
3.7356586e-05
3.7366462e-05
3.7380491e-05
3.7398634e-05
3.7420462e-05
3.7445772e-05
3.7473984e-05
3.7504763e-05
3.7537425e-05
3.757149e-05
3.7606311e-05
3.7641277e-05
3.7675771e-05
3.7709183e-05
3.7740947e-05
3.7767207e-05
3.7739798e-05
3.7709272e-05
3.7676101e-05
3.7640786e-05
3.7603859e-05
3.7565845e-05
3.7527283e-05
3.7488707e-05
3.7450641e-05
3.7413585e-05
3.7378036e-05
3.7344438e-05
3.731322e-05
3.7284772e-05
3.7259444e-05
3.7237544e-05
3.721933e-05
3.720503e-05
3.7194801e-05
3.7188763e-05
3.7186987e-05
3.7189489e-05
3.7196237e-05
3.7207164e-05
3.7222136e-05
3.7240991e-05
3.7263522e-05
3.7289486e-05
3.7276915e-05
3.7254571e-05
3.7235656e-05
3.7220364e-05
3.7208833e-05
3.7201155e-05
3.7197378e-05
3.7197499e-05
3.7201471e-05
3.7209205e-05
3.722057e-05
3.7235398e-05
3.7253483e-05
3.7274607e-05
3.7298504e-05
3.7324905e-05
3.7353522e-05
3.7384061e-05
3.7416223e-05
3.7449704e-05
3.7484225e-05
3.7519487e-05
3.7555223e-05
3.7591172e-05
3.7627093e-05
3.7662755e-05
3.7697964e-05
3.7732519e-05
3.7766257e-05
3.7799029e-05
3.7830703e-05
3.7861164e-05
3.7890332e-05
3.7918118e-05
3.7944467e-05
3.7969337e-05
3.79927e-05
3.8014536e-05
3.8034854e-05
3.805365e-05
3.8070941e-05
3.8086746e-05
3.8101086e-05
3.811398e-05
3.8125463e-05
3.8135551e-05
3.8141801e-05
3.7746521e-05
3.772763e-05
3.7695713e-05
3.766251e-05
3.7628366e-05
3.7593881e-05
3.7559376e-05
3.7525462e-05
3.7492436e-05
3.7460889e-05
3.7431086e-05
3.7403578e-05
3.737859e-05
3.7356623e-05
3.7337845e-05
3.7322696e-05
3.7311272e-05
3.7303937e-05
3.7300698e-05
3.7301824e-05
3.7307216e-05
3.7317025e-05
3.733103e-05
3.7349249e-05
3.7371319e-05
3.7397114e-05
3.738573e-05
3.7364769e-05
3.734731e-05
3.7333895e-05
3.7324697e-05
3.7320089e-05
3.7320248e-05
3.7325151e-05
3.733495e-05
3.7349393e-05
3.7368438e-05
3.7391646e-05
3.7418789e-05
3.7449256e-05
3.748267e-05
3.7518299e-05
3.7555607e-05
3.7593888e-05
3.7632468e-05
3.7670666e-05
3.770781e-05
3.7743271e-05
3.7775429e-05
3.7745443e-05
3.7711632e-05
3.7675075e-05
3.7636327e-05
3.7595976e-05
3.7554597e-05
3.7512779e-05
3.74711e-05
3.7430125e-05
3.7390392e-05
3.7352429e-05
3.731671e-05
3.7283689e-05
3.7253773e-05
3.7227328e-05
3.7204673e-05
3.7186073e-05
3.7171758e-05
3.7161881e-05
3.7156558e-05
3.7155845e-05
3.7159747e-05
3.716821e-05
3.7181147e-05
3.7198397e-05
3.7219769e-05
3.7245026e-05
3.7273892e-05
3.7257791e-05
3.7232573e-05
3.7210979e-05
3.7193225e-05
3.717947e-05
3.716982e-05
3.7164334e-05
3.7163016e-05
3.7165824e-05
3.7172667e-05
3.7183409e-05
3.7197873e-05
3.7215843e-05
3.7237086e-05
3.7261319e-05
3.7288254e-05
3.7317586e-05
3.7348998e-05
3.738217e-05
3.741678e-05
3.7452527e-05
3.7489096e-05
3.7526199e-05
3.7563562e-05
3.7600927e-05
3.7638052e-05
3.7674728e-05
3.7710747e-05
3.7745933e-05
3.7780131e-05
3.7813203e-05
3.7845028e-05
3.7875519e-05
3.7904585e-05
3.793217e-05
3.7958226e-05
3.7982727e-05
3.8005652e-05
3.8027011e-05
3.80468e-05
3.8065041e-05
3.8081755e-05
3.809697e-05
3.811071e-05
3.8123018e-05
3.8133922e-05
3.8140987e-05
3.7756445e-05
3.7731766e-05
3.769667e-05
3.7660327e-05
3.7623117e-05
3.7585671e-05
3.7548336e-05
3.7511747e-05
3.7476224e-05
3.7442378e-05
3.7410495e-05
3.7381146e-05
3.7354571e-05
3.733129e-05
3.7311487e-05
3.7295615e-05
3.7283787e-05
3.7276376e-05
3.7273401e-05
3.7275136e-05
3.7281489e-05
3.7292611e-05
3.7308274e-05
3.7328488e-05
3.7352873e-05
3.7381279e-05
3.7365029e-05
3.7341075e-05
3.7320903e-05
3.7305113e-05
3.729393e-05
3.7287773e-05
3.7286858e-05
3.7291191e-05
3.7300943e-05
3.7315872e-05
3.7335933e-05
3.7360672e-05
3.7389836e-05
3.7422777e-05
3.7459069e-05
3.7497929e-05
3.7538758e-05
3.7580785e-05
3.7623267e-05
3.7665454e-05
3.7706604e-05
3.774602e-05
3.7783024e-05
3.7752092e-05
3.7714783e-05
3.7674614e-05
3.76322e-05
3.7588187e-05
3.7543204e-05
3.7497894e-05
3.7452882e-05
3.7408774e-05
3.7366151e-05
3.7325574e-05
3.7287547e-05
3.7252549e-05
3.722101e-05
3.7193313e-05
3.7169787e-05
3.7150705e-05
3.71363e-05
3.7126723e-05
3.7122083e-05
3.7122426e-05
3.712774e-05
3.7137954e-05
3.7152955e-05
3.7172558e-05
3.7196542e-05
3.7224636e-05
3.7256528e-05
3.7236912e-05
3.7208716e-05
3.718436e-05
3.7164083e-05
3.7148064e-05
3.7136423e-05
3.712923e-05
3.7126497e-05
3.7128183e-05
3.7134195e-05
3.714439e-05
3.7158582e-05
3.717654e-05
3.7198015e-05
3.7222705e-05
3.7250301e-05
3.7280475e-05
3.7312887e-05
3.7347196e-05
3.7383057e-05
3.7420148e-05
3.7458133e-05
3.7496708e-05
3.7535579e-05
3.7574475e-05
3.7613138e-05
3.765135e-05
3.7688891e-05
3.7725577e-05
3.7761243e-05
3.7795748e-05
3.7828963e-05
3.7860799e-05
3.7891161e-05
3.791999e-05
3.7947239e-05
3.7972878e-05
3.7996889e-05
3.8019283e-05
3.8040059e-05
3.8059241e-05
3.8076856e-05
3.8092935e-05
3.8107511e-05
3.8120634e-05
3.8132339e-05
3.81402e-05
3.7767518e-05
3.7736441e-05
3.7697935e-05
3.7658226e-05
3.7617727e-05
3.7577099e-05
3.7536718e-05
3.7497242e-05
3.7459017e-05
3.7422674e-05
3.7388522e-05
3.735715e-05
3.7328818e-05
3.7304065e-05
3.7283091e-05
3.7266369e-05
3.7254025e-05
3.7246448e-05
3.724367e-05
3.7245975e-05
3.7253277e-05
3.726573e-05
3.7283106e-05
3.7305403e-05
3.7332228e-05
3.7363408e-05
3.7342645e-05
3.7315478e-05
3.7292396e-05
3.7274058e-05
3.7260746e-05
3.7252933e-05
3.7250875e-05
3.7254613e-05
3.726434e-05
3.7279822e-05
3.7301013e-05
3.7327439e-05
3.7358819e-05
3.7394463e-05
3.7433895e-05
3.7476269e-05
3.752092e-05
3.7567002e-05
3.7613699e-05
3.7660182e-05
3.7705636e-05
3.774929e-05
3.7790399e-05
3.7759874e-05
3.7718825e-05
3.767479e-05
3.762845e-05
3.7580512e-05
3.7531666e-05
3.7482606e-05
3.743401e-05
3.7386532e-05
3.734079e-05
3.7297385e-05
3.7256852e-05
3.7219698e-05
3.7186375e-05
3.7157283e-05
3.7132766e-05
3.7113105e-05
3.7098535e-05
3.7089206e-05
3.7085221e-05
3.7086615e-05
3.7093361e-05
3.7105367e-05
3.7122497e-05
3.7144537e-05
3.7171236e-05
3.7202288e-05
3.7237347e-05
3.7214216e-05
3.7182927e-05
3.7155715e-05
3.7132845e-05
3.7114514e-05
3.710086e-05
3.7091961e-05
3.7087834e-05
3.7088441e-05
3.7093685e-05
3.7103414e-05
3.7117431e-05
3.7135487e-05
3.7157314e-05
3.7182589e-05
3.7210978e-05
3.7242129e-05
3.7275677e-05
3.7311256e-05
3.7348496e-05
3.7387052e-05
3.7426569e-05
3.746672e-05
3.7507196e-05
3.7547708e-05
3.7587987e-05
3.7627802e-05
3.7666921e-05
3.7705155e-05
3.7742331e-05
3.77783e-05
3.7812931e-05
3.7846131e-05
3.7877804e-05
3.7907887e-05
3.7936333e-05
3.7963114e-05
3.7988212e-05
3.8011641e-05
3.8033401e-05
3.8053521e-05
3.8072032e-05
3.8088971e-05
3.8104376e-05
3.8118304e-05
3.8130797e-05
3.8139435e-05
3.7779887e-05
3.7741752e-05
3.7699621e-05
3.7656322e-05
3.7612305e-05
3.7568264e-05
3.7524605e-05
3.7482015e-05
3.7440864e-05
3.7401807e-05
3.7365176e-05
3.7331581e-05
3.7301303e-05
3.72749e-05
3.7252594e-05
3.7234875e-05
3.7221889e-05
3.7214041e-05
3.7211379e-05
3.7214199e-05
3.7222427e-05
3.723622e-05
3.7255352e-05
3.7279815e-05
3.7309201e-05
3.7343317e-05
3.7318433e-05
3.7287798e-05
3.7261572e-05
3.7240483e-05
3.7224878e-05
3.7215282e-05
3.7212003e-05
3.7215115e-05
3.7224837e-05
3.7240945e-05
3.7263387e-05
3.7291672e-05
3.7325485e-05
3.736409e-05
3.7406951e-05
3.7453156e-05
3.7501962e-05
3.7552444e-05
3.7603703e-05
3.7654826e-05
3.7704915e-05
3.7753123e-05
3.7798628e-05
3.7768875e-05
3.7723817e-05
3.7675638e-05
3.7625086e-05
3.7572938e-05
3.7519943e-05
3.7466856e-05
3.7414408e-05
3.73633e-05
3.7314196e-05
3.7267735e-05
3.7224486e-05
3.7184984e-05
3.7149707e-05
3.7119074e-05
3.7093442e-05
3.7073102e-05
3.7058293e-05
3.7049164e-05
3.7045812e-05
3.704826e-05
3.7056467e-05
3.7070318e-05
3.7089654e-05
3.7114231e-05
3.7143765e-05
3.7177915e-05
3.7216295e-05
3.7189638e-05
3.7155129e-05
3.712496e-05
3.709942e-05
3.7078725e-05
3.7063029e-05
3.7052421e-05
3.7046923e-05
3.7046497e-05
3.7051039e-05
3.706039e-05
3.7074334e-05
3.7092607e-05
3.7114917e-05
3.7140915e-05
3.7170242e-05
3.7202517e-05
3.7237349e-05
3.7274341e-05
3.73131e-05
3.7353254e-05
3.7394426e-05
3.7436268e-05
3.7478454e-05
3.7520677e-05
3.7562655e-05
3.7604145e-05
3.7644906e-05
3.7684739e-05
3.7723467e-05
3.7760935e-05
3.7797009e-05
3.7831593e-05
3.7864588e-05
3.7895932e-05
3.7925578e-05
3.7953499e-05
3.7979679e-05
3.8004134e-05
3.8026869e-05
3.8047916e-05
3.8067311e-05
3.8085097e-05
3.8101317e-05
3.8116036e-05
3.8129299e-05
3.8138692e-05
3.7792886e-05
3.7747679e-05
3.7701663e-05
3.765452e-05
3.7606735e-05
3.7559034e-05
3.7511857e-05
3.7465916e-05
3.7421611e-05
3.737962e-05
3.7340297e-05
3.7304275e-05
3.7271859e-05
3.7243627e-05
3.7219823e-05
3.7200959e-05
3.7187201e-05
3.7178975e-05
3.7176347e-05
3.7179631e-05
3.7188764e-05
3.7203914e-05
3.7224856e-05
3.7251582e-05
3.7283671e-05
3.7320909e-05
3.7292366e-05
3.7257982e-05
3.7228355e-05
3.7204288e-05
3.7186197e-05
3.7174672e-05
3.7170072e-05
3.7172514e-05
3.7182243e-05
3.7199047e-05
3.7222868e-05
3.7253195e-05
3.7289674e-05
3.7331517e-05
3.7378123e-05
3.7428502e-05
3.748183e-05
3.753709e-05
3.7593291e-05
3.764943e-05
3.7704518e-05
3.7757622e-05
3.7807842e-05
3.7779231e-05
3.7729864e-05
3.767723e-05
3.7622153e-05
3.7565479e-05
3.7508027e-05
3.7450612e-05
3.7394021e-05
3.7339007e-05
3.728628e-05
3.723652e-05
3.7190332e-05
3.7148282e-05
3.7110872e-05
3.7078543e-05
3.7051668e-05
3.7030546e-05
3.7015423e-05
3.7006446e-05
3.7003707e-05
3.7007218e-05
3.701692e-05
3.7032679e-05
3.7054307e-05
3.7081532e-05
3.7114034e-05
3.7151434e-05
3.7193307e-05
3.7163095e-05
3.7125227e-05
3.7091988e-05
3.7063691e-05
3.7040575e-05
3.7022806e-05
3.7010485e-05
3.7003639e-05
3.7002227e-05
3.7006139e-05
3.7015204e-05
3.7029188e-05
3.7047805e-05
3.7070738e-05
3.7097609e-05
3.7128029e-05
3.7161586e-05
3.7197857e-05
3.7236417e-05
3.7276842e-05
3.7318734e-05
3.7361691e-05
3.7405344e-05
3.7449347e-05
3.7493378e-05
3.753714e-05
3.7580377e-05
3.7622842e-05
3.7664328e-05
3.770465e-05
3.774365e-05
3.7781193e-05
3.7817178e-05
3.7851508e-05
3.788412e-05
3.7914969e-05
3.7944029e-05
3.7971288e-05
3.7996762e-05
3.8020463e-05
3.8042427e-05
3.8062695e-05
3.8081315e-05
3.8098336e-05
3.8113828e-05
3.8127844e-05
3.8137972e-05
3.7804982e-05
3.7754302e-05
3.7704142e-05
3.7652892e-05
3.7601074e-05
3.7549452e-05
3.7498498e-05
3.7448954e-05
3.7401248e-05
3.7356083e-05
3.7313839e-05
3.7275171e-05
3.7240408e-05
3.7210152e-05
3.7184669e-05
3.7164496e-05
3.7149823e-05
3.7141099e-05
3.7138412e-05
3.7142095e-05
3.7152103e-05
3.7168618e-05
3.7191422e-05
3.7220504e-05
3.7255438e-05
3.729599e-05
3.7264318e-05
3.7225867e-05
3.7192545e-05
3.716524e-05
3.7144445e-05
3.7130821e-05
3.7124787e-05
3.7126505e-05
3.7136249e-05
3.7153822e-05
3.7179161e-05
3.7211729e-05
3.725113e-05
3.7296518e-05
3.7347217e-05
3.7402153e-05
3.7460407e-05
3.7520863e-05
3.7582428e-05
3.7643996e-05
3.7704484e-05
3.7762864e-05
3.7818151e-05
3.7791053e-05
3.7737046e-05
3.7679616e-05
3.761967e-05
3.7558129e-05
3.7495884e-05
3.7433814e-05
3.7372768e-05
3.7313551e-05
3.7256923e-05
3.7203605e-05
3.7154242e-05
3.710943e-05
3.7069701e-05
3.7035515e-05
3.7007262e-05
3.6985255e-05
3.6969743e-05
3.6960874e-05
3.6958734e-05
3.6963323e-05
3.6974566e-05
3.6992306e-05
3.7016328e-05
3.7046326e-05
3.7081946e-05
3.7122769e-05
3.7168324e-05
3.7134508e-05
3.709313e-05
3.7056697e-05
3.7025549e-05
3.6999945e-05
3.6980069e-05
3.696603e-05
3.6957858e-05
3.6955511e-05
3.695887e-05
3.6967749e-05
3.6981894e-05
3.7000994e-05
3.7024702e-05
3.7052609e-05
3.7084291e-05
3.7119301e-05
3.7157182e-05
3.7197475e-05
3.7239725e-05
3.7283506e-05
3.7328388e-05
3.737398e-05
3.7419916e-05
3.7465857e-05
3.7511492e-05
3.7556556e-05
3.7600789e-05
3.764398e-05
3.7685939e-05
3.7726505e-05
3.776554e-05
3.7802944e-05
3.7838618e-05
3.7872502e-05
3.7904553e-05
3.7934747e-05