/*--------------------------------*- C++ -*----------------------------------*\
| =========                 |                                                 |
| \\      /  F ield         | foam-extend: Open Source CFD                    |
|  \\    /   O peration     | Version:     4.1                                |
|   \\  /    A nd           | Web:         http://www.foam-extend.org         |
|    \\/     M anipulation  |                                                 |
\*---------------------------------------------------------------------------*/
FoamFile
{
    version     2.0;
    format      ascii;
    class       volVectorField;
    location    "0.25";
    object      U;
}
// * * * * * * * * * * * * * * * * * * * * * * * * * * * * * * * * * * * * * //

dimensions      [0 1 -1 0 0 0 0];

internalField   nonuniform List<vector> 
16796
(
(137.63 -0.132244 0)
(137.99021 -0.14589266 0)
(138.2965 -0.15124967 0)
(138.61962 -0.15501469 0)
(138.95289 -0.15790578 0)
(139.29453 -0.16012679 0)
(139.64276 -0.16171212 0)
(139.99579 -0.16265568 0)
(140.35182 -0.16294331 0)
(140.70893 -0.16256315 0)
(141.0652 -0.16150955 0)
(141.41865 -0.15978481 0)
(141.76734 -0.15740004 0)
(142.10933 -0.15437553 0)
(142.44272 -0.15074083 0)
(142.76573 -0.14653473 0)
(143.07667 -0.14180481 0)
(143.37398 -0.13660719 0)
(143.65626 -0.13100572 0)
(143.92233 -0.12507146 0)
(144.17118 -0.11888161 0)
(144.40204 -0.11251877 0)
(144.6144 -0.10606969 0)
(144.80799 -0.099624323 0)
(144.98282 -0.093274419 0)
(145.13918 -0.087112528 0)
(145.27763 -0.08123052 0)
(145.399 -0.075718527 0)
(145.50441 -0.070663376 0)
(145.59524 -0.066147668 0)
(145.67311 -0.062248954 0)
(145.73988 -0.059038473 0)
(145.79762 -0.056579627 0)
(145.84857 -0.054925624 0)
(145.89513 -0.054118659 0)
(145.93984 -0.054186794 0)
(145.98531 -0.055145778 0)
(146.0342 -0.057000606 0)
(146.08917 -0.059743567 0)
(146.15287 -0.063354836 0)
(146.22785 -0.067803202 0)
(146.31657 -0.073044998 0)
(146.42133 -0.079023556 0)
(146.54422 -0.085667928 0)
(146.68712 -0.0928946 0)
(146.85164 -0.10060973 0)
(147.03909 -0.10871002 0)
(147.25045 -0.11708408 0)
(147.48638 -0.12561377 0)
(147.74715 -0.13417565 0)
(148.03265 -0.14264259 0)
(148.3424 -0.15088564 0)
(148.67553 -0.15877586 0)
(149.03077 -0.16618636 0)
(149.4065 -0.17299421 0)
(149.80071 -0.17908247 0)
(150.21108 -0.1843421 0)
(150.63497 -0.18867379 0)
(151.06944 -0.19198973 0)
(151.51133 -0.19421517 0)
(151.95728 -0.19528979 0)
(152.40376 -0.19516888 0)
(152.84713 -0.19382419 0)
(153.28371 -0.19124459 0)
(153.7098 -0.1874363 0)
(154.12173 -0.18242289 0)
(154.51596 -0.17624489 0)
(154.88907 -0.1689591 0)
(155.23785 -0.16063757 0)
(155.55932 -0.15136629 0)
(155.8508 -0.1412436 0)
(156.10991 -0.13037831 0)
(156.33462 -0.11888764 0)
(156.5233 -0.10689408 0)
(156.67467 -0.094520644 0)
(156.7879 -0.081892778 0)
(156.86254 -0.069124286 0)
(156.89856 -0.056300898 0)
(156.89632 -0.043459785 0)
(156.85664 -0.03056568 0)
(156.77995 -0.017678458 0)
(156.66686 -0.0050920518 0)
(156.51903 0.0068752973 0)
(156.33862 0.018029189 0)
(156.12812 0.028251377 0)
(155.89029 0.037457358 0)
(155.62809 0.045584241 0)
(155.34464 0.052587658 0)
(155.04314 0.058440513 0)
(154.72686 0.063132189 0)
(154.39909 0.066667671 0)
(154.06306 0.069066491 0)
(153.72196 0.070361448 0)
(153.37888 0.070597145 0)
(153.03676 0.069828399 0)
(152.69839 0.068118568 0)
(152.36638 0.065537839 0)
(152.04314 0.062161536 0)
(151.73086 0.058068498 0)
(151.43154 0.053339577 0)
(151.14693 0.048056239 0)
(150.87858 0.042299353 0)
(150.62781 0.036148157 0)
(150.39573 0.029679391 0)
(150.18325 0.02296664 0)
(149.99107 0.016079889 0)
(149.81973 0.0090852198 0)
(149.66958 0.0020447393 0)
(149.54083 -0.004983302 0)
(149.43354 -0.011944158 0)
(149.34761 -0.018785813 0)
(149.28285 -0.02545851 0)
(149.23897 -0.031911958 0)
(149.21552 -0.038093918 0)
(149.21204 -0.043944345 0)
(149.22791 -0.049390593 0)
(149.26232 -0.054382435 0)
(149.31431 -0.058861415 0)
(149.3829 -0.062665425 0)
(149.46736 -0.065451486 0)
(149.56864 -0.066864177 0)
(149.6814 -0.066387845 0)
(149.78894 -0.065058075 0)
(149.87302 -0.052081831 0)
(157.38606 -0.23267784 0)
(157.5661 -0.25585158 0)
(157.71308 -0.27021938 0)
(157.87125 -0.28175707 0)
(158.03832 -0.29134329 0)
(158.21308 -0.29923004 0)
(158.39415 -0.30542865 0)
(158.58005 -0.30988083 0)
(158.76919 -0.31251519 0)
(158.95994 -0.31326878 0)
(159.15057 -0.31209673 0)
(159.33934 -0.30897702 0)
(159.52447 -0.30391314 0)
(159.70418 -0.29693579 0)
(159.87674 -0.28810348 0)
(160.04046 -0.27750302 0)
(160.19374 -0.26524885 0)
(160.33508 -0.25148262 0)
(160.46314 -0.2363715 0)
(160.57672 -0.22010693 0)
(160.67481 -0.20290195 0)
(160.75659 -0.18498923 0)
(160.8215 -0.1666176 0)
(160.86918 -0.1480494 0)
(160.89953 -0.12955626 0)
(160.91274 -0.111416 0)
(160.90923 -0.093908137 0)
(160.8897 -0.077310708 0)
(160.85512 -0.061895236 0)
(160.8067 -0.047923325 0)
(160.74592 -0.035641659 0)
(160.67447 -0.025274838 0)
(160.59427 -0.017021425 0)
(160.50741 -0.011052632 0)
(160.41615 -0.0075073683 0)
(160.32283 -0.0065003521 0)
(160.22993 -0.0081121972 0)
(160.13997 -0.012381433 0)
(160.05553 -0.019305902 0)
(159.97915 -0.028841523 0)
(159.91333 -0.04089988 0)
(159.86046 -0.05534846 0)
(159.82281 -0.072010082 0)
(159.80242 -0.090674548 0)
(159.8011 -0.11109681 0)
(159.82045 -0.132999 0)
(159.86176 -0.15607368 0)
(159.92601 -0.1799871 0)
(160.01386 -0.20438399 0)
(160.1256 -0.22889248 0)
(160.26115 -0.25312964 0)
(160.42005 -0.27670708 0)
(160.60146 -0.2992368 0)
(160.80415 -0.32033709 0)
(161.02652 -0.3396385 0)
(161.26661 -0.35678966 0)
(161.52213 -0.37146302 0)
(161.79046 -0.38336025 0)
(162.06869 -0.39221734 0)
(162.35369 -0.39780921 0)
(162.64211 -0.39995376 0)
(162.93042 -0.39851532 0)
(163.21499 -0.39340732 0)
(163.49212 -0.38459426 0)
(163.75811 -0.37209272 0)
(164.00927 -0.35597155 0)
(164.24203 -0.33635114 0)
(164.45292 -0.31340172 0)
(164.63871 -0.28734082 0)
(164.79637 -0.25842992 0)
(164.92315 -0.22697016 0)
(165.01664 -0.19329746 0)
(165.07475 -0.15777764 0)
(165.09579 -0.12079633 0)
(165.07844 -0.082752902 0)
(165.02181 -0.044065533 0)
(164.92543 -0.0051546795 0)
(164.78928 0.033589273 0)
(164.61368 0.071800185 0)
(164.39937 0.10919471 0)
(164.14829 0.14549166 0)
(163.86293 0.18027797 0)
(163.54533 0.21310748 0)
(163.19763 0.24362954 0)
(162.82218 0.27157223 0)
(162.42151 0.29671911 0)
(161.99835 0.31890208 0)
(161.55552 0.33799908 0)
(161.09598 0.3539327 0)
(160.62271 0.36666877 0)
(160.13872 0.37621436 0)
(159.64699 0.38261518 0)
(159.15044 0.38595241 0)
(158.65191 0.38633893 0)
(158.15409 0.38391521 0)
(157.65958 0.37884494 0)
(157.17076 0.3713105 0)
(156.68987 0.3615085 0)
(156.21896 0.34964539 0)
(155.75986 0.33593342 0)
(155.31421 0.32058677 0)
(154.88347 0.30381829 0)
(154.46888 0.28583644 0)
(154.07149 0.26684287 0)
(153.69218 0.24703039 0)
(153.33163 0.22658144 0)
(152.99039 0.20566691 0)
(152.66883 0.18444549 0)
(152.36718 0.16306332 0)
(152.08554 0.14165412 0)
(151.8239 0.12033976 0)
(151.58214 0.099230608 0)
(151.36002 0.078428407 0)
(151.15724 0.058029685 0)
(150.97339 0.038133308 0)
(150.808 0.01884514 0)
(150.66065 0.00025975202 0)
(150.53061 -0.017527634 0)
(150.41709 -0.034270083 0)
(150.31949 -0.049425105 0)
(150.23835 -0.062584089 0)
(150.16838 -0.072409109 0)
(150.09981 -0.082396996 0)
(150.03247 -0.072008726 0)
(159.88815 -0.31789873 0)
(160.05717 -0.33893531 0)
(160.19115 -0.35769532 0)
(160.32974 -0.373779 0)
(160.47098 -0.38734763 0)
(160.61397 -0.39842354 0)
(160.75756 -0.40692811 0)
(160.90047 -0.41274346 0)
(161.04139 -0.41575076 0)
(161.17897 -0.4158501 0)
(161.31183 -0.41297144 0)
(161.43862 -0.40708092 0)
(161.558 -0.39818482 0)
(161.66866 -0.38633212 0)
(161.76937 -0.37161565 0)
(161.85897 -0.35417293 0)
(161.9364 -0.33418528 0)
(162.00073 -0.31187728 0)
(162.05117 -0.28751414 0)
(162.08709 -0.26139981 0)
(162.10802 -0.23387278 0)
(162.1137 -0.20530302 0)
(162.10407 -0.17608632 0)
(162.07926 -0.14664022 0)
(162.03964 -0.11739696 0)
(161.98579 -0.088798855 0)
(161.91853 -0.061290613 0)
(161.83888 -0.035315017 0)
(161.74807 -0.011305262 0)
(161.64755 0.010324924 0)
(161.53896 0.029190665 0)
(161.42409 0.044938226 0)
(161.30491 0.057235567 0)
(161.18348 0.06580845 0)
(161.06201 0.070432084 0)
(160.94277 0.070936229 0)
(160.82809 0.06720536 0)
(160.72027 0.059186008 0)
(160.62159 0.046890358 0)
(160.53426 0.030396848 0)
(160.46039 0.0098520217 0)
(160.40195 -0.01452882 0)
(160.36077 -0.04246106 0)
(160.33851 -0.073595635 0)
(160.3366 -0.10753283 0)
(160.35622 -0.14381926 0)
(160.39827 -0.18195128 0)
(160.46335 -0.22138343 0)
(160.55175 -0.26153485 0)
(160.66344 -0.30179763 0)
(160.79803 -0.3415456 0)
(160.95482 -0.38014342 0)
(161.13273 -0.41695615 0)
(161.33037 -0.45135887 0)
(161.54601 -0.48274649 0)
(161.77762 -0.51054327 0)
(162.02286 -0.53421226 0)
(162.27912 -0.55326425 0)
(162.54355 -0.56726611 0)
(162.81311 -0.5758485 0)
(163.08457 -0.57871255 0)
(163.35456 -0.57563562 0)
(163.61964 -0.56647576 0)
(163.87632 -0.55117498 0)
(164.1211 -0.52976101 0)
(164.35056 -0.50234762 0)
(164.56135 -0.46913347 0)
(164.75026 -0.43039929 0)
(164.9143 -0.38650382 0)
(165.05069 -0.33787824 0)
(165.1569 -0.28501908 0)
(165.23073 -0.22848051 0)
(165.2703 -0.16886698 0)
(165.27409 -0.10681363 0)
(165.24093 -0.042985523 0)
(165.17006 0.021916057 0)
(165.06113 0.087184049 0)
(164.91416 0.15209748 0)
(164.72963 0.21596224 0)
(164.50838 0.27810613 0)
(164.25153 0.33791216 0)
(163.96057 0.39486681 0)
(163.63731 0.44850268 0)
(163.28386 0.49836646 0)
(162.90257 0.54405118 0)
(162.49601 0.58521569 0)
(162.06692 0.6215899 0)
(161.61818 0.65297584 0)
(161.15276 0.67924732 0)
(160.67368 0.70034813 0)
(160.18396 0.71628912 0)
(159.68663 0.72714404 0)
(159.18463 0.73304435 0)
(158.6808 0.73417309 0)
(158.17789 0.7307582 0)
(157.67847 0.72306529 0)
(157.18497 0.71139028 0)
(156.69962 0.69605204 0)
(156.22448 0.67738529 0)
(155.76138 0.65573391 0)
(155.31198 0.63144478 0)
(154.87771 0.60486229 0)
(154.45983 0.57632361 0)
(154.05937 0.54615468 0)
(153.6772 0.51466691 0)
(153.31402 0.48215481 0)
(152.97034 0.44889407 0)
(152.64653 0.41514051 0)
(152.34282 0.38112943 0)
(152.05929 0.34707563 0)
(151.79593 0.31317383 0)
(151.5526 0.27959932 0)
(151.32907 0.24650973 0)
(151.125 0.21404821 0)
(150.94003 0.18234649 0)
(150.77364 0.15152593 0)
(150.62527 0.12170518 0)
(150.49423 0.093028407 0)
(150.37987 0.065762084 0)
(150.28163 0.040352698 0)
(150.19955 0.016927977 0)
(150.12859 -0.0017061542 0)
(150.06516 -0.021362924 0)
(150.0179 -0.026142683 0)
(160.16707 -0.41151284 0)
(160.33647 -0.43187278 0)
(160.4712 -0.45064466 0)
(160.6095 -0.46674341 0)
(160.74909 -0.47985864 0)
(160.8891 -0.48981158 0)
(161.0284 -0.49644276 0)
(161.1658 -0.49960191 0)
(161.30006 -0.49915954 0)
(161.4299 -0.49501818 0)
(161.55408 -0.48712093 0)
(161.67133 -0.4754575 0)
(161.78043 -0.46006818 0)
(161.88022 -0.44104695 0)
(161.9696 -0.41854258 0)
(162.04754 -0.39275967 0)
(162.11311 -0.3639574 0)
(162.16551 -0.33244883 0)
(162.20407 -0.29859736 0)
(162.22825 -0.26281433 0)
(162.2377 -0.22555344 0)
(162.23222 -0.18730677 0)
(162.21182 -0.14859731 0)
(162.17669 -0.10997364 0)
(162.12724 -0.072000701 0)
(162.06407 -0.035252657 0)
(161.98799 -0.00030523616 0)
(161.90004 0.032271843 0)
(161.80145 0.061926276 0)
(161.69366 0.088138788 0)
(161.57827 0.11040887 0)
(161.45707 0.12828217 0)
(161.332 0.14137497 0)
(161.20513 0.14934844 0)
(161.07862 0.15193235 0)
(160.95471 0.14893371 0)
(160.8357 0.14023784 0)
(160.72389 0.12581242 0)
(160.62154 0.10571146 0)
(160.5309 0.08007598 0)
(160.45409 0.049134727 0)
(160.39312 0.01320204 0)
(160.34984 -0.027323468 0)
(160.32589 -0.071959009 0)
(160.3227 -0.12014427 0)
(160.34145 -0.17125262 0)
(160.38301 -0.22459831 0)
(160.448 -0.27944014 0)
(160.53669 -0.33499421 0)
(160.64903 -0.39044316 0)
(160.78462 -0.44494755 0)
(160.94273 -0.49765793 0)
(161.12227 -0.54772715 0)
(161.32182 -0.59432292 0)
(161.53963 -0.6366406 0)
(161.77364 -0.67391569 0)
(162.02148 -0.70543619 0)
(162.28053 -0.73055437 0)
(162.54791 -0.74869784 0)
(162.82054 -0.75937974 0)
(163.09516 -0.76220772 0)
(163.36839 -0.75689161 0)
(163.63675 -0.74324956 0)
(163.89671 -0.72121243 0)
(164.14476 -0.69082629 0)
(164.37742 -0.65225304 0)
(164.59131 -0.60576889 0)
(164.78319 -0.55176068 0)
(164.95002 -0.49072054 0)
(165.08897 -0.4232383 0)
(165.1975 -0.34999187 0)
(165.27334 -0.2717375 0)
(165.3146 -0.18929726 0)
(165.31971 -0.10353649 0)
(165.2875 -0.015358496 0)
(165.21718 0.074291311 0)
(165.10839 0.16447825 0)
(164.96112 0.25424519 0)
(164.7758 0.34267463 0)
(164.55323 0.42885352 0)
(164.29458 0.51190814 0)
(164.00139 0.591042 0)
(163.6755 0.66553472 0)
(163.31907 0.73473681 0)
(162.93451 0.79808297 0)
(162.52443 0.85510142 0)
(162.09164 0.90541825 0)
(161.63905 0.94875936 0)
(161.1697 0.98495027 0)
(160.68666 1.013914 0)
(160.19302 1.0356671 0)
(159.69183 1.0503139 0)
(159.18608 1.0580395 0)
(158.67867 1.0591008 0)
(158.17234 1.0538177 0)
(157.66973 1.0425624 0)
(157.17326 1.0257496 0)
(156.68519 1.0038259 0)
(156.20758 0.97725995 0)
(155.74228 0.94653318 0)
(155.29094 0.91213118 0)
(154.85498 0.8745361 0)
(154.43565 0.83422009 0)
(154.034 0.79163979 0)
(153.65085 0.74723193 0)
(153.28691 0.70141006 0)
(152.94266 0.65456218 0)
(152.61846 0.60704947 0)
(152.31452 0.55920579 0)
(152.03092 0.51133822 0)
(151.76762 0.46372817 0)
(151.52447 0.41663359 0)
(151.30122 0.37029277 0)
(151.09755 0.32492859 0)
(150.91306 0.28075255 0)
(150.74726 0.23796875 0)
(150.59958 0.19678697 0)
(150.46939 0.15746687 0)
(150.35614 0.12039887 0)
(150.25918 0.086077635 0)
(150.17826 0.054750423 0)
(150.10888 0.031635791 0)
(150.05048 0.0090983603 0)
(150.01253 -0.0019648546 0)
(160.19052 -0.49706273 0)
(160.36044 -0.52030392 0)
(160.4967 -0.54143694 0)
(160.63688 -0.55947926 0)
(160.7784 -0.57394752 0)
(160.92031 -0.58453101 0)
(161.06148 -0.59099009 0)
(161.2007 -0.59312787 0)
(161.33671 -0.59078875 0)
(161.46824 -0.58386341 0)
(161.59402 -0.57229492 0)
(161.71278 -0.55608404 0)
(161.82331 -0.53529315 0)
(161.92441 -0.51004954 0)
(162.01496 -0.48054661 0)
(162.09393 -0.44704527 0)
(162.16038 -0.40987252 0)
(162.21348 -0.36942086 0)
(162.25253 -0.32614426 0)
(162.27698 -0.28055568 0)
(162.28645 -0.23322046 0)
(162.28073 -0.18475189 0)
(162.25979 -0.13580239 0)
(162.22382 -0.087057394 0)
(162.17318 -0.039223066 0)
(162.10848 0.0069817386 0)
(162.03052 0.050832669 0)
(161.94034 0.091611945 0)
(161.83916 0.12862886 0)
(161.72842 0.16120364 0)
(161.60976 0.18872065 0)
(161.48499 0.21061531 0)
(161.35606 0.22638286 0)
(161.22509 0.23559871 0)
(161.09429 0.23792107 0)
(160.96595 0.23310237 0)
(160.84242 0.2209974 0)
(160.72606 0.20156671 0)
(160.61923 0.17488144 0)
(160.52422 0.14112585 0)
(160.44323 0.10059847 0)
(160.37833 0.053709102 0)
(160.33143 0.00097549889 0)
(160.30426 -0.056978413 0)
(160.29829 -0.11943149 0)
(160.31475 -0.18557557 0)
(160.35458 -0.25452417 0)
(160.41841 -0.3253199 0)
(160.50655 -0.39695174 0)
(160.61896 -0.46836675 0)
(160.75528 -0.53848558 0)
(160.91477 -0.60621744 0)
(161.09633 -0.67047591 0)
(161.29853 -0.73019494 0)
(161.5196 -0.78434513 0)
(161.75743 -0.83194948 0)
(162.00963 -0.87209897 0)
(162.27351 -0.90396743 0)
(162.54614 -0.92682553 0)
(162.82437 -0.94005355 0)
(163.10488 -0.94315285 0)
(163.3842 -0.9357556 0)
(163.65876 -0.91763261 0)
(163.92497 -0.88869911 0)
(164.17921 -0.84901806 0)
(164.41793 -0.79880107 0)
(164.63765 -0.73840682 0)
(164.83506 -0.66833645 0)
(165.00702 -0.58922707 0)
(165.15066 -0.50184224 0)
(165.26334 -0.4070597 0)
(165.34277 -0.30586043 0)
(165.38699 -0.19930967 0)
(165.39439 -0.088533371 0)
(165.36379 0.025292045 0)
(165.2944 0.14094258 0)
(165.18581 0.25718461 0)
(165.03807 0.37281157 0)
(164.8516 0.48663329 0)
(164.62724 0.59750042 0)
(164.36621 0.70432162 0)
(164.07006 0.80608557 0)
(163.74071 0.90186865 0)
(163.38036 0.99084153 0)
(162.99149 1.0722822 0)
(162.57677 1.1455869 0)
(162.13908 1.2102769 0)
(161.68143 1.2660015 0)
(161.2069 1.3125379 0)
(160.71865 1.3497891 0)
(160.21983 1.3777786 0)
(159.71354 1.3966428 0)
(159.20285 1.406622 0)
(158.69069 1.4080491 0)
(158.17986 1.4013373 0)
(157.67302 1.3869669 0)
(157.17262 1.3654723 0)
(156.68095 1.3374279 0)
(156.20006 1.303436 0)
(155.73182 1.2641139 0)
(155.27787 1.2200836 0)
(154.83963 1.1719611 0)
(154.41835 1.1203489 0)
(154.01503 1.0658279 0)
(153.63051 1.0089525 0)
(153.26544 0.95024586 0)
(152.92032 0.89019702 0)
(152.59547 0.82925903 0)
(152.29107 0.76784819 0)
(152.00718 0.70634439 0)
(151.74375 0.64509218 0)
(151.50061 0.58440321 0)
(151.27751 0.52455994 0)
(151.0741 0.46582093 0)
(150.88998 0.40842582 0)
(150.72466 0.35260077 0)
(150.57762 0.29857446 0)
(150.44827 0.24662192 0)
(150.33615 0.19711238 0)
(150.24058 0.15044411 0)
(150.16134 0.1068982 0)
(150.09478 0.073752785 0)
(150.04165 0.040714102 0)
(150.00982 0.016666255 0)
(160.19457 -0.58750259 0)
(160.36633 -0.61289043 0)
(160.50459 -0.63538121 0)
(160.64721 -0.6541717 0)
(160.79145 -0.66874156 0)
(160.93629 -0.6787136 0)
(161.08055 -0.68379611 0)
(161.22298 -0.68375901 0)
(161.3623 -0.67842907 0)
(161.49721 -0.66769204 0)
(161.62639 -0.65149725 0)
(161.74854 -0.62986256 0)
(161.8624 -0.60287803 0)
(161.96672 -0.57070963 0)
(162.06036 -0.53360037 0)
(162.14221 -0.49187209 0)
(162.2113 -0.4459237 0)
(162.26675 -0.39623078 0)
(162.30782 -0.34334084 0)
(162.33392 -0.2878706 0)
(162.34462 -0.23049833 0)
(162.33968 -0.17195871 0)
(162.31905 -0.11303249 0)
(162.28288 -0.054539774 0)
(162.23154 0.00267766 0)
(162.1656 0.057760291 0)
(162.08587 0.10984113 0)
(161.9934 0.15806707 0)
(161.88941 0.20160303 0)
(161.77539 0.23965788 0)
(161.65299 0.27149344 0)
(161.52405 0.29643325 0)
(161.3906 0.31388232 0)
(161.25478 0.32333589 0)
(161.11889 0.32439202 0)
(160.98528 0.31676314 0)
(160.85638 0.30028394 0)
(160.73463 0.27491805 0)
(160.62245 0.24076347 0)
(160.52223 0.19805461 0)
(160.43626 0.14716388 0)
(160.36668 0.088599374 0)
(160.31551 0.023000987 0)
(160.28451 -0.048862267 0)
(160.27525 -0.12610478 0)
(160.28902 -0.20773572 0)
(160.32682 -0.2926742 0)
(160.38932 -0.37975868 0)
(160.47688 -0.46775942 0)
(160.58949 -0.55539835 0)
(160.72679 -0.64136463 0)
(160.88806 -0.7243341 0)
(161.0722 -0.80298819 0)
(161.27775 -0.87603317 0)
(161.50292 -0.94221982 0)
(161.74557 -1.0003624 0)
(162.00324 -1.0493577 0)
(162.27318 -1.0882027 0)
(162.5524 -1.1160116 0)
(162.83765 -1.1320317 0)
(163.12554 -1.135657 0)
(163.41248 -1.1264402 0)
(163.69483 -1.1041024 0)
(163.96886 -1.0685402 0)
(164.23086 -1.0198299 0)
(164.47716 -0.95822906 0)
(164.70419 -0.88417419 0)
(164.90852 -0.79827573 0)
(165.08694 -0.70131004 0)
(165.23645 -0.59420788 0)
(165.35436 -0.47803941 0)
(165.4383 -0.35400173 0)
(165.48625 -0.22339793 0)
(165.49657 -0.087601377 0)
(165.46804 0.051953376 0)
(165.39984 0.1937769 0)
(165.29158 0.33635524 0)
(165.14328 0.47817981 0)
(164.95541 0.6177786 0)
(164.72883 0.75373143 0)
(164.4648 0.88469179 0)
(164.16495 1.0094087 0)
(163.83126 1.1267409 0)
(163.466 1.2356691 0)
(163.07173 1.3353086 0)
(162.65122 1.4249213 0)
(162.20742 1.5039228 0)
(161.74344 1.5718865 0)
(161.26247 1.6285437 0)
(160.76773 1.6737811 0)
(160.26247 1.707634 0)
(159.74987 1.7302773 0)
(159.23306 1.7420141 0)
(158.71504 1.7432615 0)
(158.19866 1.7345353 0)
(157.68662 1.716434 0)
(157.18142 1.6896217 0)
(156.68535 1.6548118 0)
(156.20049 1.6127508 0)
(155.7287 1.5642033 0)
(155.27163 1.5099385 0)
(154.8307 1.4507182 0)
(154.40711 1.387286 0)
(154.00188 1.3203592 0)
(153.6158 1.2506214 0)
(153.24951 1.1787176 0)
(152.90346 1.1052508 0)
(152.57795 1.0307793 0)
(152.27315 0.95581623 0)
(151.98907 0.88082972 0)
(151.72564 0.80624413 0)
(151.48265 0.73244263 0)
(151.25984 0.65977079 0)
(151.05685 0.58854112 0)
(150.87325 0.51903753 0)
(150.70854 0.45152141 0)
(150.56222 0.3862471 0)
(150.43372 0.32349435 0)
(150.32261 0.2635805 0)
(150.22817 0.20678782 0)
(150.15031 0.15334476 0)
(150.08605 0.11200762 0)
(150.03662 0.068868925 0)
(150.0084 0.03201924 0)
(160.20111 -0.67585693 0)
(160.37527 -0.70477516 0)
(160.51608 -0.72999053 0)
(160.66173 -0.75077378 0)
(160.80936 -0.76658708 0)
(160.95787 -0.77700523 0)
(161.10602 -0.78168948 0)
(161.25253 -0.78037342 0)
(161.39608 -0.77285975 0)
(161.5353 -0.75902207 0)
(161.66884 -0.73880902 0)
(161.79533 -0.71224919 0)
(161.91347 -0.67945485 0)
(162.02195 -0.640626 0)
(162.11955 -0.59605163 0)
(162.20513 -0.54611187 0)
(162.27765 -0.49127612 0)
(162.33616 -0.43210282 0)
(162.37988 -0.36923424 0)
(162.40815 -0.30339362 0)
(162.42052 -0.23537654 0)
(162.41668 -0.16604517 0)
(162.39655 -0.096317044 0)
(162.36026 -0.027155749 0)
(162.30815 0.040448142 0)
(162.24078 0.10548011 0)
(162.15897 0.16691669 0)
(162.06377 0.22375572 0)
(161.95641 0.27500037 0)
(161.83842 0.31972012 0)
(161.71147 0.35703724 0)
(161.57748 0.3861496 0)
(161.43852 0.40635192 0)
(161.29681 0.41704589 0)
(161.15471 0.41775521 0)
(161.01468 0.40813913 0)
(160.87923 0.38800196 0)
(160.7509 0.35730155 0)
(160.63222 0.31615568 0)
(160.52567 0.26484459 0)
(160.43363 0.20381302 0)
(160.35838 0.13366658 0)
(160.30199 0.055168895 0)
(160.26636 -0.030763512 0)
(160.25313 -0.12307651 0)
(160.26365 -0.22059162 0)
(160.299 -0.32201835 0)
(160.35992 -0.4259699 0)
(160.4468 -0.53097865 0)
(160.55966 -0.63552084 0)
(160.69819 -0.73803521 0)
(160.86164 -0.83694555 0)
(161.04893 -0.93068314 0)
(161.25857 -1.0177097 0)
(161.48873 -1.0965404 0)
(161.73722 -1.1657664 0)
(162.00152 -1.224077 0)
(162.27881 -1.270281 0)
(162.566 -1.3033266 0)
(162.85976 -1.32232 0)
(163.15656 -1.3265418 0)
(163.45272 -1.3154614 0)
(163.74446 -1.2887487 0)
(164.02793 -1.2462824 0)
(164.29929 -1.1881555 0)
(164.55473 -1.1146773 0)
(164.79055 -1.0263705 0)
(165.00321 -0.92396603 0)
(165.18937 -0.80839297 0)
(165.34593 -0.68076518 0)
(165.47011 -0.54236331 0)
(165.55943 -0.39461986 0)
(165.61183 -0.23910083 0)
(165.62561 -0.077447 0)
(165.59951 0.088630847 0)
(165.53269 0.25735523 0)
(165.42475 0.42693183 0)
(165.27572 0.59558166 0)
(165.0861 0.76155673 0)
(164.8568 0.92316879 0)
(164.58912 1.0788158 0)
(164.28476 1.2270064 0)
(163.94579 1.3663787 0)
(163.57456 1.4957182 0)
(163.17374 1.6139725 0)
(162.74619 1.7202646 0)
(162.29499 1.8139013 0)
(161.82335 1.8943786 0)
(161.33456 1.9613816 0)
(160.83196 2.0147809 0)
(160.3189 2.0546255 0)
(159.79867 2.0811312 0)
(159.27446 2.0946668 0)
(158.74935 2.0957368 0)
(158.22627 2.0849632 0)
(157.70795 2.0630656 0)
(157.19694 2.0308407 0)
(156.69556 1.9891426 0)
(156.2059 1.9388634 0)
(155.72983 1.8809151 0)
(155.26899 1.8162134 0)
(154.82478 1.7456634 0)
(154.39841 1.6701469 0)
(153.99084 1.5905128 0)
(153.60286 1.5075684 0)
(153.23506 1.4220744 0)
(152.88787 1.3347397 0)
(152.56156 1.2462201 0)
(152.25624 1.1571167 0)
(151.97191 1.0679771 0)
(151.70845 0.97929689 0)
(151.46566 0.89152299 0)
(151.24321 0.80505787 0)
(151.04074 0.7202648 0)
(150.85781 0.63747315 0)
(150.69391 0.5569864 0)
(150.54854 0.47909775 0)
(150.42115 0.40411325 0)
(150.3113 0.3323477 0)
(150.21826 0.26407504 0)
(150.14205 0.19957375 0)
(150.08004 0.14901568 0)
(150.03345 0.094947841 0)
(150.00757 0.045585715 0)
(160.21398 -0.76762303 0)
(160.39143 -0.79969308 0)
(160.53529 -0.8272637 0)
(160.68443 -0.8496419 0)
(160.83593 -0.86628295 0)
(160.9886 -0.87672897 0)
(161.14118 -0.88060458 0)
(161.29233 -0.87761245 0)
(161.44065 -0.86753353 0)
(161.58476 -0.85023016 0)
(161.72322 -0.82565053 0)
(161.85462 -0.79383416 0)
(161.97757 -0.75491581 0)
(162.09073 -0.70913011 0)
(162.19279 -0.65681286 0)
(162.28254 -0.5984037 0)
(162.35887 -0.53444397 0)
(162.42078 -0.46557671 0)
(162.46742 -0.39254081 0)
(162.49807 -0.31616799 0)
(162.51222 -0.23737304 0)
(162.50952 -0.15714724 0)
(162.48985 -0.076547006 0)
(162.4533 0.0033208081 0)
(162.40019 0.081315498 0)
(162.33107 0.15626592 0)
(162.24676 0.22699738 0)
(162.14829 0.29234101 0)
(162.03696 0.351167 0)
(161.91429 0.40238974 0)
(161.78203 0.44499527 0)
(161.64213 0.47805826 0)
(161.49674 0.50075993 0)
(161.34816 0.51240757 0)
(161.19885 0.51244938 0)
(161.05135 0.5004902 0)
(160.90828 0.47630363 0)
(160.77231 0.43984162 0)
(160.64607 0.39124238 0)
(160.53216 0.33083331 0)
(160.4331 0.25913348 0)
(160.35126 0.17684934 0)
(160.28885 0.084872393 0)
(160.24785 -0.015728626 0)
(160.23002 -0.123723 0)
(160.2368 -0.23773812 0)
(160.26935 -0.35626842 0)
(160.32846 -0.47770804 0)
(160.4146 -0.60035338 0)
(160.52782 -0.72243476 0)
(160.66782 -0.84213927 0)
(160.83389 -0.95763561 0)
(161.0249 -1.0671011 0)
(161.23938 -1.1687477 0)
(161.47542 -1.2608492 0)
(161.7308 -1.3417668 0)
(162.00291 -1.4099754 0)
(162.28886 -1.464088 0)
(162.58543 -1.5028792 0)
(162.88919 -1.5253065 0)
(163.19648 -1.5305299 0)
(163.50349 -1.5179286 0)
(163.80628 -1.4871148 0)
(164.10087 -1.4379437 0)
(164.38324 -1.3705203 0)
(164.64944 -1.2852013 0)
(164.89562 -1.1825928 0)
(165.1181 -1.063544 0)
(165.31338 -0.9291356 0)
(165.47826 -0.78066437 0)
(165.60982 -0.61962233 0)
(165.7055 -0.44767888 0)
(165.76314 -0.26666852 0)
(165.781 -0.078501351 0)
(165.75776 0.11483275 0)
(165.69256 0.31126133 0)
(165.58499 0.50867492 0)
(165.43511 0.70497697 0)
(165.24341 0.89812217 0)
(165.01088 1.0861389 0)
(164.73888 1.2671566 0)
(164.4292 1.4394335 0)
(164.08399 1.6013801 0)
(163.70573 1.7515802 0)
(163.29718 1.8888089 0)
(162.86135 2.0120474 0)
(162.40143 2.1204933 0)
(161.92077 2.2135661 0)
(161.4228 2.2909076 0)
(160.91099 2.3523781 0)
(160.38879 2.3980471 0)
(159.85961 2.42818 0)
(159.32675 2.4432213 0)
(158.79337 2.4437741 0)
(158.26248 2.4305788 0)
(157.73686 2.4044883 0)
(157.21911 2.3664451 0)
(156.71158 2.3174565 0)
(156.21638 2.2585726 0)
(155.73539 2.1908645 0)
(155.27023 2.1154057 0)
(154.8223 2.0332545 0)
(154.39276 1.9454406 0)
(153.98256 1.8529525 0)
(153.59245 1.7567286 0)
(153.22298 1.6576506 0)
(152.87454 1.5565382 0)
(152.54734 1.4541473 0)
(152.24148 1.3511683 0)
(151.95689 1.2482271 0)
(151.69344 1.1458871 0)
(151.45085 1.0446525 0)
(151.22881 0.94497218 0)
(151.02689 0.84724549 0)
(150.84466 0.75182738 0)
(150.68158 0.65903712 0)
(150.53715 0.56917178 0)
(150.41085 0.48252138 0)
(150.30219 0.39936106 0)
(150.21048 0.3199298 0)
(150.13583 0.24449955 0)
(150.07577 0.18459302 0)
(150.03133 0.11944998 0)
(150.00705 0.058046356 0)
(160.23142 -0.85976533 0)
(160.41274 -0.89574837 0)
(160.56022 -0.92643997 0)
(160.71344 -0.95112833 0)
(160.86942 -0.96924634 0)
(161.02692 -0.98030109 0)
(161.18461 -0.9838798 0)
(161.34109 -0.97965223 0)
(161.49493 -0.96737455 0)
(161.64466 -0.9468942 0)
(161.78879 -0.91815534 0)
(161.92583 -0.88120512 0)
(162.05433 -0.83619802 0)
(162.17286 -0.78340115 0)
(162.28005 -0.72319585 0)
(162.3746 -0.65608081 0)
(162.45532 -0.58266987 0)
(162.52115 -0.50369235 0)
(162.57115 -0.4199866 0)
(162.60454 -0.33249697 0)
(162.62075 -0.24226299 0)
(162.61937 -0.15041205 0)
(162.60023 -0.05814767 0)
(162.56337 0.033268536 0)
(162.50911 0.12253624 0)
(162.43796 0.2083149 0)
(162.35076 0.28926453 0)
(162.24853 0.36404251 0)
(162.13259 0.43135632 0)
(162.00451 0.48996148 0)
(161.86608 0.53869297 0)
(161.71934 0.57648792 0)
(161.56649 0.60240491 0)
(161.40996 0.61564585 0)
(161.25227 0.6155744 0)
(161.09611 0.60173333 0)
(160.94422 0.57385889 0)
(160.79938 0.53189217 0)
(160.66438 0.47598802 0)
(160.54195 0.40651881 0)
(160.43474 0.32407722 0)
(160.34527 0.22947132 0)
(160.27588 0.123722 0)
(160.22867 0.0080531771 0)
(160.20551 -0.11612141 0)
(160.20797 -0.24723058 0)
(160.23727 -0.38354823 0)
(160.29431 -0.52322673 0)
(160.37959 -0.66430778 0)
(160.49323 -0.80475844 0)
(160.63494 -0.94249562 0)
(160.80402 -1.0754163 0)
(160.99935 -1.2014275 0)
(161.21941 -1.3184761 0)
(161.46227 -1.4245799 0)
(161.72561 -1.5178569 0)
(162.00675 -1.596555 0)
(162.30269 -1.6590803 0)
(162.61011 -1.7040237 0)
(162.92543 -1.730186 0)
(163.24485 -1.7365999 0)
(163.56439 -1.7225497 0)
(163.87996 -1.6875873 0)
(164.18738 -1.6315444 0)
(164.48247 -1.5545397 0)
(164.76111 -1.4569822 0)
(165.01926 -1.339569 0)
(165.25306 -1.2032768 0)
(165.45888 -1.0493504 0)
(165.63334 -0.87928347 0)
(165.77341 -0.69479562 0)
(165.87642 -0.49781036 0)
(165.9401 -0.29045128 0)
(165.96264 -0.074915649 0)
(165.94267 0.14651236 0)
(165.87932 0.37144847 0)
(165.77214 0.59747939 0)
(165.62122 0.82220473 0)
(165.4271 1.0432741 0)
(165.19079 1.2584207 0)
(164.91376 1.4654941 0)
(164.59788 1.6624914 0)
(164.24542 1.8475857 0)
(163.85897 2.0191505 0)
(163.44145 2.1757811 0)
(162.99599 2.3163112 0)
(162.52597 2.4398249 0)
(162.03485 2.5456636 0)
(161.52624 2.633426 0)
(161.00376 2.7029639 0)
(160.47099 2.7543709 0)
(159.93147 2.787967 0)
(159.38862 2.8042788 0)
(158.8457 2.8040155 0)
(158.30581 2.7880426 0)
(157.7718 2.7573549 0)
(157.24631 2.7130475 0)
(156.73173 2.6562882 0)
(156.23019 2.5882914 0)
(155.74357 2.5102929 0)
(155.27349 2.4235283 0)
(154.82131 2.3292135 0)
(154.38819 2.2285282 0)
(153.97503 2.1226032 0)
(153.58253 2.0125094 0)
(153.2112 1.8992509 0)
(152.86138 1.7837598 0)
(152.53325 1.6668933 0)
(152.22682 1.5494332 0)
(151.94202 1.432087 0)
(151.67863 1.3154896 0)
(151.43637 1.2002075 0)
(151.21485 1.0867432 0)
(151.01365 0.97554018 0)
(150.83227 0.86698849 0)
(150.67018 0.76143301 0)
(150.52685 0.65918335 0)
(150.40174 0.56052221 0)
(150.29438 0.46569713 0)
(150.20404 0.37491439 0)
(150.13092 0.28840045 0)
(150.07257 0.21899837 0)
(150.02982 0.14278921 0)
(150.00668 0.069769273 0)
(160.25359 -0.95508526 0)
(160.4395 -0.99496822 0)
(160.59112 -1.0287829 0)
(160.74896 -1.055782 0)
(160.90997 -1.0753685 0)
(161.07288 -1.0870122 0)
(161.23629 -1.0902624 0)
(161.39874 -1.0847549 0)
(161.55874 -1.0702194 0)
(161.71475 -1.0464862 0)
(161.86522 -1.0134932 0)
(162.00857 -0.97129295 0)
(162.14327 -0.9200578 0)
(162.26779 -0.86008611 0)
(162.3807 -0.79180395 0)
(162.48061 -0.71576896 0)
(162.56623 -0.63266799 0)
(162.63642 -0.54331773 0)
(162.69016 -0.44865775 0)
(162.7266 -0.34974728 0)
(162.74508 -0.24775329 0)
(162.74514 -0.14394266 0)
(162.72655 -0.039668922 0)
(162.68932 0.063645574 0)
(162.63371 0.16453735 0)
(162.56025 0.26149343 0)
(162.46974 0.35300252 0)
(162.36323 0.43754563 0)
(162.24206 0.51365759 0)
(162.10784 0.57992807 0)
(161.96241 0.63503353 0)
(161.80789 0.67776479 0)
(161.64659 0.7070494 0)
(161.48101 0.72197614 0)
(161.31381 0.72181678 0)