# Time	forces(pressure, viscous) moment(pressure, viscous)
0.0005	(((110.97583 -0.77842872 0) (16.005935 0.0051294909 -1.3984579e-17)) ((0.038921436 5.5487917 1.5990349e-08) (-0.00025647454 0.80029674 0.0016502423)))
0.001	(((132.27725 -0.81165283 0) (11.367746 0.0041213644 -1.7280824e-17)) ((0.040582642 6.6138625 7.0398902e-09) (-0.00020606822 0.5683873 0.00076090808)))
0.0015	(((150.85819 -0.44281968 0) (9.1099893 0.0061235094 -2.489317e-17)) ((0.022140984 7.5429095 6.5889238e-09) (-0.00030617547 0.45549947 0.00083008565)))
0.002	(((163.37553 -0.58682203 0) (7.8730539 0.0025256655 -2.5620685e-17)) ((0.029341102 8.1687765 7.6197134e-09) (-0.00012628328 0.39365269 0.00091857233)))
0.0025	(((178.74354 -0.71581485 0) (7.1104652 -0.00074811911 -8.0581494e-18)) ((0.035790742 8.9371768 8.2693645e-09) (3.7405955e-05 0.35552326 0.0013117752)))
0.003	(((194.55407 -0.91336432 0) (6.5652905 -0.0045475088 -9.6973426e-18)) ((0.045668216 9.7277037 8.2502696e-09) (0.00022737544 0.32826453 0.001348959)))
0.0035	(((213.45847 -1.0817735 0) (6.1542918 -0.0077381162 -1.3390705e-17)) ((0.054088674 10.672924 7.5251985e-09) (0.00038690581 0.30771459 0.0012368545)))
0.004	(((238.54392 -0.70876168 0) (5.8770202 -0.009197272 -2.1099927e-17)) ((0.035438084 11.927196 1.5798234e-09) (0.0004598636 0.29385101 0.0011859718)))
0.0045	(((270.16382 -0.6002558 0) (5.7129094 -0.011466598 -2.6179974e-17)) ((0.03001279 13.508191 2.6325482e-09) (0.0005733299 0.28564547 0.0010119992)))
0.005	(((295.97676 -1.6229574 0) (5.595185 -0.016226593 -2.914681e-17)) ((0.081147871 14.798838 7.2359889e-09) (0.00081132965 0.27975925 0.00043125182)))
0.0055	(((309.82962 -2.0220919 0) (5.4923933 -0.017948095 -3.2094076e-17)) ((0.1011046 15.491481 8.1618821e-09) (0.00089740476 0.27461966 0.00038412681)))
0.006	(((327.01036 -2.3313983 0) (5.3918647 -0.020583245 -3.4869424e-17)) ((0.11656992 16.350518 6.4368865e-09) (0.0010291622 0.26959323 0.0002364151)))
0.0065	(((344.77937 -2.4045384 0) (5.326454 -0.024141711 -3.9549648e-17)) ((0.12022692 17.238969 2.7251906e-09) (0.0012070856 0.2663227 2.2161601e-05)))
0.007	(((366.2846 -2.4792168 0) (5.3360495 -0.02897931 -3.952219e-17)) ((0.12396084 18.31423 -1.3109103e-09) (0.0014489655 0.26680248 -0.00029364032)))
0.0075	(((377.17002 -3.7026435 0) (5.3643151 -0.038587884 -3.8583096e-17)) ((0.18513217 18.858501 -8.215499e-10) (0.0019293942 0.26821576 -0.0011328946)))
0.008	(((378.29466 -4.4135105 0) (5.3456869 -0.046533889 -3.746169e-17)) ((0.22067553 18.914733 -4.781633e-09) (0.0023266945 0.26728434 -0.0015726224)))
0.0085	(((373.0049 -5.850759 0) (5.3018291 -0.055150229 -3.5446468e-17)) ((0.29253795 18.650245 -4.9906098e-09) (0.0027575114 0.26509145 -0.0018764275)))
0.009	(((365.7491 -6.7154765 0) (5.2169076 -0.060946631 -2.6561235e-17)) ((0.33577383 18.287455 -7.9885882e-09) (0.0030473316 0.26084538 -0.0017567806)))
0.0095	(((357.36745 -7.0936267 0) (5.1368491 -0.0639207 -2.6563037e-17)) ((0.35468134 17.868372 -1.0098216e-08) (0.003196035 0.25684246 -0.0013093679)))
0.01	(((350.00261 -7.1905245 0) (5.0592523 -0.063848724 -2.6170357e-17)) ((0.35952622 17.500131 -1.1743093e-08) (0.0031924362 0.25296262 -0.00080243869)))
0.0105	(((342.60671 -6.9281861 0) (4.9851089 -0.061728756 -2.5884463e-17)) ((0.34640931 17.130335 -1.3858863e-08) (0.0030864378 0.24925545 -0.00027145132)))
0.011	(((335.56369 -6.2355509 0) (4.9156644 -0.056993644 -2.6307739e-17)) ((0.31177754 16.778184 -1.5838684e-08) (0.0028496822 0.24578322 0.00019620955)))
0.0115	(((329.03367 -5.4788518 0) (4.8503291 -0.051267102 -2.6817809e-17)) ((0.27394259 16.451683 -1.7321802e-08) (0.0025633551 0.24251646 0.00051924757)))
0.012	(((322.77324 -4.599493 0) (4.7876629 -0.04480185 -2.717397e-17)) ((0.22997465 16.138662 -1.8436978e-08) (0.0022400925 0.23938314 0.00074234789)))
0.0125	(((316.74922 -3.7985382 0) (4.7243601 -0.03839086 -2.698211e-17)) ((0.18992691 15.837461 -1.9592999e-08) (0.001919543 0.23621801 0.00088781202)))
0.013	(((311.97033 -3.0538639 0) (4.6626196 -0.032207933 -2.6208063e-17)) ((0.1526932 15.598516 -2.0784526e-08) (0.0016103966 0.23313098 0.00098688956)))
0.0135	(((308.76636 -2.3501893 0) (4.6060972 -0.0262023 -2.5257233e-17)) ((0.11750947 15.438318 -2.1834018e-08) (0.001310115 0.23030486 0.0010542783)))
0.014	(((306.37449 -1.6197033 0) (4.5569928 -0.019722835 -2.4603423e-17)) ((0.080985167 15.318724 -2.2380556e-08) (0.00098614173 0.22784964 0.0011638211)))
0.0145	(((304.3186 -0.91020014 0) (4.5141715 -0.012851368 -2.4153845e-17)) ((0.045510007 15.21593 -2.2473347e-08) (0.00064256841 0.22570857 0.0013246707)))
0.015	(((302.51666 -0.26489573 0) (4.4766806 -0.0060959439 -2.3855496e-17)) ((0.013244786 15.125833 -2.2256901e-08) (0.00030479719 0.22383403 0.001495715)))
0.0155	(((300.42215 0.24822626 0) (4.4411246 -3.442791e-06 -2.3702891e-17)) ((-0.012411313 15.021107 -2.1770207e-08) (1.7213955e-07 0.22205623 0.0016532001)))
0.016	(((298.65942 0.61679237 0) (4.4082017 0.0051285996 -2.3633033e-17)) ((-0.030839618 14.932971 -2.1054608e-08) (-0.00025642998 0.22041009 0.0017840619)))
0.0165	(((297.26974 0.83174125 0) (4.3779429 0.0089941393 -2.3558109e-17)) ((-0.041587063 14.863487 -2.0077081e-08) (-0.00044970696 0.21889715 0.0018706773)))
0.017	(((296.12561 0.85155652 0) (4.3498572 0.011289819 -2.3434924e-17)) ((-0.042577826 14.80628 -1.8851318e-08) (-0.00056449096 0.21749286 0.0018980628)))
0.0175	(((295.04483 0.68901079 0) (4.3229927 0.01186624 -2.326013e-17)) ((-0.03445054 14.752242 -1.7519173e-08) (-0.00059331202 0.21614964 0.0018627557)))
0.018	(((293.98605 0.35124098 0) (4.2971355 0.010901348 -2.3061738e-17)) ((-0.017562049 14.699302 -1.5701368e-08) (-0.00054506739 0.21485677 0.001802198)))
0.0185	(((292.95238 -0.12832079 0) (4.2730983 0.0081925697 -2.281493e-17)) ((0.0064160395 14.647619 -1.4756679e-08) (-0.00040962849 0.21365491 0.0016969105)))
0.019	(((291.93589 -0.71844241 0) (4.2511528 0.0038749334 -2.2476629e-17)) ((0.035922121 14.596794 -1.3682152e-08) (-0.00019374667 0.21255764 0.0015283167)))
0.0195	(((290.81397 -1.3975682 0) (4.230098 -0.0015531031 -2.211792e-17)) ((0.069878409 14.540698 -1.2994359e-08) (7.7655153e-05 0.2115049 0.001307553)))
0.02	(((289.64223 -2.1215837 0) (4.2099435 -0.0078985785 -2.1807167e-17)) ((0.10607918 14.482111 -1.253438e-08) (0.00039492892 0.21049717 0.0010680427)))
0.0205	(((288.44218 -2.890308 0) (4.1901781 -0.014958223 -2.1548955e-17)) ((0.1445154 14.422109 -1.2094903e-08) (0.00074791113 0.2095089 0.00081254404)))
0.021	(((287.19986 -3.6526176 0) (4.1709742 -0.02240036 -2.1346701e-17)) ((0.18263088 14.359993 -1.1791548e-08) (0.001120018 0.20854871 0.00055716703)))
0.0215	(((285.91262 -4.3746115 0) (4.1523678 -0.029953861 -2.117689e-17)) ((0.21873057 14.295631 -1.1713121e-08) (0.0014976931 0.20761839 0.00029688977)))
0.022	(((284.59553 -5.0162317 0) (4.1343292 -0.03730663 -2.1031469e-17)) ((0.25081158 14.229777 -1.18478e-08) (0.0018653315 0.20671646 2.7763083e-05)))
0.0225	(((283.26983 -5.5379472 0) (4.1172209 -0.044096045 -2.0920803e-17)) ((0.27689736 14.163491 -1.2171948e-08) (0.0022048023 0.20586104 -0.00024219192)))
0.023	(((281.97583 -5.9001676 0) (4.1012908 -0.049894278 -2.0830794e-17)) ((0.29500838 14.098791 -1.2716484e-08) (0.0024947139 0.20506454 -0.00049233286)))
0.0235	(((280.74258 -6.0642471 0) (4.086667 -0.054290612 -2.0762716e-17)) ((0.30321235 14.037129 -1.3460848e-08) (0.0027145306 0.20433335 -0.00070526383)))
0.024	(((279.58094 -6.0020629 0) (4.0733656 -0.056917935 -2.0712154e-17)) ((0.30010314 13.979047 -1.4308917e-08) (0.0028458967 0.20366828 -0.00086554771)))
0.0245	(((278.49396 -5.6983867 0) (4.0613471 -0.05751052 -2.067393e-17)) ((0.28491933 13.924698 -1.5224539e-08) (0.002875526 0.20306735 -0.00096787738)))
0.025	(((277.46543 -5.1452515 0) (4.0504401 -0.055865111 -2.064548e-17)) ((0.25726257 13.873271 -1.6153785e-08) (0.0027932556 0.20252201 -0.0010047471)))
0.0255	(((276.4805 -4.357626 0) (4.0404097 -0.051925234 -2.0622152e-17)) ((0.2178813 13.824025 -1.7039433e-08) (0.0025962617 0.20202048 -0.00097214318)))
0.026	(((275.52302 -3.3616555 0) (4.0309784 -0.045753581 -2.0597751e-17)) ((0.16808277 13.776151 -1.7840346e-08) (0.0022876791 0.20154892 -0.00086871342)))
0.0265	(((274.57102 -2.1935724 0) (4.0218388 -0.037510122 -2.0566419e-17)) ((0.10967862 13.728551 -1.8529256e-08) (0.0018755061 0.20109194 -0.00069428839)))
0.027	(((273.61717 -0.89818465 0) (4.0127548 -0.027437264 -2.0523426e-17)) ((0.044909232 13.680858 -1.9111801e-08) (0.0013718632 0.20063774 -0.00045074771)))
0.0275	(((272.66299 0.47691655 0) (4.0035819 -0.015856537 -2.0463351e-17)) ((-0.023845827 13.63315 -1.9602569e-08) (0.00079282687 0.20017909 -0.00014260185)))
0.028	(((271.72242 1.8715312 0) (3.9942952 -0.0032237602 -2.0381823e-17)) ((-0.093576559 13.586121 -1.9952739e-08) (0.00016118801 0.19971476 0.00022192018)))
0.0285	(((270.81808 3.2117887 0) (3.9849833 0.0098879318 -2.0279842e-17)) ((-0.16058943 13.540904 -2.0100587e-08) (-0.00049439659 0.19924917 0.00062976448)))
0.029	(((269.96914 4.4221892 0) (3.9757754 0.022834929 -2.0159272e-17)) ((-0.22110946 13.498457 -2.0034542e-08) (-0.0011417464 0.19878877 0.0010626166)))
0.0295	(((269.19269 5.4291589 0) (3.9668232 0.034917341 -2.0023516e-17)) ((-0.27145794 13.459634 -1.9761678e-08) (-0.0017458671 0.19834116 0.0014980708)))
0.03	(((268.49244 6.1614412 0) (3.9582259 0.045409711 -1.9872931e-17)) ((-0.30807206 13.424622 -1.9284337e-08) (-0.0022704856 0.1979113 0.0019113841)))
0.0305	(((267.85074 6.5601103 0) (3.9499165 0.053658059 -1.9716711e-17)) ((-0.32800552 13.392537 -1.8575025e-08) (-0.002682903 0.19749583 0.0022794052)))
0.031	(((267.25066 6.5805771 0) (3.9417661 0.059055489 -1.9564082e-17)) ((-0.32902885 13.362533 -1.7618283e-08) (-0.0029527744 0.19708831 0.0025790024)))
0.0315	(((266.66215 6.1853448 0) (3.9337224 0.060997648 -1.9417301e-17)) ((-0.30926724 13.333108 -1.647431e-08) (-0.0030498824 0.19668612 0.0027803827)))
0.032	(((266.06508 5.3574809 0) (3.9259074 0.059098944 -1.9276644e-17)) ((-0.26787405 13.303254 -1.5238306e-08) (-0.0029549472 0.19629537 0.0028726709)))
0.0325	(((265.44578 4.1023712 0) (3.9186571 0.053259638 -1.914477e-17)) ((-0.20511856 13.272289 -1.3974869e-08) (-0.0026629819 0.19593286 0.0028613447)))
0.033	(((264.79456 2.4478283 0) (3.912185 0.04356126 -1.9023967e-17)) ((-0.12239142 13.239728 -1.2755196e-08) (-0.002178063 0.19560925 0.0027553656)))
0.0335	(((264.11556 0.44481356 0) (3.9061829 0.030182506 -1.891442e-17)) ((-0.022240678 13.205778 -1.1651565e-08) (-0.0015091253 0.19530915 0.0025536666)))
0.034	(((263.42457 -1.8407876 0) (3.9003574 0.013394965 -1.8819005e-17)) ((0.092039379 13.171229 -1.0721202e-08) (-0.00066974823 0.19501787 0.0022478093)))
0.0345	(((262.72982 -4.3265371 0) (3.8944473 -0.0064209292 -1.8744431e-17)) ((0.21632685 13.136491 -1.0021214e-08) (0.00032104646 0.19472236 0.0018219911)))
0.035	(((262.05513 -6.9169069 0) (3.8883603 -0.028647657 -1.8693964e-17)) ((0.34584535 13.102757 -9.5989071e-09) (0.0014323828 0.19441801 0.0012809754)))
0.0355	(((261.42175 -9.4989259 0) (3.88208 -0.052429915 -1.8669796e-17)) ((0.47494629 13.071087 -9.4889497e-09) (0.0026214957 0.194104 0.00064548218)))
0.036	(((260.84113 -11.95317 0) (3.8755809 -0.076757258 -1.8668742e-17)) ((0.59765851 13.042056 -9.7028667e-09) (0.0038378629 0.19377904 -5.5777977e-05)))
0.0365	(((260.33972 -14.144332 0) (3.8691374 -0.1004191 -1.869352e-17)) ((0.7072166 13.016986 -1.0241399e-08) (0.0050209549 0.19345687 -0.00078302342)))
0.037	(((259.92617 -15.939364 0) (3.8633452 -0.1221405 -1.8740151e-17)) ((0.79696818 12.996308 -1.1080635e-08) (0.006107025 0.19316726 -0.0014942367)))
0.0375	(((259.59372 -17.211638 0) (3.8585796 -0.14070461 -1.8809727e-17)) ((0.86058191 12.979686 -1.2192208e-08) (0.0070352303 0.19292898 -0.002156528)))
0.038	(((259.32964 -17.854653 0) (3.8550105 -0.15500824 -1.8901456e-17)) ((0.89273263 12.966482 -1.3520427e-08) (0.007750412 0.19275053 -0.0027446594)))
0.0385	(((259.09179 -17.773537 0) (3.8525748 -0.16399889 -1.9010436e-17)) ((0.88867685 12.954589 -1.4963551e-08) (0.0081999443 0.19262874 -0.0032304174)))
0.039	(((258.84704 -16.903909 0) (3.851043 -0.16675545 -1.9130589e-17)) ((0.84519545 12.942352 -1.638631e-08) (0.0083377725 0.19255215 -0.0035856744)))
0.0395	(((258.57124 -15.213056 0) (3.8501299 -0.16254243 -1.9255384e-17)) ((0.76065278 12.928562 -1.7655962e-08) (0.0081271215 0.19250649 -0.0037819043)))
0.04	(((258.24334 -12.700178 0) (3.8495073 -0.15086168 -1.9378065e-17)) ((0.63500891 12.912167 -1.867033e-08) (0.0075430839 0.19247536 -0.0037931646)))
0.0405	(((257.84977 -9.4055217 0) (3.8487721 -0.13158519 -1.9491972e-17)) ((0.47027608 12.892488 -1.938472e-08) (0.0065792593 0.19243861 -0.0036137967)))
0.041	(((257.38954 -5.4066303 0) (3.8475887 -0.10490071 -1.9593614e-17)) ((0.27033152 12.869477 -1.9787054e-08) (0.0052450354 0.19237944 -0.0032409454)))
0.0415	(((256.86787 -0.82611938 0) (3.8457201 -0.071316625 -1.9672461e-17)) ((0.041305969 12.843394 -2.0044487e-08) (0.0035658312 0.19228601 -0.0026630948)))
0.042	(((256.30133 4.1765179 0) (3.8428983 -0.03170258 -1.9721923e-17)) ((-0.20882589 12.815066 -2.0173246e-08) (0.001585129 0.19214492 -0.0018794254)))
0.0425	(((255.71329 9.4004889 0) (3.8390543 0.012533783 -1.9743057e-17)) ((-0.47002445 12.785664 -2.0039764e-08) (-0.00062668917 0.19195271 -0.00091809382)))
0.043	(((255.15037 14.601319 0) (3.8342738 0.059566508 -1.972831e-17)) ((-0.73006594 12.757519 -1.9653714e-08) (-0.0029783254 0.19171369 0.0001720095)))
0.0435	(((254.66379 19.521453 0) (3.8287672 0.10727034 -1.9670552e-17)) ((-0.97607266 12.73319 -1.9118376e-08) (-0.0053635169 0.19143836 0.0013349437)))
0.044	(((254.29387 23.908552 0) (3.8227783 0.15345021 -1.9560121e-17)) ((-1.1954276 12.714693 -1.8539385e-08) (-0.0076725103 0.19113892 0.0025256917)))
0.0445	(((254.0846 27.514528 0) (3.8164091 0.19587896 -1.9383636e-17)) ((-1.3757264 12.70423 -1.7990757e-08) (-0.0097939482 0.19082045 0.0037060938)))
0.045	(((254.06799 30.103054 0) (3.8105233 0.23233985 -1.9108772e-17)) ((-1.5051527 12.7034 -1.7387115e-08) (-0.011616993 0.19052616 0.0048405833)))
0.0455	(((254.17908 31.458917 0) (3.8067186 0.26041926 -1.8785927e-17)) ((-1.5729459 12.708954 -1.6232253e-08) (-0.013020963 0.19033593 0.0058421273)))
0.046	(((254.37353 31.409907 0) (3.805472 0.27856317 -1.8476286e-17)) ((-1.5704953 12.718677 -1.429683e-08) (-0.013928159 0.1902736 0.0067130228)))
0.0465	(((254.58753 29.825327 0) (3.8066967 0.28518219 -1.8200655e-17)) ((-1.4912663 12.729377 -1.1812587e-08) (-0.01425911 0.19033484 0.0074163997)))
0.047	(((254.72978 26.585384 0) (3.8097521 0.2788161 -1.7946584e-17)) ((-1.3292692 12.736489 -9.4124543e-09) (-0.013940805 0.1904876 0.0078927979)))
0.0475	(((254.75609 21.937652 0) (3.8149608 0.25925411 -1.7560999e-17)) ((-1.0968826 12.737805 -7.8323782e-09) (-0.012962706 0.19074804 0.0082488266)))
0.048	(((254.55831 15.75686 0) (3.8202772 0.22513565 -1.7198596e-17)) ((-0.787843 12.727915 -6.0615351e-09) (-0.011256782 0.19101386 0.0082270028)))
0.0485	(((254.09941 8.2407436 0) (3.8243153 0.17655987 -1.6897265e-17)) ((-0.41203718 12.704971 -4.7923364e-09) (-0.0088279933 0.19121576 0.0077799654)))
0.049	(((253.45775 -0.34302056 0) (3.8268435 0.11462407 -1.6697034e-17)) ((0.017151028 12.672888 -4.24726e-09) (-0.0057312033 0.19134217 0.0069047489)))
0.0495	(((252.78163 -9.6734962 0) (3.8281391 0.04111492 -1.6608717e-17)) ((0.48367481 12.639081 -4.5873338e-09) (-0.002055746 0.19140695 0.0056177104)))
0.05	(((252.09676 -19.392096 0) (3.8280206 -0.041407614 -1.6637425e-17)) ((0.9696048 12.604838 -5.4051502e-09) (0.0020703807 0.19140103 0.0039524919)))
0.0505	(((251.47752 -29.088064 0) (3.8257205 -0.12968282 -1.6779812e-17)) ((1.4544032 12.573876 -6.5639264e-09) (0.0064841412 0.19128602 0.0019767261)))
0.051	(((251.03604 -38.297896 0) (3.821583 -0.21959779 -1.7030709e-17)) ((1.9148948 12.551802 -8.0050031e-09) (0.01097989 0.19107915 -0.00017750559)))
0.0515	(((250.86472 -46.534348 0) (3.8166677 -0.30665921 -1.7390031e-17)) ((2.3267174 12.543236 -9.6368135e-09) (0.01533296 0.19083339 -0.0023735944)))
0.052	(((251.01008 -53.333796 0) (3.8130762 -0.38657205 -1.7841255e-17)) ((2.6666898 12.550504 -1.1347721e-08) (0.019328603 0.19065381 -0.004513976)))
0.0525	(((251.47004 -58.261854 0) (3.8118646 -0.45594699 -1.8385446e-17)) ((2.9130927 12.573502 -1.3411368e-08) (0.022797349 0.19059323 -0.0065933826)))
0.053	(((252.23994 -61.098305 0) (3.814042 -0.51179893 -1.8788734e-17)) ((3.0549152 12.611997 -1.5454676e-08) (0.025589946 0.1907021 -0.00864339)))
0.0535	(((253.25195 -61.488692 0) (3.819633 -0.55073011 -1.915591e-17)) ((3.0744346 12.662598 -1.7545861e-08) (0.027536506 0.19098165 -0.010549289)))
0.054	(((254.41328 -59.242081 0) (3.8284072 -0.5697376 -1.9563288e-17)) ((2.962104 12.720664 -1.940811e-08) (0.02848688 0.19142036 -0.012220121)))
0.0545	(((255.58969 -54.226269 0) (3.8395329 -0.5662761 -2.0003024e-17)) ((2.7113135 12.779485 -2.0491627e-08) (0.028313805 0.19197664 -0.013560629)))
0.055	(((256.5538 -46.371516 0) (3.8520049 -0.5376455 -2.0447386e-17)) ((2.3185758 12.82769 -2.0334937e-08) (0.026882275 0.19260024 -0.014360527)))
0.0555	(((257.12693 -35.698929 0) (3.8645592 -0.48192098 -2.0885665e-17)) ((1.7849465 12.856347 -1.9080004e-08) (0.024096049 0.19322796 -0.01443531)))
0.056	(((257.3537 -22.553817 0) (3.8768023 -0.39936714 -2.1075022e-17)) ((1.1276909 12.867685 -1.6376829e-08) (0.019968357 0.19384012 -0.013742174)))
0.0565	(((257.49046 -7.4360096 0) (3.8884072 -0.29212611 -2.059426e-17)) ((0.37180048 12.874523 -1.5391441e-08) (0.014606305 0.19442036 -0.01234718)))
0.057	(((257.51333 9.2676591 0) (3.8991535 -0.16140729 -2.0346009e-17)) ((-0.46338295 12.875667 -1.4658362e-08) (0.0080703647 0.19495767 -0.0099979603)))
0.0575	(((257.62755 26.874269 0) (3.909253 -0.011840383 -2.0137083e-17)) ((-1.3437135 12.881378 -1.3204334e-08) (0.00059201917 0.19546265 -0.0067837953)))
0.058	(((257.85707 44.628484 0) (3.9178299 0.14997503 -1.9906907e-17)) ((-2.2314242 12.892853 -1.1405345e-08) (-0.0074987515 0.19589149 -0.0028292955)))
0.0585	(((258.25556 61.281601 0) (3.9244897 0.31553965 -1.9698116e-17)) ((-3.0640801 12.912778 -7.615214e-09) (-0.015776982 0.19622449 0.001580793)))
0.059	(((258.98744 75.781635 0) (3.9297254 0.47516242 -1.9337013e-17)) ((-3.7890818 12.949372 -2.631559e-09) (-0.023758121 0.19648627 0.006093099)))
0.0595	(((260.10583 87.241565 0) (3.935218 0.61951415 -1.8982783e-17)) ((-4.3620782 13.005291 2.035071e-09) (-0.030975707 0.1967609 0.010335313)))
0.06	(((261.67976 94.836785 0) (3.9426847 0.74232836 -1.8468853e-17)) ((-4.7418392 13.083988 7.3969817e-09) (-0.037116418 0.19713423 0.014462261)))
0.0605	(((263.79859 97.973201 0) (3.9527226 0.83639874 -1.7799046e-17)) ((-4.89866 13.18993 1.3993208e-08) (-0.041819937 0.19763613 0.018213523)))
0.061	(((266.36523 96.741896 0) (3.966124 0.89585849 -1.7292687e-17)) ((-4.8370948 13.318262 2.326002e-08) (-0.044792925 0.1983062 0.021301591)))
0.0615	(((269.18573 91.121353 0) (3.983632 0.91744246 -1.6949367e-17)) ((-4.5560677 13.459286 3.2115962e-08) (-0.045872123 0.1991816 0.02370141)))
0.062	(((272.3156 81.160871 0) (4.0066398 0.898996 -1.6733464e-17)) ((-4.0580436 13.61578 3.7984807e-08) (-0.0449498 0.20033199 0.025333294)))
0.0625	(((275.4446 66.734219 0) (4.0336163 0.83734586 -1.6669543e-17)) ((-3.3367109 13.77223 4.130726e-08) (-0.041867293 0.20168082 0.02589042)))
0.063	(((278.17345 48.153664 0) (4.0613299 0.73118947 -1.6654954e-17)) ((-2.4076832 13.908673 3.9452343e-08) (-0.036559473 0.2030665 0.025041606)))
0.0635	(((279.19755 26.333753 0) (4.0844239 0.58142279 -1.654776e-17)) ((-1.3166877 13.959877 3.0838284e-08) (-0.02907114 0.20422119 0.022646736)))
0.064	(((278.59336 1.5443902 0) (4.0992841 0.39112214 -1.6703818e-17)) ((-0.07721951 13.929668 2.0614371e-08) (-0.019556107 0.2049642 0.018599076)))
0.0645	(((277.23889 -25.218285 0) (4.1054065 0.16581336 -1.6941135e-17)) ((1.2609142 13.861944 7.437243e-09) (-0.0082906682 0.20527033 0.012844245)))
0.065	(((275.88648 -52.229817 0) (4.1068844 -0.083058608 -1.7560757e-17)) ((2.6114908 13.794324 -9.6996845e-09) (0.0041529304 0.20534422 0.0060344248)))
0.0655	(((275.43199 -78.049795 0) (4.1082807 -0.34305511 -1.8491233e-17)) ((3.9024898 13.771599 -2.5799552e-08) (0.017152755 0.20541403 -0.0014044072)))
0.066	(((277.74058 -101.54147 0) (4.1179616 -0.59829158 -1.9323456e-17)) ((5.0770734 13.887029 -3.5825196e-08) (0.029914579 0.20589808 -0.0087489647)))
0.0665	(((283.60261 -120.69787 0) (4.142725 -0.83624207 -2.0455671e-17)) ((6.0348933 14.18013 -3.7083795e-08) (0.041812104 0.20713625 -0.016349189)))
0.067	(((293.39103 -132.52765 0) (4.1884749 -1.0354258 -2.1765529e-17)) ((6.6263827 14.669552 -4.0080611e-08) (0.051771292 0.20942375 -0.023590113)))
0.0675	(((305.42797 -134.82749 0) (4.25556 -1.1734675 -2.2929019e-17)) ((6.7413744 15.271399 -5.1035575e-08) (0.058673374 0.212778 -0.029644614)))
0.068	(((316.61698 -125.72684 0) (4.3331779 -1.2331752 -2.4766424e-17)) ((6.2863418 15.830849 -6.013996e-08) (0.061658761 0.21665889 -0.034350295)))
0.0685	(((324.3535 -104.285 0) (4.4084359 -1.1896763 -2.6907331e-17)) ((5.2142499 16.217675 -6.275141e-08) (0.059483815 0.2204218 -0.035961854)))
0.069	(((326.89377 -72.549934 0) (4.4639375 -1.032471 -2.7593507e-17)) ((3.6274967 16.344688 -5.5246793e-08) (0.051623552 0.22319688 -0.033469826)))
0.0695	(((325.08671 -31.224903 0) (4.4927873 -0.75896024 -2.7814119e-17)) ((1.5612452 16.254335 -5.2035015e-08) (0.037948012 0.22463936 -0.026239344)))
0.07	(((321.53997 17.997914 0) (4.5021539 -0.38666792 -2.7808104e-17)) ((-0.89989568 16.076998 -5.0226563e-08) (0.019333396 0.2251077 -0.015155216)))
0.0705	(((318.22126 70.709314 0) (4.5034472 0.056107492 -2.8292606e-17)) ((-3.5354657 15.911063 -2.8922917e-08) (-0.0028053746 0.22517236 -0.0015729842)))
0.071	(((317.63904 121.83254 0) (4.5106983 0.52925881 -2.742566e-17)) ((-6.091627 15.881952 -8.2909528e-09) (-0.026462941 0.22553491 0.012354579)))
0.0715	(((323.09719 167.32176 0) (4.5352788 0.99274354 -2.5681094e-17)) ((-8.3660878 16.15486 3.1902662e-09) (-0.049637177 0.22676394 0.025591865)))
0.072	(((335.53909 200.45467 0) (4.5897248 1.4039134 -2.4069442e-17)) ((-10.022733 16.776954 1.4896869e-08) (-0.070195668 0.22948624 0.038436025)))
0.0725	(((353.22236 216.50827 0) (4.66812 1.7074882 -2.4764124e-17)) ((-10.825414 17.661118 3.6779645e-08) (-0.085374411 0.233406 0.047624627)))
0.073	(((371.68061 212.78572 0) (4.7701821 1.8764079 -2.49521e-17)) ((-10.639286 18.584031 6.018485e-08) (-0.093820393 0.2385091 0.054314073)))
0.0735	(((386.63447 188.0939 0) (4.8732655 1.8783534 -2.2914836e-17)) ((-9.404695 19.331724 6.9251063e-08) (-0.09391767 0.24366327 0.056487388)))
0.074	(((393.85177 145.58439 0) (4.9501506 1.6990559 -1.6503447e-17)) ((-7.2792194 19.692589 7.7288847e-08) (-0.084952794 0.24750753 0.052573109)))
0.0745	(((393.51443 87.712938 0) (5.0072083 1.3428456 -1.5293365e-17)) ((-4.3856469 19.675722 7.4583589e-08) (-0.067142279 0.25036042 0.041790995)))
0.075	(((385.88702 18.014138 0) (5.0334636 0.84119906 -1.5286587e-17)) ((-0.90070691 19.294351 8.0906863e-08) (-0.042059953 0.25167318 0.026132321)))
0.0755	(((371.25786 -56.76221 0) (5.020561 0.24892377 -1.5230733e-17)) ((2.8381105 18.562893 8.9595651e-08) (-0.012446188 0.25102805 0.0086132645)))
0.076	(((353.63392 -130.17536 0) (4.9765733 -0.40566941 -1.7107805e-17)) ((6.508768 17.681696 6.3108527e-08) (0.02028347 0.24882867 -0.012598777)))
0.0765	(((342.67978 -194.38514 0) (4.9330794 -1.0462436 -2.0035788e-17)) ((9.7192569 17.133989 2.2914469e-08) (0.052312181 0.24665397 -0.032164163)))
0.077	(((345.22615 -244.5555 0) (4.9073519 -1.6156434 -2.2815696e-17)) ((12.227775 17.261308 8.8779565e-09) (0.08078217 0.2453676 -0.048868448)))
0.0775	(((359.56595 -272.42795 0) (4.9150895 -2.0433875 -2.5202962e-17)) ((13.621398 17.978298 -3.0561638e-08) (0.10216937 0.24575447 -0.059930214)))
0.078	(((379.71668 -276.67906 0) (4.9717804 -2.3135944 -2.7649539e-17)) ((13.833953 18.985834 -5.9840527e-08) (0.11567972 0.24858902 -0.06805817)))
0.0785	(((399.58413 -256.80263 0) (5.0335672 -2.3878068 -3.1121595e-17)) ((12.840131 19.979207 -6.6755714e-08) (0.11939034 0.25167836 -0.068874895)))
0.079	(((412.9504 -214.44494 0) (5.0970981 -2.2471493 -3.3390669e-17)) ((10.722247 20.64752 -5.5029875e-08) (0.11235747 0.2548549 -0.063585828)))
0.0795	(((416.48865 -152.20182 0) (5.1375912 -1.9047675 -3.1557319e-17)) ((7.6100912 20.824433 -7.2476724e-08) (0.095238374 0.25687956 -0.05306641)))
0.08	(((409.90639 -76.943402 0) (5.1739184 -1.3916245 -3.3048587e-17)) ((3.8471701 20.495319 -9.3991689e-08) (0.069581223 0.25869592 -0.03699298)))
0.0805	(((398.28075 7.0747894 0) (5.1803752 -0.77046106 -3.0218263e-17)) ((-0.35373947 19.914037 -1.1631244e-07) (0.038523053 0.25901876 -0.01887392)))
0.081	(((381.71582 89.982265 0) (5.169106 -0.076999046 -3.0056177e-17)) ((-4.4991132 19.085791 -1.0432051e-07) (0.0038499523 0.2584553 0.00051519048)))
0.0815	(((365.26486 169.72045 0) (5.1309537 0.65931916 -2.8007749e-17)) ((-8.4860224 18.263243 -7.9790292e-08) (-0.032965958 0.25654768 0.023292591)))
0.082	(((356.66359 238.58829 0) (5.0918722 1.3622535 -2.5111817e-17)) ((-11.929414 17.83318 -3.1947581e-08) (-0.068112676 0.25459361 0.045089084)))
0.0825	(((359.85125 283.94967 0) (5.0650554 1.9494001 -2.2118235e-17)) ((-14.197484 17.992563 4.3644082e-09) (-0.097470003 0.25325277 0.061951884)))
0.083	(((373.30439 303.7986 0) (5.0376443 2.3385145 -2.1273236e-17)) ((-15.18993 18.66522 2.2336265e-08) (-0.11692573 0.25188221 0.067415519)))
0.0835	(((392.6341 299.73853 0) (5.0915275 2.57647 -2.0332971e-17)) ((-14.986926 19.631705 6.3357884e-08) (-0.1288235 0.25457637 0.076547219)))
0.084	(((410.39185 269.88775 0) (5.1220246 2.5713508 -2.4387346e-17)) ((-13.494388 20.519593 6.0736042e-08) (-0.12856754 0.25610123 0.072460899)))
0.0845	(((419.79933 219.10975 0) (5.1600931 2.345213 -2.0154633e-17)) ((-10.955488 20.989966 6.7837651e-08) (-0.11726065 0.25800466 0.062981991)))
0.085	(((419.52139 147.26991 0) (5.1805174 1.9240078 -1.164882e-17)) ((-7.3634954 20.976069 1.0023501e-07) (-0.096200389 0.25902587 0.049637708)))
0.0855	(((413.95725 64.814786 0) (5.2253885 1.3513944 -1.1356872e-17)) ((-3.2407393 20.697863 1.1644345e-07) (-0.067569719 0.26126942 0.032936423)))
0.086	(((402.9691 -23.400765 0) (5.2424484 0.68538559 -1.075547e-17)) ((1.1700383 20.148455 1.4206811e-07) (-0.034269279 0.26212242 0.015308807)))
0.0865	(((385.25621 -110.93225 0) (5.2305685 -0.048242082 -1.2839299e-17)) ((5.5466123 19.26281 1.2099641e-07) (0.0024121041 0.26152842 -0.0055353973)))
0.087	(((366.50948 -189.74646 0) (5.179619 -0.80828003 -1.767626e-17)) ((9.4873229 18.325474 7.4099723e-08) (0.040414001 0.25898095 -0.029196589)))
0.0875	(((357.03211 -255.86556 0) (5.1302189 -1.5182191 -2.1655276e-17)) ((12.793278 17.851605 8.2101626e-09) (0.075910954 0.25651094 -0.051186959)))
0.088	(((361.2452 -297.44154 0) (5.0919889 -2.0947712 -2.6571432e-17)) ((14.872077 18.06226 -1.8946202e-08) (0.10473856 0.25459945 -0.066862818)))
0.0885	(((374.89781 -314.65488 0) (5.0559146 -2.4702305 -2.7713442e-17)) ((15.732744 18.74489 -5.8994331e-08) (0.12351152 0.25279573 -0.073044797)))
0.089	(((394.60798 -306.6752 0) (5.090276 -2.669698 -3.1366313e-17)) ((15.33376 19.730399 -7.1008292e-08) (0.1334849 0.2545138 -0.078361274)))
0.0895	(((412.23723 -272.35631 0) (5.1225529 -2.6313369 -3.6249922e-17)) ((13.617815 20.611861 -6.0776214e-08) (0.13156685 0.25612764 -0.072165856)))
0.09	(((421.56438 -216.85789 0) (5.1630863 -2.3617188 -3.894274e-17)) ((10.842895 21.078219 -6.5248692e-08) (0.11808594 0.25815431 -0.060325507)))
0.0905	(((421.58692 -141.851 0) (5.1878246 -1.9135391 -3.6167665e-17)) ((7.0925501 21.079346 -9.4716669e-08) (0.095676953 0.25939123 -0.046666499)))
0.091	(((412.56095 -57.46654 0) (5.225076 -1.3110517 -3.6973315e-17)) ((2.873327 20.628047 -1.1345669e-07) (0.065552584 0.2612538 -0.028626304)))
0.0915	(((400.19104 33.195567 0) (5.2360605 -0.62475091 -3.4666178e-17)) ((-1.6597784 20.009552 -1.4055764e-07) (0.031237545 0.26180302 -0.010791733)))
0.092	(((384.15887 122.08219 0) (5.226942 0.12962111 -3.433822e-17)) ((-6.1041097 19.207944 -1.1677374e-07) (-0.0064810557 0.2613471 0.010729281)))
0.0925	(((369.57031 200.91067 0) (5.1926032 0.89669005 -3.1735173e-17)) ((-10.045534 18.478515 -6.9513976e-08) (-0.044834502 0.25963016 0.033961929)))
0.093	(((362.34892 264.91619 0) (5.156588 1.603507 -2.7524556e-17)) ((-13.24581 18.117446 -9.561727e-09) (-0.080175349 0.2578294 0.055670004)))
0.0935	(((365.92953 302.20203 0) (5.1183989 2.1635719 -2.3122942e-17)) ((-15.110102 18.296476 2.9169018e-08) (-0.1081786 0.25591995 0.071195141)))
0.094	(((379.19071 314.98981 0) (5.0686362 2.5035264 -2.2174845e-17)) ((-15.74949 18.959535 4.8277531e-08) (-0.12517632 0.25343181 0.074433936)))
0.0945	(((397.86601 302.50265 0) (5.1185261 2.6817513 -2.1287778e-17)) ((-15.125133 19.8933 8.3129616e-08) (-0.13408756 0.25592631 0.081390587)))
0.095	(((414.47889 264.05852 0) (5.1456311 2.602487 -2.5110947e-17)) ((-13.202926 20.723945 6.801733e-08) (-0.13012435 0.25728156 0.073172789)))
0.0955	(((421.09516 205.96361 0) (5.1811554 2.29682 -1.9378031e-17)) ((-10.29818 21.054758 8.196683e-08) (-0.114841 0.25905777 0.059486225)))
0.096	(((419.34458 129.09886 0) (5.2022268 1.8265419 -1.1929509e-17)) ((-6.454943 20.967229 1.1124823e-07) (-0.091327095 0.26011134 0.045546621)))
0.0965	(((412.42609 43.713287 0) (5.2442597 1.2134152 -1.1476954e-17)) ((-2.1856643 20.621305 1.3032862e-07) (-0.060670759 0.26221298 0.028420732)))
0.097	(((400.44688 -47.855759 0) (5.2564411 0.51784621 -1.0719076e-17)) ((2.3927879 20.022344 1.5439014e-07) (-0.02589231 0.26282205 0.010114837)))
0.0975	(((382.41814 -133.36816 0) (5.2366457 -0.23275771 -1.3674408e-17)) ((6.668408 19.120907 1.1209709e-07) (0.011637885 0.26183228 -0.011595463)))
0.098	(((365.66259 -209.45639 0) (5.1880705 -0.99185319 -1.8557486e-17)) ((10.47282 18.28313 6.4315487e-08) (0.04959266 0.25940353 -0.034892012)))
0.0985	(((358.50614 -270.26469 0) (5.1407968 -1.6818603 -2.2741195e-17)) ((13.513235 17.925307 -2.943292e-09) (0.084093016 0.25703984 -0.056077958)))