/*--------------------------------*- C++ -*----------------------------------*\
| =========                 |                                                 |
| \\      /  F ield         | foam-extend: Open Source CFD                    |
|  \\    /   O peration     | Version:     4.1                                |
|   \\  /    A nd           | Web:         http://www.foam-extend.org         |
|    \\/     M anipulation  |                                                 |
\*---------------------------------------------------------------------------*/
FoamFile
{
    version     2.0;
    format      ascii;
    class       volScalarField;
    location    "0.35";
    object      p;
}
// * * * * * * * * * * * * * * * * * * * * * * * * * * * * * * * * * * * * * //

dimensions      [0 2 -2 0 0 0 0];

internalField   nonuniform List<scalar> 
16796
(
28.408813
22.391267
36.526046
44.990956
55.354412
65.209888
75.306192
85.470744
95.508762
105.21202
114.65215
123.81217
132.67268
141.22673
149.47268
157.41531
165.06468
172.43547
179.54587
186.41675
193.07024
199.5283
205.81083
211.93361
217.90621
223.72953
229.39381
234.8764
240.14032
245.13279
249.78495
254.01135
257.71153
260.77116
263.06519
264.46131
264.82272
264.01973
261.92794
258.37262
253.20412
246.3435
237.71412
227.25394
214.92624
200.72073
184.65834
166.80118
147.21397
125.93169
103.05206
78.731813
53.128089
26.421225
-1.1898807
-29.488242
-58.239395
-87.192732
-116.08269
-144.63002
-172.54329
-199.5206
-225.25156
-249.41969
-271.70515
-291.78796
-309.35154
-324.08668
-335.69589
-343.89784
-348.43213
-349.06394
-345.58862
-337.83599
-325.67432
-309.01371
-287.80873
-262.06046
-231.81737
-197.17542
-158.27654
-115.30306
-68.468732
-18.066793
35.557079
92.080605
151.1644
212.43711
275.51557
340.00969
405.52953
471.69104
538.12125
604.46287
670.37821
735.55229
799.69536
862.54451
923.86468
983.449
1041.1185
1096.7215
1150.1323
1201.2495
1249.9946
1296.3098
1340.156
1381.5107
1420.366
1456.7264
1490.6077
1522.0345
1551.0396
1577.6634
1601.9543
1623.9614
1643.7437
1661.3763
1676.9533
1690.6742
1702.7231
1712.5299
1722.1472
1744.7822
26.79896
22.869631
36.923784
45.748287
56.201126
66.096409
76.01484
85.756823
95.493726
105.17242
114.63397
123.81938
132.70189
141.27014
149.52378
157.46953
165.11922
172.48897
179.59815
186.46864
193.12346
199.58533
205.87488
212.00855
217.99644
223.8399
229.52951
235.04276
240.3427
245.37634
250.07445
254.35104
258.10476
261.22046
263.57219
265.02441
265.42649
264.62698
262.48953
258.91847
253.81014
247.0343
238.49179
228.11258
215.85231
201.69263
185.63959
167.71888
148.00091
126.61043
103.66241
79.269174
53.584249
26.786884
-0.92330068
-29.328674
-58.19413
-87.268339
-116.28494
-144.96381
-173.0125
-200.12801
-225.99869
-250.30669
-272.73067
-292.94903
-310.6435
-325.50313
-337.22862
-345.5369
-350.16583
-350.87897
-347.4702
-339.76806
-327.63979
-310.99473
-289.78715
-264.01822
-233.73727
-199.04209
-160.07844
-117.0435
-70.180343
-19.741276
33.993341
90.675479
149.93256
211.38703
274.65038
339.32948
405.03187
471.3713
537.97289
604.47769
670.54659
735.86349
800.13775
863.10584
924.53236
984.21028
1041.9608
1097.6323
1151.0996
1202.262
1251.0414
1297.3807
1341.2416
1382.6022
1421.4552
1457.8059
1491.67
1523.0725
1552.0458
1578.6284
1602.8641
1624.8078
1644.5202
1662.0612
1677.508
1690.9976
1702.6094
1712.1432
1720.8738
1730.8854
24.041927
23.12405
37.355245
46.675213
57.396653
67.562023
77.739643
87.7024
97.492004
107.06385
116.36491
125.36709
134.05543
142.42288
150.47097
158.20796
165.6479
172.80993
179.71701
186.39487
192.87047
199.17035
205.31868
211.33499
217.23205
223.01328
228.67073
234.18274
239.51253
244.6066
249.39448
253.78837
257.68433
260.96357
263.49193
265.12833
265.7358
265.17388
263.29385
259.96047
255.04411
248.4266
240.01846
229.75327
217.58866
203.5085
187.52303
169.6652
149.9926
128.58865
105.55923
81.041114
55.198761
28.21168
0.27910351
-28.379585
-57.526898
-86.908527
-116.25464
-145.28121
-173.69155
-201.1781
-227.42444
-252.10776
-274.90168
-295.47956
-313.51812
-328.70154
-340.72588
-349.3037
-354.16886
-355.08136
-351.83198
-344.24669
-332.19076
-315.57214
-294.3443
-268.50816
-238.1132
-203.2582
-164.09209
-120.80991
-73.650888
-22.893852
31.151043
88.143599
147.72237
209.50737
273.10664
338.12283
404.15919
470.82546
537.74312
604.55002
670.90435
736.48784
801.00823
864.2009
925.82981
985.68784
1043.5964
1099.4047
1152.9883
1204.2477
1253.1065
1299.509
1343.4185
1384.815
1423.6929
1460.0592
1493.9316
1525.3366
1554.3086
1580.8879
1605.12
1627.057
1646.7572
1664.2839
1679.7163
1693.1584
1704.6433
1714.2475
1722.808
1728.6172
23.044375
23.39244
37.803813
47.459128
58.346478
68.615659
78.819092
88.773373
98.542391
108.08807
117.35823
126.31559
134.94171
143.22931
151.18185
158.81108
166.13535
173.1784
179.96802
186.53464
192.90976
199.12409
205.20552
211.17673
217.05299
222.83952
228.52944
234.10141
239.51821
244.72517
249.65001
254.2026
258.27562
261.74315
264.46653
266.30418
267.10985
266.7327
265.02525
261.85311
257.0902
250.6191
242.34178
232.18312
220.09316
206.04874
190.05424
172.14191
152.37425
130.84259
107.65703
82.948978
56.876753
29.62214
1.3871903
-27.606613
-57.119183
-86.893213
-116.65544
-146.11797
-174.97977
-202.92852
-229.64267
-254.79395
-278.05027
-299.07908
-317.55116
-333.14475
-345.55009
-354.4742
-359.64574
-360.81995
-357.78344
-350.35871
-338.40827
-321.83824
-300.60116
-274.69794
-244.17899
-209.14657
-169.75584
-126.20309
-78.727028
-27.604674
26.851657
84.293262
144.34692
206.62375
270.72377
336.24231
402.77592
469.92818
537.31502
604.56948
671.34566
737.322
802.20373
865.72451
927.64733
987.76476
1045.8985
1101.8986
1155.6419
1207.0306
1255.9899
1302.4664
1346.4254
1387.8488
1426.7331
1463.0871
1496.9298
1528.2888
1557.1988
1583.7
1607.8372
1629.6598
1649.2196
1666.5704
1681.7751
1694.897
1705.9381
1715.0286
1722.5853
1726.6229
22.774611
23.829944
38.557157
48.580249
59.746125
70.250702
80.635923
90.715039
100.52318
110.02231
119.18701
127.99774
136.44743
144.53695
152.27591
159.68159
166.77779
173.59387
180.16336
186.52247
192.70838
198.75711
204.70142
210.56826
216.37648
222.13403
227.83592
233.46175
238.97426
244.31776
249.41795
254.18173
258.49517
262.22501
265.23457
267.37765
268.49923
268.4428
267.05354
264.18469
259.69956
253.47503
245.40901
235.42321
223.46485
209.50783
193.55336
175.62978
155.7934
134.12882
110.74584
85.7796
59.391142
31.765464
3.1077216
-26.357507
-56.386088
-86.715933
-117.06833
-147.14926
-176.65106
-205.25417
-232.62942
-258.44054
-282.34717
-304.00838
-323.0865
-339.25145
-352.18538
-361.5876
-367.17955
-368.70993
-365.95957
-358.74605
-346.92801
-330.40875
-309.13924
-283.1198
-252.40147
-217.09123
-177.34874
-133.37526
-85.418102
-33.76475
21.262315
79.308773
139.99557
202.92568
267.69037
333.87603
401.07059
468.86954
536.88151
604.73313
672.07311
738.57557
803.94251
867.90539
930.22604
990.69677
1049.1399
1105.4068
1159.3762
1210.9527
1260.0644
1306.6608
1350.7105
1392.1987
1431.1251
1467.5017
1501.3504
1532.7015
1561.5916
1588.0625
1612.1594
1633.9305
1653.4247
1670.6906
1685.778
1698.7197
1709.4991
1718.2165
1724.9069
1727.7286
22.903286
24.200258
39.219801
49.496585
60.86481
71.515993
81.998508
92.133964
101.96052
111.44435
120.56621
129.30787
137.66353
145.63664
153.2404
160.49663
167.43438
174.08874
180.49924
186.70814
192.75855
198.69214
204.5469
210.35443
216.13752
221.90728
227.66099
233.37952
239.02592
244.5437
249.85687
254.86893
259.45788
263.48619
266.81334
269.28402
270.73606
271.00571
269.93128
267.35892
263.14568
257.1629
249.30177
239.47675
227.62831
213.72463
197.76275
179.76884
159.79832
137.93502
114.28869
88.994524
62.213795
34.13349
4.9624833
-25.070911
-55.718095
-86.711768
-117.76731
-148.58411
-178.84715
-208.22895
-236.39175
-262.99021
-287.67449
-310.09391
-329.90089
-346.75547
-360.33013
-370.31482
-376.42224
-378.39302
-376.00085
-369.05722
-357.41589
-340.97663
-319.68834
-293.55058
-262.61509
-226.99384
-186.85028
-142.39004
-93.865985
-41.573328
14.155238
72.953997
134.43177
198.17924
263.77559
330.7955
398.81575
467.42155
536.21222
604.80628
672.84561
739.99886
805.96389
870.46943
933.27578
994.17492
1052.9899
1109.5735
1163.8071
1215.5979
1264.8775
1311.599
1355.7348
1397.2738
1436.2196
1472.5874
1506.4026
1537.6982
1566.5132
1592.8909
1616.8775
1638.5207
1657.8674
1674.9632
1689.8509
1702.5518
1713.0552
1721.4555
1727.6538
1730.07
23.425904
24.839987
40.253869
50.818066
62.453053
73.311735
83.948126
94.175217
104.02743
113.47318
122.50286
131.10805
139.29149
147.0645
154.44744
161.46898
168.16507
174.57773
180.75352
186.74172
192.59235
198.35371
204.07002
209.77851
215.50689
221.27029
227.06899
232.88573
238.68413
244.40709
249.97651
255.29041
260.21926
264.62404
268.35622
271.25166
273.13914
273.84495
273.19699
271.03036
267.19147
261.54236
253.96578
244.36851
232.68426
218.87519
202.93308
184.87968
164.76682
142.676
118.71674
93.025644
65.766182
37.129354
7.3285932
-23.403036
-54.811182
-86.62182
-118.54274
-150.26488
-181.46394
-211.80242
-240.93187
-268.49565
-294.13223
-317.47888
-338.17586
-355.8711
-370.22522
-380.91677
-387.64772
-390.14885
-388.18509
-381.56045
-370.12267
-353.76719
-332.44036
-306.14089
-274.92161
-238.90036
-198.24738
-153.17534
-103.94659
-50.867168
5.7183827
65.432204
127.87014
192.60904
259.21395
327.2456
396.2674
465.85207
535.58772
605.08304
673.97172
741.91585
808.60845
873.77504
937.17428
998.59792
1057.87
1114.8457
1169.4091
1221.4713
1270.9683
1317.8576
1362.1166
1403.739
1442.7331
1479.1187
1512.925
1544.1888
1572.9518
1599.2592
1623.1581
1644.6952
1663.9146
1680.8567
1695.5548
1708.017
1718.2277
1726.259
1731.9615
1734.0295
23.99317
25.385431
41.182286
51.982777
63.851029
74.882097
85.644843
95.949503
105.83221
115.26319
124.23718
132.74958
140.80707
148.42562
155.63087
162.45752
168.94811
175.15175
181.12235
186.91673
192.59237
198.20485
203.80531
209.43732
215.1342
220.91582
226.78609
232.73015
238.71271
244.67643
250.54141
256.19906
261.51307
266.33911
270.51982
273.88191
276.24417
277.42222
277.233
275.50044
272.06013
266.7639
259.48482
250.12054
238.59661
224.86822
208.92161
190.77439
170.47555
148.10482
123.77134
97.612474
69.793438
40.508915
9.9773676
-21.562806
-53.850925
-86.605554
-119.52613
-152.29422
-184.57524
-216.02044
-246.26932
-274.95246
-301.69493
-326.1202
-347.85448
-366.53166
-381.79852
-393.32029
-400.78629
-403.91569
-402.46302
-396.22337
-385.03722
-368.79464
-347.43868
-320.96667
-289.43224
-252.95912
-211.72395
-165.94665
-115.89975
-61.90168
-4.3113164
56.477845
120.0451
185.95015
253.74092
322.96128
393.15862
463.89079
534.73251
605.28084
675.15975
744.02359
811.55974
877.48996
941.57107
1003.5947
1063.3862
1120.8033
1175.7338
1228.0935
1277.8232
1324.8862
1369.2655
1410.9607
1449.9858
1486.3659
1520.1357
1551.3364
1580.0141
1606.2174
1629.9962
1651.399
1670.4708
1687.2516
1701.7728
1714.0399
1724.0408
1731.8354
1737.263
1739.1915
24.828933
26.194762
42.461274
53.532991
65.675218
76.908937
87.819742
98.207845
108.11053
117.50043
126.37823
134.7463
142.61867
150.01883
156.98011
163.54502
169.76415
175.69482
181.39936
186.9431
192.39197
197.80985
203.25579
208.78072
214.42459
220.2129
226.15402
232.23615
238.42544
244.6645
250.87124
256.92964
262.69786
268.02509
272.74336
276.66831
279.60649
281.36031
281.73299
280.53452
277.58688
272.72912
265.8224
256.75356
245.43861
231.82461
215.89108
197.65055
177.14844
154.46252
129.70173
103.00471
74.53925
44.505127
13.126959
-19.350521
-52.659168
-86.508799
-120.58901
-154.57039
-188.10632
-220.83493
-252.38169
-282.36232
-310.38631
-336.0611
-358.9966
-378.81037
-395.13312
-407.61455
-415.92929
-419.78297
-418.91799
-413.11901
-402.21807
-386.09899
-364.70102
-338.02003
-306.11083
-269.10395
-227.18452
-180.5814
-129.57926
-74.510797
-15.751134
46.288503
111.16846
178.42872
247.59725
318.19834
389.76066
461.82472
533.94967
605.71906
676.74562
746.6749
815.18779
882.00196
946.8723
1009.5904
1069.9836
1127.9127
1183.2702
1235.9771
1285.9803
1333.2498
1377.775
1419.5625
1458.6326
1495.0168
1528.7553
1559.8944
1588.4846
1614.5779
1638.2266
1659.4807
1678.3854
1694.9802
1709.2946
1721.3342
1731.0916
1738.626
1743.7941
1745.5971
25.645395
26.930027
43.675718
55.005991
67.417893
78.848395
89.905252
100.38035
110.31362
119.67887
128.4806
136.72566
144.43339
151.6334
158.36587
164.68085
170.63706
176.30049
181.74251
187.03768
192.26127
197.48635
202.78084
208.20404
213.80344
219.61111
225.64071
231.88418
238.30968
244.86007
251.4513
257.96012
264.23624
270.12086
275.43571
279.98428
283.55965
285.94972
286.94258
286.33288
283.92753
279.5512
273.05167
264.3036
253.21228
239.7157
223.78612
205.43056
184.6907
161.64231
136.39402
109.08572
79.887819
49.005336
16.669665
-16.86747
-51.329732
-86.417333
-121.80903
-157.16334
-192.12023
-226.3033
-259.3223
-290.77623
-320.25707
-347.35408
-371.65866
-392.76974
-410.29968
-423.88036
-433.16954
-437.85723
-437.67176
-432.38568
-421.82107
-405.85432
-384.41994
-357.51172
-325.18539
-287.57864
-244.88548
-197.345
-145.25567
-88.966738
-28.8723
34.595551
100.97491
169.78269
240.52362
312.69922
385.81645
459.39578
532.97837
606.13226
678.45735
749.58916
819.20138
887.00718
952.75949
1016.2503
1077.3091
1135.801
1191.6236
1244.7047
1294.9984
1342.4822
1387.1538
1429.0275
1468.1317
1504.5053
1538.1956
1569.2556
1597.7413
1623.7101
1647.2184
1668.3196
1687.0614
1703.4849
1717.6206
1729.4758
1739.047
1746.3938
1751.3901
1753.1241
26.675752
27.898886
45.202813
56.826082
69.539771
81.186395
92.398371
102.95694
112.90536
122.21967
130.90956
138.9881
146.48181
153.42815
159.87567
165.88331
171.51908
176.85869
181.98355
186.97849
191.92915
196.91892
202.02573
207.31839
212.85317
218.66977
224.78819
231.20496
237.8909
244.7895
251.81479
258.83584
265.69381
272.22096
278.22647
283.49958
287.81746
290.95087
292.67004
292.75157
290.98466
287.17712
281.16111
272.79718
261.97831
248.63216
232.72271
214.2508
193.25403
169.80607
144.01547
116.02372
86.004382
54.168977
20.756938
-13.972093
-49.732568
-86.213855
-123.08252
-159.98346
-196.54162
-232.36421
-267.04329
-300.15906
-331.2837
-359.98595
-385.83625
-408.41245
-427.30605
-442.12873
-452.51905
-458.14918
-458.73149
-454.02464
-443.83935
-428.04347
-406.56608
-379.39861
-346.59783
-308.30929
-264.7374
-216.13273
-162.80931
-105.13509
-43.525581
21.563375
89.644465
160.20819
232.73261
306.69313
381.57182
456.86619
532.09691
606.81438
680.60403
753.09016
823.9385
892.8574
959.59788
1023.9526
1085.7542
1144.8724
1201.2114
1254.7064
1305.32
1353.0385
1397.8686
1439.8337
1478.9707
1515.3271
1548.9578
1579.9228
1608.2846
1634.1061
1657.4483
1678.3686
1696.9183
1713.1412
1727.0708
1738.7195
1748.0902
1755.2484
1760.0879
1761.7592
27.69739
28.835525
46.726952
58.652936
71.682234
83.553646
94.929572
105.58071
115.55339
124.82515
133.40991
141.32594
148.60622
155.2956
161.45095
167.1403
172.4415
177.44067
182.23013
186.906
191.5654
196.30317
201.20852
206.36101
211.82686
217.65466
223.87178
230.48028
237.45435
244.73857
252.24518
259.83496
267.33866
274.57863
281.35089
287.42902
292.5726
296.53336
299.06155
299.91355
298.85864
295.68565
290.20912
282.27379
271.75889
258.58059
242.69379
224.09259
202.81019
178.91811
152.52483
123.77367
92.841747
59.947353
25.338673
-10.71575
-47.920412
-85.952873
-124.4664
-163.09099
-201.43512
-239.08791
-275.62189
-310.59635
-343.56139
-374.06283
-401.64758
-425.86978
-446.29742
-462.51932
-474.15227
-480.84824
-482.30133
-478.25434
-468.50487
-452.91082
-431.39475
-403.94504
-370.61924
-331.57133
-287.01703
-237.22004
-182.51195
-123.28192
-59.969946
6.9409935
76.934491
149.4708
223.99747
299.96002
376.81215
454.02522
531.09668
607.55703
682.97551
756.96398
829.17955
899.32554
967.15127
1032.4507
1095.0603
1154.8557
1211.749
1265.6842
1316.6337
1364.5943
1409.583
1451.6339
1490.794
1527.1206
1560.6776
1591.5334
1619.7582
1645.4213
1668.5899
1689.3261
1707.6854
1723.7155
1737.4534
1748.9158
1758.1118
1765.1121
1769.827
1771.4524
28.898142
29.976495
48.532182
60.796459
74.17208
86.284973
97.831103
108.56927
118.55025
127.75415
136.2004
143.91375
150.93489
157.31732
163.12732
168.4431
173.3533
177.95549
182.35395
186.65717
190.97495
195.41489
200.0788
205.05842
210.43142
216.25664
222.57019
229.38083
236.6671
244.37532
252.41631
260.64238
268.87309
276.91926
284.5618
291.5562
297.64176
302.54826
306.00294
307.73894
307.5027
305.06131
300.20929
292.77342
282.61745
269.64476
253.80017
235.07045
213.48411
189.11047
162.0582
132.47279
100.53535
66.472247
30.541788
-6.9777029
-45.779811
-85.529111
-125.86427
-166.39895
-206.72346
-246.40704
-285.00059
-322.04025
-357.05163
-389.55498
-419.07098
-445.12723
-467.2654
-485.04867
-498.06937
-505.95671
-508.38422
-505.07677
-495.81712
-480.45178
-458.89582
-431.13399
-397.22458
-357.33059
-311.6802
-260.55155
-204.29572
-143.32564
-78.108846
-9.1589875
62.97451
137.71752
214.48287
292.68212
371.73674
451.0885
530.2086
608.60529
685.82974
761.48017
835.20438
906.7005
975.71642
1042.0481
1105.5366
1166.0651
1223.5544
1277.9588
1329.2621
1377.4726
1422.6195
1464.7485
1503.9179
1540.1957
1573.6561
1604.3766
1632.4359
1657.911
1680.8758
1701.3983
1719.5397
1735.3526
1748.8793
1760.1423
1769.1577
1776.0022
1780.6005
1782.1827
30.116305
31.131409
50.397699
63.024329
76.77118
89.142737
100.87265
111.70683
121.70085
130.83683
139.1394
146.6395
153.38556
159.43983
164.87844
169.79033
174.27577
178.44469
182.41441
186.30704
190.24637
194.35417
198.74641
203.52857
208.79128
214.60523
221.01667
228.04237
235.66621
243.83697
252.46426
261.39126
270.42481
279.36325
287.97115
295.98407
303.11871
309.0803
313.57024
316.29544
316.97662
315.35633
311.20657
304.33401
294.58521
281.84938
266.06034
247.19697
225.28282
200.38508
172.61281
142.11409
109.07436
73.728843
36.346998
-2.7822468
-43.340715
-84.978998
-127.32001
-169.95975
-212.46883
-254.39475
-295.26478
-334.58956
-371.86765
-406.59098
-438.25104
-466.34587
-490.38772
-509.91102
-524.48066
-533.70025
-537.22011
-534.74481
-526.04016
-510.93962
-489.34939
-461.24968
-426.69935
-385.87079
-339.00579
-286.39888
-228.42279
-165.51712
-98.18038
-26.960943
47.55435
124.75234
204.00647
284.68975
366.18715
447.90706
529.29127
609.82312
689.03388
766.50693
841.88018
914.84661
985.15324
1052.5989
1117.0308
1178.3407
1236.4601
1291.3554
1343.0234
1391.486
1436.7858
1478.9819
1518.1457
1554.3571
1587.7018
1618.2677
1646.1429
1671.413
1694.1591
1714.4563
1732.3714
1747.9625
1761.2773
1772.3443
1781.1857
1787.8844
1792.3766
1793.9206
31.486697
32.470058
52.525489
65.553847
79.70517
92.35355
104.27401
115.19909
125.19043
134.23334
142.35879
149.60509
156.02939
161.70375
166.71507
171.164
175.16336
178.83649
182.31489
185.7355
189.23749
192.95835
197.02981
201.57286
206.69296
212.47444
218.9755
226.22251
234.2061
242.87857
252.14895
261.85113
271.7782
281.71414
291.40505
300.56379
308.8814
316.03509
321.69682
325.54369
327.26713
326.58197
323.23481
317.0098
307.73433
295.28203
279.57473
260.58287
238.32483
212.86572
184.31535
152.82489
118.58462
81.839773
42.872514
1.9833663
-40.496836
-84.203602
-128.74288
-173.69156
-218.5989
-262.98881
-306.36269
-348.20326
-387.9793
-425.15148
-459.17896
-489.52696
-515.67499
-537.12547
-553.41267
-564.11159
-568.84655
-567.29933
-559.21668
-544.41719
-522.79689
-494.3305
-459.07717
-417.21922
-369.01307
-314.77102
-254.88964
-189.83814
-120.14978
-46.411991
30.746109
110.66718
192.68002
276.11399
360.31286
444.64741
528.52644
611.40565
692.79436
772.25988
849.42973
923.99185
995.69305
1064.3362
1129.7759
1191.9143
1250.6953
1306.0994
1358.1381
1406.8486
1452.2888
1494.5327
1533.6659
1569.7821
1602.9794
1633.3573
1661.0144
1686.0458
1708.5412
1728.5831
1746.2454
1761.5926
1774.6783
1785.5375
1794.1988
1800.7503
1805.1379
1806.6444
32.89689
33.865046
54.770759
68.236385
82.825338
95.772456
107.89867
118.92188
128.90991
137.85127
145.78346
152.75234
158.82424
164.08154
168.62258
172.56053
176.02173
179.14404
182.07436
184.96589
187.97472
191.25577
194.95839
199.22101
204.16595
209.89318
216.4748
223.94857
232.31341
241.5263
251.49617
262.0472
272.95736
283.9948
294.88556
305.31742
314.95267
323.43704
330.40927
335.51274
338.40584
338.77213
336.32967
330.83747
322.10172
309.97894
294.37803
275.26046
252.6394
226.57807
197.18745
164.62242
129.07887
90.812831
50.120304
7.3145471
-37.260229
-83.223501
-130.16314
-177.63564
-225.16732
-272.25658
-318.37673
-362.98002
-405.50255
-445.37055
-482.00747
-514.84214
-543.31767
-566.90084
-585.09172
-597.43333
-603.52089
-603.01054
-595.62747
-581.17332
-559.53228
-530.67237
-494.65203
-451.66435
-401.98203
-345.93649
-283.95063
-216.52665
-144.23664
-67.712026
12.370359
95.303187
180.36472
266.83497
354.0112
441.22194
527.83914
613.28789
697.05351
778.68606
857.80235
934.08566
1007.2836
1077.2044
1143.7122
1206.7214
1266.1904
1322.116
1374.5266
1423.4768
1469.0419
1511.3124
1550.3901
1586.3834
1619.4043
1649.5652
1676.9759
1701.7419
1723.9619
1743.7269
1761.1179
1776.2061
1789.0516
1799.6956
1808.1729
1814.5764
1818.8605
1820.33
34.434685
35.432508
57.271482
71.220479
86.284834
99.55206
111.89278
123.00958
132.9781
141.79125
149.49418
156.14143
161.80947
166.59194
170.59954
173.95886
176.81077
179.30868
181.61617
183.90406
186.34699
189.11909
192.38935
196.31585
201.04003
206.67991
213.32385
221.02323
229.78725
239.57925
250.30863
261.79033
273.78621
286.04597
298.27335
310.12793
321.23942
331.21787
339.6643
346.18384
350.39746
351.95346
350.53782
345.88158
337.76746
326.03333
310.57422
291.3422
268.34515
241.64475
211.35357
177.63083
140.67941
100.76672
58.203857
13.318642
-33.530719
-81.946735
-131.49808
-181.71953
-232.11283
-282.1489
-331.27068
-378.8972
-424.42885
-467.25401
-506.75676
-542.32568
-573.36357
-599.29764
-619.58997
-633.74797
-641.33442
-641.97684
-635.37621
-621.31503
-599.66387
-570.38271
-533.52837
-489.30543
-438.00385
-379.97535
-315.6716
-245.63127
-170.46983
-90.868062
-7.5566755
78.700469
167.12442
256.93941
347.39018
437.75783
527.3732
615.62751
701.97992
785.96207
867.17984
945.31244
1020.1095
1091.3865
1159.0188
1222.9357
1283.1125
1339.5647
1392.3399
1441.5125
1487.1769
1529.4424
1568.4282
1604.2595
1637.0634
1666.9661
1694.0902
1718.5521
1740.4609
1759.9162
1777.0072
1791.8123
1804.3982
1814.8125
1823.096
1829.3459
1833.5236
1834.9553
36.021369
37.09178
59.937703
74.41729
89.997045
103.61015
116.1812
127.39602
137.33863
146.00668
153.4536
159.7432
164.96281
169.21806
172.63283
175.34809
177.52023
179.31946
180.92732
182.53388
184.33406
186.52325
189.29227
192.82126
197.27341
202.78741
209.47051
217.39022
226.56821
236.97598
248.52536
261.02141
274.20759
287.81416
301.52055
314.95484
327.71021
339.35641
349.45175
357.55801
363.25383
366.14769
365.88963
362.17948
354.77415
343.49124
328.21098
308.87577
285.48841
258.10951
226.854
191.88621
153.41733
111.727
67.142656
20.008126
-29.303952
-80.378322
-132.76351
-185.97135
-239.4775
-292.72344
-345.11935
-396.04821
-444.87142
-490.93585
-533.58219
-572.15455
-606.01106
-634.53497
-657.14614
-673.31234
-682.56017
-684.48514
-678.76104
-665.14863
-643.50275
-613.7736
-576.01517
-530.44404
-477.36879
-417.16291
-350.30946
-277.38741
-199.06059
-116.06526
-29.192862
60.728751
152.85586
246.34954
340.39538
434.2212
527.11206
618.42184
707.58132
794.10273
877.58101
957.69227
1034.1898
1106.8984
1175.7077
1240.564
1301.4629
1358.441
1411.568
1460.9405
1506.6743
1548.8994
1587.7546
1623.3831
1655.9285
1685.5322
1712.33
1736.4507
1758.0137
1777.1284
1793.8921
1808.391
1820.6983
1830.8682
1838.9473
1845.0365
1849.1039
1850.4963
37.704265
38.919159
62.860093
77.926903
94.065518
108.0504
120.86266
132.17069
142.06934
150.56209
157.71195
163.59315
168.30485
171.96562
174.71341
176.70444
178.11164
179.12309
179.93967
180.77218
181.83771
183.35499
185.53912
188.59501
192.71048
198.04804
204.73695
212.86387
222.46565
233.52435
245.95684
259.55793
274.05058
289.14414
304.49099
319.68382
334.27454
347.78719
359.73158
369.62026
376.9839
381.38604
382.43643
379.80019
373.20587
362.44917
347.3947
327.97502
304.18818
276.0944
243.81185
207.51096
167.41158
123.80753
77.044954
27.484223
-24.486976
-78.434817
-133.88678
-190.33059
-247.21428
-303.94796
-359.90654
-414.43401
-466.84926
-516.4537
-562.54031
-604.40409
-641.35374
-672.72385
-697.88739
-716.2682
-727.35268
-730.70071
-725.95574
-712.85402
-691.23236
-661.02925
-622.29448
-575.257
-520.24471
-457.65393
-388.00165
-311.9112
-230.10026
-143.36734
-52.572514
41.383897
137.58471
235.11951
333.10705
430.71537
527.1785
621.80924
714.00771
803.26575
889.1677
971.38782
1049.6851
1123.8966
1193.9286
1259.7483
1321.3742
1378.8674
1432.3229
1481.8617
1527.6239
1569.7624
1608.4374
1643.8117
1676.0471
1705.301
1731.724
1755.4575
1776.6327
1795.3685
1811.7716
1825.9355
1837.9406
1847.8475
1855.7083
1861.6271
1865.578
1866.9292
39.419493
40.865582
65.984184
81.700407
98.444783
112.83119
125.90042
137.30289
147.14482
155.43666
162.25194
167.67623
171.82145
174.81994
176.82459
178.00781
178.56007
178.68853
178.6148
178.57213
178.80171
179.54794
181.05288
183.54918
187.25262
192.35295
199.00504
207.31824
217.3478
229.08913
242.46684
257.2657
273.18623
289.91503
307.07499
324.2193
340.85332
356.44932
370.46195
382.34782
391.5831
397.6806
400.2048
398.78227
393.11046
382.96152
368.18377
348.70001
324.50421
295.65722
262.2817
224.55538
182.70772
137.04846
87.944565
35.773659
-19.061344
-76.107505
-134.87058
-194.81326
-255.3545
-315.87111
-375.70026
-434.14377
-490.47429
-543.94345
-593.79173
-639.25995
-679.60207
-714.0987
-742.07082
-762.89346
-776.00838
-780.93585
-777.28537
-764.76561
-743.19263
-712.49085
-672.70398
-624.07352
-566.9476
-501.74642
-429.02361
-349.45119
-263.80674
-172.95872
-77.844758
20.552608
121.23278
223.20423
325.51023
427.25166
527.6058
625.84034
721.32243
813.52284
902.01597
986.47601
1066.6704
1142.4514
1213.7461
1280.5458
1342.8958
1400.8854
1454.6378
1504.302
1550.0446
1592.0439
1630.4833
1665.5473
1697.4169
1726.2671
1752.2638
1775.5622
1796.3052
1814.6225
1830.6296
1844.4283
1856.1059
1865.7294
1873.3562
1879.0934
1882.9207
1884.2281
41.172385
42.978858
69.365461
85.80478
103.20519
118.02375
131.36232
142.85339
152.61685
160.67197
167.1042
172.01172
175.52026
177.77683
178.95008
179.22941
178.82378
177.96053
176.88331
175.84947
175.12636
174.98651
175.70182
177.536
180.73647
185.52426
192.08403
200.55197
211.00577
223.4577
237.843
253.93778
271.41859
289.94647
309.11195
328.424
347.33537
365.25949
381.58818
395.71428
407.05206
415.05689
419.24247
419.19258
414.57067
405.12377
390.68335
371.16282
346.55302
316.91673
282.38246
243.13657
199.41916
151.55782
99.942819
44.969908
-12.942736
-73.322655
-135.65337
-199.3717
-263.86624
-328.47859
-392.5056
-455.20363
-515.79509
-573.47717
-627.4326
-676.84237
-720.89992
-758.82601
-789.88404
-813.39495
-828.75109
-835.42884
-833.00003
-821.14239
-799.64833
-768.42549
-727.5093
-677.15371
-617.72713
-549.67418
-473.5876
-390.19263
-300.33347
-204.95717
-105.08922
-1.8056302
103.79803
210.63808
317.67231
423.9261
528.51361
630.65309
729.6764
825.03281
916.28786
1003.1181
1085.3027
1162.7131
1235.3011
1303.0868
1366.1466
1424.6016
1478.6071
1528.3432
1574.0063
1615.8022
1653.9401
1688.6275
1720.0664
1748.4503
1773.9616
1796.7698
1817.0304
1834.8839
1850.4554
1863.8547
1875.1761
1884.4929
1891.8678
1897.4102
1901.1053
1902.3659
42.886408
45.229274
72.96819
90.21559
108.32595
123.61152
137.235
148.81149
158.47651
166.25976
172.25997
176.58918
179.38787
180.81857
181.06648
180.33883
178.86392
176.89035
174.68521
172.53164
170.72531
169.56949
169.36908
170.4225
173.01298
177.39735
183.79487
192.37348
203.23814
216.42241
231.8742
249.36456
268.54551
289.04794
310.42759
332.14415
353.59083
374.11407
393.03397
409.67049
423.36737
433.51489
439.56966
441.06794
437.63618
428.9947
414.95795
395.43074
370.4022
339.93884
304.17695
263.31315
217.59962
167.384
113.08227
55.108846
-6.1032711
-70.062073
-136.2287
-204.01355
-272.77374
-341.81389
-410.38789
-477.70321
-542.92765
-605.19884
-663.63599
-717.35397
-765.47914
-807.16592
-841.61381
-868.08382
-885.91365
-894.53114
-893.46629
-882.36231
-860.98456
-829.22073
-787.09515
-734.87364
-672.94493
-601.77814
-522.00754
-434.41637
-339.92278
-239.5623
-134.4601
-25.798757
85.217815
197.40091
309.61144
420.78985
529.98005
636.34627
739.1829
837.91762
932.10889
1021.4387
1105.7022
1184.7945
1258.6974
1327.4646
1391.2084
1450.0865
1504.2902
1554.0342
1599.5479
1641.0672
1678.8292
1713.0663
1744.003
1771.8524
1796.8142
1819.0729
1838.7971
1856.1385
1871.2316
1884.1945
1895.1287
1904.1135
1911.2168
1916.5497
1920.103
1921.3136
44.505437
47.644722
76.819783
94.977357
113.85486
129.64422
143.56536
155.21831
164.75737
172.22504
177.73511
181.41483
183.4205
183.93096
183.14858
181.29905
178.63076
175.41452
171.94207
168.52403
165.48656
163.16646
161.90498
162.03932
163.89314
167.76424
173.91204
182.54198
193.79196
207.72199
224.29705
243.28668
264.31708
286.98533
310.80939
335.19385
359.46442
382.8911
404.71184
424.16316
440.50823
453.06346
461.22125
464.4652
462.38152
454.66251
441.10572
421.60859
396.16049
364.83391
327.77508
285.19277
237.35263
184.62489
127.45401
66.273571
1.5307551
-66.263115
-136.54694
-208.70444
-282.06039
-355.88069
-429.3737
-501.69435
-571.9512
-639.2167
-702.54012
-760.96325
-813.53805
-859.34534
-897.51378
-927.23809
-947.79563
-958.5608
-959.01754
-948.77067
-927.55498
-895.23453
-851.81914
-797.58543
-732.94132
-658.37964
-574.57807
-482.38274
-382.79391
-276.94681
-166.08002
-51.49799
65.471285
183.51913
301.39633
417.94762
532.13881
643.07523
750.01175
852.35492
949.65863
1041.6144
1128.0382
1208.8548
1284.0818
1353.8122
1418.1998
1477.4437
1531.7759
1581.4498
1626.7307
1667.8879
1705.1883
1738.8913
1769.2451
1796.4835
1820.8245
1842.4682
1861.5964
1878.3724
1892.9404
1905.4268
1915.9398
1924.565
1931.3748
1936.4823
1939.8831
1941.0399
45.896552
50.206516
80.890132
100.07901
119.78437
136.11953
150.35197
162.07202
171.45636
178.5625
183.52103
186.47581
187.59988
187.08906
185.16349
182.06779
178.07104
173.46708
168.57349
163.73001
159.29551
155.64319