/*--------------------------------*- C++ -*----------------------------------*\
| =========                 |                                                 |
| \\      /  F ield         | foam-extend: Open Source CFD                    |
|  \\    /   O peration     | Version:     4.1                                |
|   \\  /    A nd           | Web:         http://www.foam-extend.org         |
|    \\/     M anipulation  |                                                 |
\*---------------------------------------------------------------------------*/
FoamFile
{
    version     2.0;
    format      ascii;
    class       volScalarField;
    location    "0.35";
    object      p;
}
// * * * * * * * * * * * * * * * * * * * * * * * * * * * * * * * * * * * * * //

dimensions      [0 2 -2 0 0 0 0];

internalField   nonuniform List<scalar> 
16796
(
-7.447654
0.55784001
6.15629
11.494163
16.697331
21.872463
27.07433
32.33491
37.672661
43.096477
48.607456
54.199584
59.860077
65.56946
71.301722
77.02441
82.698952
88.280956
93.720796
98.964164
103.9529
108.62577
112.91938
116.76826
120.10643
122.86959
124.99536
126.42402
127.09954
126.97049
125.99098
124.12167
121.33028
117.59132
112.88676
107.20769
100.55465
92.937559
84.3762
74.900466
64.550859
53.378753
41.446777
28.829192
15.612181
1.8941738
-12.213919
-26.588516
-41.093321
-55.579413
-69.885517
-83.83849
-97.254074
-109.93787
-121.68667
-132.29002
-141.53214
-149.19411
-155.05625
-158.90081
-160.51472
-159.69255
-156.23942
-149.97391
-140.73085
-128.36399
-112.74831
-93.782371
-71.389616
-45.52006
-16.151901
16.70875
53.031543
92.762205
135.80767
182.01242
231.21293
283.25492
337.94981
395.0833
454.42037
515.70808
578.67842
643.05133
708.53799
774.84419
841.67385
908.73251
975.7308
1042.3878
1108.434
1173.6144
1237.6908
1300.4436
1361.674
1421.2044
1478.8799
1534.5676
1588.1573
1639.5603
1688.7087
1735.5542
1780.0667
1822.2329
1862.0544
1899.5461
1934.7345
1967.656
1998.3552
2026.8837
2053.2991
2077.6639
2100.0425
2120.4986
2139.101
2155.9258
2171.062
2184.6275
2196.7358
2207.354
2216.3862
2224.7159
2236.4085
2253.5235
-5.3669334
1.0363954
6.3465219
11.565439
16.719268
21.871277
27.062284
32.318833
37.657071
43.084831
48.602695
54.204369
59.876899
65.600679
71.349571
77.090973
82.786135
88.390496
93.854267
99.122909
104.13797
108.83774
113.15839
117.03342
120.39645
123.18347
125.33189
126.78178
127.47693
127.36563
126.40175
124.5457
121.76482
118.03277
113.33076
107.64976
100.99014
93.361552
84.783601
75.285994
64.909082
53.704097
41.733581
29.071724
15.804697
2.0309725
-12.138437
-26.579777
-41.156501
-55.719356
-70.106646
-84.144717
-97.648707
-110.42353
-122.26519
-132.96239
-142.29844
-150.05343
-156.00669
-159.93946
-161.63765
-160.89485
-157.51528
-151.31665
-142.13306
-129.81764
-114.24484
-95.312952
-72.945236
-47.091786
-17.731186
15.128365
51.446756
91.153947
134.15915
180.36158
229.61911
281.74482
336.53868
393.78225
453.23822
514.65213
577.75464
642.26446
707.89147
774.34009
841.31277
908.51355
975.65152
1042.4442
1108.6208
1173.9248
1238.1168
1300.9763
1362.3034
1421.9202
1479.671
1535.423
1589.0658
1640.5109
1689.6906
1736.5573
1781.0813
1823.25
1863.0656
1900.5438
1935.7118
1968.6065
1999.273
2027.7633
2054.1344
2078.4473
2100.7676
2121.1646
2139.7065
2156.4617
2171.5125
2184.9597
2196.8834
2207.2487
2216.0746
2224.1233
2233.5024
2242.8194
-3.7672812
1.5016173
6.3698994
11.355341
16.373153
21.436686
26.566199
31.779515
37.089008
42.500875
48.014994
53.624763
59.317049
65.072065
70.863416
76.658121
82.416969
88.094822
93.640965
98.999541
104.11048
108.91101
113.33591
117.31953
120.79587
123.69806
125.96115
127.52319
128.32576
128.31531
127.4436
125.66854
122.95482
119.27587
114.61396
108.95893
102.30943
94.674039
86.07136
76.530439
66.09116
54.80453
42.733098
29.951295
16.545777
2.6157441
-11.726815
-26.356929
-41.136596
-55.91488
-70.528187
-84.800766
-98.545483
-111.56483
-123.65227
-134.59388
-144.17028
-152.1589
-158.33642
-162.48149
-164.37759
-163.81601
-160.59885
-154.54195
-145.47775
-133.25797
-117.75583
-98.868875
-76.519558
-50.65727
-21.260755
11.660646
48.065646
87.88482
131.02237
177.36385
226.76534
279.04974
334.0192
391.45536
451.11999
512.75707
576.09536
640.85139
706.73259
773.44075
840.67556
908.13816
975.53476
1042.5801
1109.0005
1174.5371
1238.9483
1302.0116
1363.5258
1423.3115
1481.2126
1537.0957
1590.8507
1642.3892
1691.6445
1738.5696
1783.1364
1825.3334
1865.1645
1902.6468
1937.8092
1970.6904
2001.3371
2029.803
2056.1465
2080.4301
2102.7195
2123.0836
2141.592
2158.3163
2173.3381
2186.7448
2198.5919
2208.8733
2217.7479
2225.7703
2233.4191
2238.2844
-2.9696167
1.9265795
6.5317986
11.3391
16.240703
21.226782
26.304031
31.483131
36.772846
42.177578
47.696303
53.321937
59.04102
64.833471
70.672539
76.524843
82.350627
88.103738
93.731866
99.178462
104.3833
109.28279
113.81053
117.89923
121.48112
124.48835
126.85469
128.51678
129.41489
129.49401
128.70446
127.00272
124.352
120.72361
116.09743
110.46192
103.81483
96.163569
87.525688
77.929297
67.413515
56.028757
43.837196
30.913117
17.343293
3.227318
-11.322125
-26.179063
-41.204174
-56.244885
-71.135652
-85.698476
-99.743697
-113.07103
-125.47095
-136.72639
-146.61468
-154.90992
-161.38544
-165.8166
-167.98373
-167.67511
-164.69009
-158.842
-149.96109
-137.89726
-122.52208
-103.7322
-81.448777
-55.62027
-26.225887
6.7225659
43.185008
83.09688
126.36486
172.8703
222.46593
274.97571
330.20011
387.91827
447.88938
509.85468
573.53997
638.65842
704.91383
772.00403
839.62448
907.47198
975.24835
1042.664
1109.4412
1175.3173
1240.0472
1303.4056
1365.1888
1425.216
1483.3296
1539.3958
1593.3043
1644.9674
1694.3192
1741.3141
1785.9254
1828.1437
1867.9748
1905.4379
1940.5639
1973.3937
2003.976
2032.3661
2058.6243
2082.8146
2105.0037
2125.2599
2143.6523
2160.2523
2175.1374
2188.3814
2200.0258
2210.0982
2218.8188
2226.5111
2232.9738
2236.231
-2.7626377
2.0074645
6.4348731
11.086399
15.867015
20.762504
25.773816
30.907652
36.170497
41.565576
47.091303
52.740307
58.498921
64.346812
70.256886
76.195217
82.120899
87.985738
93.736867
99.317425
104.6659
109.71669
114.40166
118.65123
122.39516
125.56347
128.0877
129.902
130.9442
131.15677
130.48765
128.89105
126.32825
122.76845
118.18919
112.57693
105.92814
98.24867
89.554874
79.873824
69.243856
57.714874
45.348844
32.220167
18.416076
4.036989
-10.803216
-25.976982
-41.343014
-56.746368
-72.018744
-86.979019
-101.43406
-115.17979
-128.00263
-139.68123
-149.98851
-158.69402
-165.56657
-170.37708
-172.90155
-172.92419
-170.24056
-164.66058
-156.01149
-144.14063
-128.91738
-110.23712
-88.019118
-62.211064
-32.793354
0.2192343
36.786653
76.843732
120.29711
167.02641
216.88324
269.69199
325.25241
383.34182
443.71688
506.11567
570.26022
635.8594
702.61216
770.21108
838.34599
906.7079
974.99274
1042.9051
1110.162
1176.4954
1241.6559
1305.4144
1367.564
1427.9215
1486.328
1542.6489
1596.774
1648.6162
1698.1111
1745.2147
1789.9028
1832.1684
1872.0201
1909.48
1944.5821
1977.3697
2007.8946
2036.2143
2062.3912
2086.491
2108.5816
2128.7314
2147.0089
2163.4835
2178.226
2191.2955
2202.7248
2212.556
2220.9822
2228.104
2233.5418
2235.9841
-2.6991015
2.0515336
6.3706885
10.906101
15.585524
20.39993
25.350024
30.44132
35.679389
41.06697
46.602286
52.277912
58.080118
63.988465
69.975627
76.006878
82.039592
88.024603
93.90937
99.635365
105.13913
110.35343
115.2081
119.63131
123.5505
126.89329
129.58876
131.56853
132.76778
133.12629
132.58929
131.10835
128.6422
125.15747
120.62927
115.04166
108.38893
100.67519
91.915371
82.135145
71.37175
59.674292
47.104266
33.735964
19.656897
4.9681764
-10.21518
-25.764013
-41.534945
-57.370464
-73.099213
-88.53654
-103.48532
-117.7371
-131.0735
-143.26811
-154.08854
-163.29887
-170.66242
-175.94462
-178.91615
-179.35613
-177.05539
-171.8195
-163.47187
-151.85643
-136.83978
-118.31513
-96.199344
-70.438914
-41.015469
-7.9441617
28.735978
68.959298
112.63194
159.63188
209.80919
262.98702
318.96336
377.513
438.38931
501.32642
566.04165
632.23849
699.60979
767.84146
836.61625
905.61774
974.53444
1043.0636
1110.9152
1177.8149
1243.5075
1307.7589
1370.3585
1431.1201
1489.883
1546.5117
1600.896
1652.9499
1702.6105
1749.8364
1794.6062
1836.9161
1876.7783
1914.2188
1949.2752
1981.9949
2012.4328
2040.6503
2066.7128
2090.6888
2112.6482
2132.661
2150.7969
2167.125
2181.7118
2194.6096
2205.8517
2215.4875
2223.6611
2230.3226
2235.0937
2237.11
-2.8281444
1.8943345
6.1181552
10.546419
15.125825
19.855712
24.739768
29.784522
34.995984
40.377228
45.926793
51.637516
57.495787
63.481243
69.56617
75.714542
81.881841
88.019515
94.073518
99.983045
105.68269
111.10282
116.17076
120.81187
124.95057
128.51141
131.42029
133.60553
134.999
135.53716
135.16196
133.82178
131.47225
128.07706
123.60845
118.04776
111.38677
103.6279
94.784255
84.880036
73.95131
62.046393
49.226357
35.565495
21.151767
6.0872161
-9.5117014
-25.513853
-41.773335
-58.129541
-74.407455
-90.418202
-105.9599
-120.81883
-134.77092
-147.58367
-159.01832
-168.83239
-176.78257
-182.62769
-186.13203
-187.06861
-185.22252
-180.39419
-172.40245
-161.08717
-146.31193
-127.96726
-105.96759
-80.258423
-50.822538
-17.675435
19.143271
59.567726
103.50365
150.82802
201.38972
255.01051
311.48644
370.58946
432.06927
495.65535
561.05948
627.97865
696.09837
765.09646
834.64698
904.42451
974.1084
1043.387
1111.9615
1179.55
1245.8901
1310.7418
1373.8898
1435.1444
1494.3424
1551.3476
1606.0497
1658.3639
1708.2295
1755.6079
1800.4811
1842.8494
1882.7292
1920.1509
1955.1564
1987.7974
2018.1333
2046.229
2072.1535
2095.9782
2117.7752
2137.6162
2155.5717
2171.7102
2186.0947
2198.7741
2209.7851
2219.1785
2227.0589
2233.3095
2237.6196
2239.3847
-2.9820053
1.715817
5.8547611
10.186336
14.671994
19.319824
24.137991
29.135428
34.319621
39.694691
45.259988
51.008955
56.928364
62.998122
69.189938
75.46616
81.78189
88.088489
94.329457
100.44223
106.35918
112.0081
117.31352
122.19771
126.58175
130.38675
133.53499
135.95109
137.56317
138.3039
138.11147
136.9306
134.71331
131.41986
127.01922
121.48955
114.81966
107.00976
98.070865
88.025348
76.907854
64.765666
51.659236
37.662716
22.864435
7.3673539
-8.7105636
-25.236059
-42.060454
-59.0197
-75.934663
-92.611682
-108.84344
-124.41017
-139.08122
-152.61701
-164.77134
-175.29407
-183.93406
-190.44238
-194.57571
-196.09979
-194.79293
-190.44934
-182.88238
-171.92702
-157.44317
-139.31801
-117.4631
-91.82252
-62.379775
-29.150859
7.8240824
48.478788
92.718304
140.41846
191.42677
245.56323
302.6215
362.37031
424.55511
488.90008
555.11053
622.87583
691.87285
761.76977
832.23034
902.91836
973.50224
1043.6596
1113.0815
1181.4765
1248.5738
1314.1266
1377.9138
1439.7417
1499.4445
1556.8848
1611.9528
1664.5651
1714.6637
1762.2137
1807.2012
1849.6316
1889.5263
1926.9213
1961.8639
1994.4114
2024.628
2052.5837
2078.3517
2102.0073
2123.6256
2143.2808
2161.0448
2176.9857
2191.1646
2203.6287
2214.416
2223.5726
2231.1749
2237.0856
2241.0688
2242.6723
-3.2318231
1.4166647
5.460944
9.6915232
14.079553
18.641043
23.389209
28.336279
33.492023
38.862243
44.447583
50.242413
56.234156
62.403008
68.720035
75.146276
81.636739
88.141224
94.601194
100.95191
107.12305
113.03942
118.62223
123.7901
128.46025
132.54972
135.97658
138.66116
140.5272
141.503
141.52244
140.52605
138.46168
135.28575
130.96348
125.46947
118.78923
110.92063
101.87216
91.664296
80.330121
67.915776
54.481042
40.099923
24.861173
8.8687865
-7.7575822
-24.882286
-42.353526
-60.003374
-77.648043
-95.088444
-112.11108
-128.48929
-143.98488
-158.35016
-171.3304
-182.66658
-192.09856
-199.36844
-204.22409
-206.42286
-205.73523
-201.94826
-194.86902
-184.32694
-170.17775
-152.30492
-130.61696
-105.05638
-75.607178
-42.286279
-5.1342559
35.782273
80.367756
128.49706
180.01632
234.74371
292.47031
352.96131
415.95749
481.17703
548.31788
617.06067
687.07219
758.00941
829.52396
901.26696
972.89395
1044.0699
1114.4737
1183.8029
1251.777
1318.1407
1382.6665
1445.1558
1505.44
1563.3803
1618.8674
1671.8199
1722.1828
1769.9254
1815.0391
1857.5347
1897.4399
1934.7969
1969.6594
2002.0908
2032.1615
2059.9468
2085.5254
2108.9769
2130.3806
2149.8138
2167.3509
2183.0611
2197.0056
2209.2324
2219.7813
2228.6939
2236.0305
2241.6553
2245.3939
2246.8841
-3.5042678
1.0854372
5.0268103
9.1514835
13.437688
17.908497
22.582307
27.47516
32.599701
37.96395
43.570299
49.414375
55.484618
61.76155
68.215555
74.806625
81.489652
88.212694
94.915145
101.52987
107.98357
114.19775
120.08991
125.57461
130.56473
134.97274
138.71199
141.69793
143.84939
145.08975
145.34801
144.55994
142.66872
139.6264
135.39393
129.94201
123.25242
115.31988
106.15017
95.761748
84.185794
71.467081
57.664541
42.851916
27.11833
10.568827
-6.6751496
-24.475378
-42.676652
-61.106769
-79.576779
-97.881535
-115.80061
-133.09955
-149.53164
-164.83998
-178.76008
-191.02279
-201.35764
-209.49639
-215.17681
-218.14655
-218.16703
-215.01711
-208.49659
-198.42855
-184.66392
-167.08203
-145.58794
-120.12237
-90.669686
-57.24803
-19.898748
21.311018
66.285051
114.89724
166.99236
222.38665
280.86852
342.19938
406.1149
472.32669
540.52443
610.37882
681.54514
753.66743
826.3833
899.32913
972.14548
1044.4825
1116.0053
1186.3982
1255.3696
1322.6546
1388.0181
1451.2562
1512.1969
1570.7005
1626.6582
1679.9909
1730.6476
1778.6028
1823.8537
1866.4179
1906.3303
1943.6403
1978.4092
2010.7075
2040.6125
2068.206
2093.5725
2116.7968
2137.9629
2157.1519
2174.4409
2189.9013
2203.5952
2215.5729
2225.8759
2234.5431
2241.6285
2247.0079
2250.5529
2251.9572
-3.8409863
0.66970017
4.4923164
8.4996215
12.674636
17.046743
21.639512
26.473151
31.563649
36.921709
42.551877
48.451374
54.609978
61.008499
67.616398
74.393525
81.294223
88.264157
95.240644
102.15378
108.92694
115.47788
121.7199
127.56296
132.91507
137.68351
141.77629
145.10338
147.57808
149.11822
149.64734
149.09586
147.40174
144.51211
140.38321
134.98142
128.28429
120.28281
110.9802
100.39251
88.548837
75.492403
61.281173
45.988548
29.703997
12.533659
-5.3991154
-23.953324
-42.970055
-62.272424
-81.665794
-100.93831
-119.86183
-138.19323
-155.67621
-172.04352
-187.01966
-200.32404
-211.67446
-220.79097
-227.39983
-231.23771
-232.05578
-229.62356
-223.73271
-214.19921
-200.86863
-183.61585
-162.34228
-136.98668
-107.53366
-74.002873
-36.436658
5.0973606
50.502396
99.651439
152.38801
208.5265
267.8526
330.12385
395.07049
462.39693
531.78375
602.89048
675.35933
748.81955
822.89263
897.19794
971.35871
1045.0081
1117.7947
1189.3882
1259.4838
1327.8058
1394.1103
1458.1875
1519.8619
1578.9923
1635.471
1689.222
1740.1988
1788.3818
1833.7754
1876.4049
1916.3136
1953.5594
1988.212
2020.3502
2050.0593
2077.4287
2102.5495
2125.5129
2146.4082
2165.3213
2182.3331
2197.5177
2210.94
2222.6527
2232.6996
2241.1191
2247.9648
2253.1261
2256.5092
2257.8438
-4.2119003
0.20602609
3.8941175
7.7709482
11.82337
16.086667
20.589583
25.356766
30.407942
35.756928
41.410797
47.368704
53.622009
60.151954
66.927454
73.908317
81.047686
88.289146
95.567668
102.81031
109.93683
116.86081
123.49088
129.73192
135.48645
140.65604
145.14268
148.85028
151.68593
153.5613
154.39383
154.108
152.63598
149.91938
145.90929
140.56725
133.86604
125.79245
116.34678
105.54247
93.406211
79.979448
65.318991
49.497756
32.60548
14.749386
-3.9451947
-23.33432
-43.255099
-63.525576
-83.944906
-104.29387
-124.3358
-143.81795
-162.47334
-180.02311
-196.17942
-210.64877
-223.13572
-233.34705
-240.996
-245.80677
-247.51889
-245.89136
-240.70664
-231.77281
-218.92942
-202.0466
-181.02186
-155.79185
-126.34148
-92.692387
-54.888383
-12.99773
32.882208
82.623625
136.06895
193.03091
253.29264
316.60778
382.70097
451.26895
521.98229
594.48817
668.41405
743.37243
818.96637
894.79574
970.46387
1045.5842
1119.7869
1192.7243
1264.0768
1333.5561
1400.909
1465.9187
1528.4058
1588.2281
1645.2794
1699.4872
1750.8105
1799.2369
1844.7789
1887.471
1927.3657
1964.5308
1999.0457
2030.9986
2060.4837
2087.5988
2112.4428
2135.1139
2155.7075
2174.3149
2191.0217
2205.9059
2219.0356
2230.4672
2240.2473
2248.4158
2255.0289
2259.99
2263.2302
2264.5047
-4.6362737
-0.32960597
3.2046524
6.9345121
10.849913
14.991859
19.394345
24.086735
29.09286
34.430057
40.108286
46.128976
52.485281
59.159128
66.119193
73.32486
80.727963
88.270029
95.883371
103.4917
111.01073
118.34943
125.41125
132.09538
138.29828
143.9151
148.84122
152.97372
156.21286
158.46347
159.63621
159.64897
158.42754
155.90738
152.03394
146.76339
140.06322
131.91547
122.31742
111.27955
98.82589
84.995898
69.8451
53.445762
35.887811
17.279533
-2.2517075
-22.558871
-43.474832
-64.812184
-86.363355
-107.90109
-129.17939
-149.93486
-169.88872
-188.74922
-206.21473
-221.97727
-235.7266
-247.15454
-255.9597
-261.85223
-264.55861
-263.82604
-259.42673
-251.16008
-238.859
-222.38867
-201.6426
-176.55526
-147.11196
-113.33676
-75.275396
-32.996813
13.401112
63.789959
118.01135
175.87669
237.16684
301.63174
368.99035
438.93132
511.11445
585.17321
660.71862
737.34418
814.63199
892.15963
969.50758
1046.2668
1122.0459
1196.478
1269.2262
1339.9882
1408.5
1474.5374
1537.9169
1598.4953
1656.1684
1710.8681
1762.5601
1811.2401
1856.9304
1899.6757
1939.5395
1976.6008
2010.9497
2042.6853
2071.9118
2098.7365
2123.2671
2145.6095
2165.8664
2184.1351
2200.5065
2215.0632
2227.8778
2239.0104
2248.5112
2256.4232
2262.8067
2267.5776
2270.6861
2271.906
-5.105729
-0.92786462
2.4316573
5.995611
9.7568001
13.762004
18.050655
22.657136
27.609768
32.929819
38.63051
44.7159
51.181217
58.009345
65.168926
72.618729
80.309267
88.179931
96.160136
104.16993
112.12061
119.91603
127.45392
134.6272
141.3256
147.43719
152.85001
157.45365
161.14076
163.80862
165.36045
165.70686
164.76666
162.46847
158.7516
153.56634
146.87436
138.65233
128.89415
117.60706
104.81217
90.546703
74.864655
57.83745
39.555066
20.126782
-0.31799044
-21.62901
-43.63469
-66.141814
-88.935577
-111.78002
-134.41893
-156.57729
-177.96324
-198.27075
-217.18286
-234.37545
-249.52162
-262.29646
-272.38212
-279.47295
-283.28075
-283.53951
-280.01002
-272.48213
-260.78147
-244.76812
-224.33147
-199.40386
-169.97123
-136.06085
-97.72105
-55.021691
-8.0611367
43.031816
98.098397
156.94923
219.36341
285.08756
353.83514
425.28646
499.08974
574.86351
652.20043
730.67264
809.83842
889.24993
968.46155
1047.0385
1124.5649
1200.6515
1274.9423
1347.1191
1416.9058
1484.0701
1548.4241
1609.8242
1668.1686
1723.3948
1775.4763
1824.4185
1870.2546
1913.0413
1952.8547
1989.786
2023.9381
2055.4217
2084.3526
2110.8484
2135.0266
2157.002
2176.8849
2194.7799
2210.7837
2224.9844
2237.4594
2248.2734
2257.4808
2265.1284
2271.2812
2275.8662
2278.8484
2280.0165
-5.6278926
-1.5988356
1.5625683
4.9391305
8.5264411
12.377279
16.536799
21.044766
25.934398
31.231319
36.952397
43.104688
49.685781
56.679795
64.055468
71.770863
79.775086
88.005257
96.387638
104.83827
113.26359
121.56185
129.62445
137.3374
144.58302
151.24155
157.19294
162.31848
166.50251
169.63397
171.60787
172.32684
171.70204
169.65457
166.11703
161.03316
154.35844
146.06352
136.13857
124.58715
111.42735
96.693943
80.439126
62.733284
43.666281
23.348292
1.9107533
-20.492815
-43.68617
-67.469953
-91.621628
-115.89585
-140.02536
-163.72238
-186.68075
-208.57867
-229.08215
-247.84912
-264.53413
-278.79353
-290.291
-298.70322
-303.72554
-305.07724
-302.50643
-295.79258
-284.75339
-269.24379
-249.14915
-224.39978
-194.98265
-160.92913
-122.29084
-79.138795
-31.571779
20.281368
76.262069
136.18088
199.81595
266.91125
337.17508
410.27934
485.86006
563.51943
642.82975
723.33912
804.57884
886.07209
967.3434
1047.9285
1127.3837
1205.2944
1281.2826
1355.0124
1426.1943
1494.5872
1559.9989
1622.2855
1681.3486
1737.1326
1789.6201
1838.8278
1884.8017
1927.6122
1967.3496
2004.1191
2038.0376
2069.2292
2097.8222
2123.946
2147.7287
2169.2949
2188.7636
2206.2469
2221.8485
2235.6623
2247.7713
2258.2451
2267.1427
2274.5155
2280.4329
2284.832
2287.6897
2288.807
-6.2044046
-2.3459785
0.5912167
3.7558578
7.1463979
10.821981
14.833871
19.227648
24.041885
29.307025
35.044012
41.263299
47.965173
55.135283
62.74262
70.744525
79.088599
87.709558
96.530249
105.46235
114.40699
123.25624
131.89458
140.2004
148.04784
155.30857
161.8536
167.55515
172.28836
175.93305
178.37529
179.50892
179.23676
177.4717
174.13904
169.17526
162.52937
154.16564
144.06924
132.23976
118.69261
103.45962
86.590892
68.155494
48.242959
26.964203
4.4526017
-19.13502
-43.617619
-68.789393
-94.419607
-120.25286
-146.00994
-171.38922
-196.06886
-219.70968
-241.95889
-262.45445
-280.83021
-296.72157
-309.77153
-319.63693
-325.99474
-328.54779
-327.03014
-321.20993
-310.89628
-295.93902
-276.21965
-251.66679
-222.26902
-188.0631
-149.10498
-105.46709
-57.248712
-4.5782652
52.386626
113.45749
178.41263
246.99441
318.90667
393.81308
471.33692
551.06274
632.54028
715.29066
798.81457
882.60216
966.14391
1048.9418
1130.5204
1210.4362
1288.2865
1363.7156
1436.419
1506.1463
1572.7009
1635.9392
1695.7675
1752.1381
1805.0447
1854.5172
1900.6163
1943.4279
1983.0584
2019.6291
2053.2721
2084.1267
2112.3349
2138.0391
2161.3792
2182.4904
2201.5012
2218.5321
2233.6942
2247.088
2258.8022
2268.912
2277.4814
2284.5662
2290.2405
2294.4502
2297.1822
2298.2486
-6.8385476
-3.1745514
-0.49024075
2.4352426
5.6034135
9.0802638
12.923648
17.185461
21.910138
27.133448
32.880867
39.166673
45.994199
53.350936
61.206303
69.516909
78.228745
87.273969
96.571745
106.02899
115.54106
124.99326
134.26244
143.21865
151.72705
159.64987
166.84833
173.18466
178.52398
182.7361
185.69727
187.29179
187.41335
185.96594
182.86681
178.04459
171.44146
163.01474
152.74324
140.62282
126.66621
110.90187
93.377529
74.160623
53.340102
31.027416
7.3577477
-17.508807
-43.38631
-70.062264
-97.297293
-124.82529
-152.35418
-179.56733
-206.12579
-231.67132
-255.83035
-278.2187
-298.44719
-316.12781
-330.8804
-342.33962
-350.16183
-354.03152
-353.66724
-348.82475
-339.30405
-324.94996
-305.64057
-281.3033
-251.92918
-217.56198
-178.26293
-134.10644
-85.192406
-31.648241
26.370401
88.677378
155.05271
225.2386
298.93553
375.79944
455.44048
537.42422
621.27549
706.48509
792.51903
878.82976
964.86878
1050.0996
1134.0103
1216.1247
1296.0122
1373.2948
1447.6519
1518.8228
1586.6067
1650.8612
1711.4985
1768.4808
1821.8147
1871.5456
1917.7509
1960.5345
2000.0207
2036.3488
2069.6684
2100.1349
2127.9059
2153.138
2175.9838
2196.5901
2215.0957
2231.6301
2246.3125
2259.2503
2270.5387
2280.2584
2288.4787
2295.2601
2300.6809
2304.695
2307.2979
2308.3122
-7.5358757
-4.0931957
-1.6939005
0.96160832
3.8781363
7.1291035
10.779527
14.8882
19.506002
24.674588
30.424486
36.77427
43.730726
51.283543
59.402783
68.044341
77.152478
86.656646
96.472031
106.50039
116.63075
126.74103
136.69973
146.36773
155.60035
164.24945
172.16553
179.1999
185.20667
190.04477
193.57972
195.68545
196.24569
195.15488
192.32134
187.66548
181.12204
172.64037
162.19233
149.77019
135.3835
119.05707
100.83586
80.785403
58.993706
35.572483
10.658514
-15.584936
-42.967008
-71.26832
-100.24045
-129.60595
-159.05899
-188.26672
-216.87156
-244.4944
-270.73875
-295.1959
-317.45104
-337.08998
-353.70666
-366.91081
-376.33572
-381.6454
-382.54115
-378.76534
-370.10815
-356.40977
-337.54541
-313.4421
-284.09454
-249.55545
-209.89308
-165.18446
-115.53009
-61.055761
-1.913867
61.713586
129.6104
201.52063
277.14306
356.12677
438.06869
522.51409
608.96032
696.86413
785.65212
874.73369
963.51569
1051.4175
1137.8856
1222.4068
1304.5187
1383.8186
1459.9681
1532.6958
1601.797
1667.1317
1728.6194
1786.2343
1839.9985
1889.975
1936.2609
1978.9802
2018.2776
2054.3124
2087.2536
2117.2748
2144.5503
2169.2521
2191.547
2211.594
2229.5431
2245.5335
2259.6929
2272.1362
2282.965
2292.2662
2300.1142
2306.5746
2311.7289
2315.5389
2318.0078
2318.9682
-8.2991604
-5.1070498
-3.0280788
-0.67666161
1.9556283
4.9503157
8.3802409
12.311755
16.802827
21.901621
27.64428
34.05419
41.142016
48.900044
57.299236
66.294798
75.829145
85.828873
96.204892
106.85335
117.65641
128.48388
139.19514
149.64102
159.66605
169.11073
177.81384
185.61472
192.35549
197.88316
202.05161
204.72349
205.77168
205.08037
202.54807
198.08651
191.62227
183.09602
172.47175
159.7382
144.90151
127.98239
109.02271
88.08579
65.258286
40.651827
14.404506
-13.317442
-42.318297
-72.371668
-103.21976
-134.57317
-166.11142
-197.48421
-228.31375
-258.19809
-286.71553
-313.43023
-337.89879
-359.67783
-378.33224
-393.44377
-404.6198
-411.50142
-413.77083
-411.15577
-403.43605
-390.44767
-372.06389
-348.21249
-318.89346
-284.17093
-244.12218
-198.8278
-148.38905
-92.9293
-32.596063
32.435117
101.95454
175.71087
253.40347
334.676
419.11239
506.23632
595.51488
686.36653
778.17299
870.2944
962.08632
1052.9175
1142.1869
1229.339
1313.8758
1395.3669
1473.4545
1547.8562
1618.3639
1684.841
1747.217
1805.4804
1859.6713
1909.8735
1956.2064
1998.817
2037.8729
2073.556
2106.0564
2135.5677
2162.2829
2186.3906
2208.0724
2227.5011
2244.8382
2260.2333
2273.823
2285.7302
2296.0632
2304.915
2312.3655
2318.4847
2323.3576
2326.9531
2329.2817
2330.1856
-9.1351319
-6.2265906
-4.5073459
-2.4983022
-0.18707457
2.5167306
5.6945314
9.4209876
13.761891
18.772612
24.495541
30.959456
38.179386
46.150677
54.845501
64.218418
74.209875
84.743459
95.725482
107.04601
118.57971
130.18755
141.71892
153.01363
163.9044
174.2193
183.78428
192.42561
199.97231
206.25846
211.12525
214.4231
216.01315
215.76859
213.57716
209.34146
202.97921
194.42182
183.6243
170.57169
155.26662
137.72521
117.98592
96.109539
72.180831
46.310905
18.63877
-10.666663
-41.404965
-73.342716
-106.21248
-139.71236
-173.50632
-207.22538
-240.46987
-272.8129
-303.80506
-332.98044
-359.8639
-383.97936
-404.8591
-422.05341
-435.14051
-443.73577
-447.50008
-446.14526
-439.44011
-427.21712
-409.3489
-385.76556
-356.47455
-321.55459
-281.09458
-235.17997
-183.91306
-127.41391
-65.823077
0.69331456
71.935626
147.66075
227.5718
311.30916
398.44436
488.47839
580.84497
674.9194
770.03224
865.48702
960.58029
1054.6226
1146.9584
1236.9838
1324.1609
1408.0285
1488.2076
1564.4044
1636.4086
1704.0888
1767.3867
1826.3081
1880.9147
1931.3143
1977.6517
2020.1
2058.8528
2094.1168
2126.1058
2155.0353
2181.1181
2204.5612
2225.5624
2244.3085
2260.9736
2275.7182
2288.6882
2300.0146
2309.8128
2318.1819
2325.2073
2330.9634
2335.538
2338.907
2341.0877
2341.9322
-10.047573
-7.4587176
-6.142582
-4.5182995
-2.5691071
-0.19488162
2.6952222
6.1850152
10.348925
15.250298
20.938476
27.448251
34.799547
42.991296
51.997247
61.771382
72.25206
83.35972
94.995739
107.04359
119.3698
131.82567
144.24965
156.46948
168.30498
179.5706
190.07826
199.63997
208.07049
215.18979
220.82532
224.81423
227.00498
227.25893
225.45215
221.47751
215.24313
206.67075
195.70532
182.32776
166.53672
148.34391
127.78399
104.91461
79.818126
52.604584
23.413409
-7.5842394
-40.183507
-74.144029
-109.18856
-145.00225
-181.23266
-217.49085
-253.35351
-288.36662
-322.05031
-353.90543
-383.42146
-410.08576
-433.39394
-452.86081
-468.03168
-478.49295
-483.88172
-483.89231
-478.28198
-466.88057
-449.56174
-426.26016
-396.99356
-361.85925
-320.9611
-274.39113
-222.2532
-164.66299
-101.7516
-33.671938
39.390995
117.2071
199.48749
285.8723
375.92191
469.11354
564.84422
662.44049
761.17434
860.28405
958.99806
1056.5597
1152.251
1245.4129
1335.4624
1421.904
1504.336
1582.4533
1656.0442
1724.9852
1789.2332
1848.815
1903.8175
1954.3763
2000.6654
2042.8878
2081.2657
2116.0337
2147.4315
2175.6986
2201.0696
2223.7709
2244.0175
2262.0114
2277.9399
2291.9746
2304.2713
2314.9692
2324.1909
2332.0417
2338.6122
2343.9812
2348.239
2351.368
2353.3924
2354.1742
-11.043514
-8.814704
-7.9498345
-6.7575737
-5.216339
-3.215317
-0.65327849
2.5636877
6.5195581
11.286518
16.92164
23.466431
30.946301
39.364375
48.696421
58.89593
69.899063
81.622972
93.963748
106.79772
119.98252
133.35891
146.75336
159.98042
172.84573
185.14889
196.68646
207.25493
216.6535
224.68683
231.16745
235.91818
238.77378
239.58294
238.20909
234.53482
228.45748
219.8893
208.76492
195.05915
178.76583
159.89355
138.4725
114.55663
88.225152
59.586382
28.779506
-4.0226333
-38.611179
-74.739052
-112.11916
-150.4233
-189.28186
-228.28464
-266.98295
-304.89319
-341.50213
-376.27383
-408.65838
-438.10214
-464.05942
-486.00491
-503.44666
-515.93829
-523.09013
-524.57729
-520.14479
-509.621
-492.88296
-469.87274
-440.62212
-405.2521
-363.88571
-316.62397
-263.57311
-204.84325
-140.55291
-70.83702
4.1399345
84.16708
168.96919
258.19033
351.38172
447.99606
547.38991
648.83459
751.53477
854.65327
957.33959
1058.7594
1158.1226
1254.7075
1347.88
1437.1066
1521.9617
1602.1285
1677.396
1747.6518
1812.8714
1873.1071
1928.4754
1979.1441
2025.3208
2067.2418
2105.1619
2139.3462
2170.0632
2197.5784
2222.1498
2244.0247
2263.4365
2280.6029
2295.7251
2308.9864
2320.5525
2330.571
2339.1718
2346.4662
2352.5501
2357.5062
2361.427
2364.3014
2366.1602
2366.8757
-12.128095
-10.303644
-9.9430891
-9.2351647
-8.1529499
-6.5738655
-4.385225
-1.4819559
2.2304835
6.834069
12.394464
18.960652
26.564173
35.213037
44.885554
55.534857
67.094811
79.479163
92.578341
106.26093
120.37488
134.74944
149.19796
163.52053
177.5073
190.9416
203.60324
215.27174
225.7294
234.76424
242.17264
247.76193
251.35212
252.77826
251.89038
248.55978
242.67218
234.13071
222.86047
208.82509
192.01371
172.43482
150.11267
125.09669
97.462207
67.314969
34.793171
0.070566469
-36.640584
-75.086887
-114.97152
-155.95267
-197.64286
-239.6094
-281.37632
-322.428
-362.21458
-400.15946
-435.66884
-468.14308
-496.98985
-521.63836
-541.55427
-556.25395
-565.31744
-568.39855
-565.2294
-555.63824
-539.5085
-516.7935
-487.54396
-451.9109
-410.04192
-362.05035
-308.04603
-248.13222
-182.41108
-110.99357
-34.016152
48.337556
135.81344
228.06523
324.63791
424.95922
528.34116
633.99221
741.03934
848.55772
955.60502
1061.2568
1164.6397
1264.9604
1361.5271
1453.7646
1541.2214
1623.5704
1700.6035
1772.2227
1838.4273
1899.2999
1954.9918
2005.7083
2051.6953
2093.2266
2130.5934
2164.0948
2194.0305
2220.6944
2244.3697
2265.3258
2283.8156
2300.0735
2314.3147
2326.7347
2337.5092
2346.7944
2354.7271
2361.4248
2366.9883
2371.5041
2375.0664
2377.6704
2379.3535
2379.9987
-13.308556
-11.93755
-12.139932
-11.974412
-11.408161
-10.305626
-8.5414547
-5.9982209
-2.5696816
1.8369833
7.2969848
13.867614
21.587254
30.469589
40.496094
51.61972
63.771959
76.863052
90.777373
105.37509
120.49366
135.94966