/*--------------------------------*- C++ -*----------------------------------*\
| =========                 |                                                 |
| \\      /  F ield         | foam-extend: Open Source CFD                    |
|  \\    /   O peration     | Version:     4.1                                |
|   \\  /    A nd           | Web:         http://www.foam-extend.org         |
|    \\/     M anipulation  |                                                 |
\*---------------------------------------------------------------------------*/
FoamFile
{
    version     2.0;
    format      ascii;
    class       surfaceScalarField;
    location    "0.35";
    object      phi;
}
// * * * * * * * * * * * * * * * * * * * * * * * * * * * * * * * * * * * * * //

dimensions      [0 3 -1 0 0 0 0];

internalField   nonuniform List<scalar> 
32976
(
-0.22527318
0.00046627305
-0.22577716
0.00050397468
-0.22628206
0.00050489946
-0.22677916
0.00049710017
-0.22726334
0.00048418155
-0.22773109
0.00046775263
-0.22817961
0.00044851815
-0.22860654
0.00042693295
-0.22900989
0.00040335205
-0.22938802
0.00037812539
-0.22973961
0.0003515939
-0.23006374
0.00032412465
-0.23035983
0.00029608747
-0.2306277
0.00026787661
-0.23086759
0.0002398859
-0.23108011
0.00021252442
-0.23126631
0.00018619361
-0.2314276
0.00016129864
-0.23156583
0.00013822773
-0.23168319
0.0001173597
-0.23178224
9.904663e-05
-0.23186586
8.3620116e-05
-0.23193723
7.1372486e-05
-0.2319998
6.2573664e-05
-0.23205726
5.7452664e-05
-0.23211344
5.6181866e-05
-0.23217233
5.8889094e-05
-0.23223799
6.5656616e-05
-0.2323145
7.6510134e-05
-0.23240592
9.1424946e-05
-0.23251624
0.00011031857
-0.23264929
0.00013305386
-0.23280873
0.00015943675
-0.23299796
0.00018922679
-0.2332201
0.00022214337
-0.23347794
0.00025784007
-0.23377387
0.0002959317
-0.23410986
0.0003359876
-0.23448741
0.00037754925
-0.23490753
0.00042011814
-0.23537071
0.00046318266
-0.23587691
0.00050620054
-0.23642554
0.00054862868
-0.23701545
0.00058991285
-0.23764495
0.00062950351
-0.23831182
0.00066686043
-0.23901328
0.00070146002
-0.23974608
0.00073280392
-0.2405065
0.00076042313
-0.24129039
0.00078388738
-0.2420932
0.00080281018
-0.24291005
0.00081685471
-0.24373579
0.00082573867
-0.24456503
0.0008292404
-0.24539223
0.00082719912
-0.24621175
0.00081952091
-0.24701793
0.00080617887
-0.24780515
0.00078721404
-0.24856788
0.00076273472
-0.2493008
0.00073291657
-0.24999879
0.00069799676
-0.25065707
0.00065827345
-0.25127117
0.00061409965
-0.25183705
0.00056587773
-0.2523511
0.00051405339
-0.25281021
0.00045910823
-0.25321176
0.00040155228
-0.25355368
0.00034192061
-0.25383443
0.0002807461
-0.25405298
0.00021855678
-0.25420887
0.000155889
-0.25430216
9.3288665e-05
-0.25433346
3.1300704e-05
-0.25430388
-2.9580229e-05
-0.25421467
-8.9209996e-05
-0.25406661
-0.00014806366
-0.25386079
-0.00020581404
-0.25359954
-0.00026125739
-0.25328595
-0.00031358768
-0.2529237
-0.00036224625
-0.25251688
-0.00040681886
-0.25206989
-0.00044699568
-0.25158734
-0.00048254302
-0.25107406
-0.00051328906
-0.25053494
-0.00053911723
-0.24997497
-0.00055996387
-0.24939916
-0.00057581702
-0.24881244
-0.00058671539
-0.2482197
-0.00059274707
-0.24762565
-0.00059404733
-0.24703485
-0.00059079685
-0.24645164
-0.00058321583
-0.24588007
-0.00057156206
-0.24532395
-0.00055612471
-0.24478673
-0.00053721911
-0.24427155
-0.00051518091
-0.24378119
-0.00049035993
-0.24331807
-0.00046311514
-0.24288427
-0.00043380684
-0.24248147
-0.00040279333
-0.24211105
-0.00037042477
-0.24177401
-0.00033703901
-0.24147105
-0.00030295761
-0.24120257
-0.00026848329
-0.24096867
-0.00023389614
-0.24076922
-0.00019945324
-0.24060383
-0.0001653867
-0.24047193
-0.00013190354
-0.24037274
-9.9185878e-05
-0.24030535
-6.7390754e-05
-0.2402687
-3.6650203e-05
-0.24026162
-7.080222e-06
-0.2402828
2.1178316e-05
-0.24033075
4.7950383e-05
-0.24040396
7.3210725e-05
-0.24050099
9.7027974e-05
-0.24062037
0.00011938314
-0.24076058
0.00014021142
-0.24091985
0.00015926501
-0.24109557
0.00017571647
-0.2412839
0.00018833641
-0.24148478
0.00020087879
-0.24170194
0.00021716103
0.00023350804
-0.25652808
0.00073627332
-0.25678452
0.00076041405
-0.25703738
0.00075775939
-0.25728288
0.00074259781
-0.25751768
0.00071898354
-0.25773886
0.00068893557
-0.25794389
0.00065354105
-0.25813053
0.0006135715
-0.25829684
0.00056966358
-0.25844117
0.00052245518
-0.25856216
0.00047258228
-0.25865876
0.00042073043
-0.25873028
0.00036760231
-0.25877635
0.0003139458
-0.25879698
0.00026051924
-0.25879256
0.00020810836
-0.25876386
0.00015749514
-0.25871203
0.00010946577
-0.25863859
6.4783056e-05
-0.25854542
2.4189791e-05
-0.25843476
-1.1613108e-05
-0.25830917
-4.1964188e-05
-0.25817152
-6.6275219e-05
-0.25802489
-8.4056868e-05
-0.25787257
-9.4873533e-05
-0.25771806
-9.8328328e-05
-0.25756505
-9.4122161e-05
-0.25741733
-8.2059361e-05
-0.25727878
-6.2041959e-05
-0.25715326
-3.4088918e-05
-0.25704462
1.6761795e-06
-0.25695659
4.5017889e-05
-0.25689274
9.5587946e-05
-0.25685641
0.0001528945
-0.2568506
0.000216338
-0.25687802
0.00028526168
-0.25694102
0.00035893174
-0.25704155
0.00043652011
-0.25718114
0.00051713943
-0.25736085
0.00059982267
-0.25758123
0.00068356748
-0.25784235
0.00076731388
-0.25814371
0.00084999115
-0.2584843
0.00093050599
-0.25886257
0.00100777
-0.25927642
0.0010807099
-0.25972324
0.0011482823
-0.26019993
0.00120949
-0.2607029
0.0012633919
-0.26122813
0.0013091205
-0.26177121
0.001345893
-0.26232738
0.0013730228
-0.26289157
0.0013899303
-0.26345849
0.0013961545
-0.26402264
0.0013913553
-0.26457845
0.0013753248
-0.26512026
0.0013479887
-0.26564245
0.0013094086
-0.2661395
0.0012597812
-0.26660602
0.0011994384
-0.26703686
0.0011288373
-0.26742714
0.0010485585
-0.26777234
0.00095929437
-0.2680683
0.0008618384
-0.26831132
0.00075707342
-0.26849817
0.00064595693
-0.26862612
0.0005295053
-0.26869299
0.00040879253
-0.26869712
0.00028487722
-0.26863739
0.00015881962
-0.26851324
3.1742939e-05
-0.26832472
-9.5237031e-05
-0.26807236
-0.00022105407
-0.26775722
-0.0003447194
-0.26738115
-0.00046527996
-0.26694759
-0.00058162942
-0.26646053
-0.00069287529
-0.26592342
-0.0007983582
-0.26533967
-0.00089734712
-0.26471275
-0.0009891586
-0.26404638
-0.0010731921
-0.26334444
-0.0011489355
-0.26261101
-0.0012159706
-0.26185033
-0.0012739748
-0.26106672
-0.0013227214
-0.26026461
-0.0013620806
-0.2594484
-0.0013920191
-0.25862252
-0.0014125994
-0.25779129
-0.0014239777
-0.25695894
-0.0014263999
-0.25612953
-0.0014201992
-0.25530697
-0.0014057835
-0.2544949
-0.0013836331
-0.25369673
-0.0013542887
-0.25291561
-0.0013183409
-0.25215437
-0.0012764197
-0.25141555
-0.0012291821
-0.25070136
-0.0011773039
-0.2500137
-0.0011214629
-0.24935416
-0.0010623341
-0.24872401
-0.0010005776
-0.24812422
-0.00093683064
-0.24755548
-0.00087169993
-0.2470182
-0.00080575765
-0.24651257
-0.00073953299
-0.24603851
-0.00067351245
-0.24559576
-0.00060813575
-0.24518387
-0.00054379516
-0.24480222
-0.00048083553
-0.24445005
-0.00041955637
-0.24412649
-0.00036021138
-0.24383055
-0.00030301804
-0.24356122
-0.00024815227
-0.24331753
-0.00019573777
-0.24309841
-0.00014590871
-0.24290258
-9.8805023e-05
-0.24272867
-5.453192e-05
-0.24257523
-1.3226756e-05
-0.24244064
2.4675011e-05
-0.24232297
5.8047095e-05
-0.24222061
8.5978226e-05
-0.24213515
0.0001154162
-0.24205425
0.00013626122
0.00011471101
-0.26038238
0.00092035922
-0.26053747
0.00091549923
-0.26067633
0.00089662294
-0.26080024
0.00086650164
-0.26090833
0.00082707445
-0.26099926
0.00077986987
-0.26107172
0.00072599699
-0.26112455
0.00066640313
-0.26115684
0.00060194979
-0.26116791
0.00053352665
-0.26115736
0.00046203734
-0.26112508
0.00038844985
-0.26107124
0.00031376079
-0.26099631
0.00023901957
-0.26090109
0.00016529214
-0.26078665
9.3671135e-05
-0.2606544
2.5244883e-05
-0.26050603
-3.8905251e-05
-0.26034352
-9.7727845e-05
-0.26016912
-0.00015021126
-0.25998532
-0.0001954082
-0.25979484
-0.00023244695
-0.25960058
-0.00026053038
-0.25940568
-0.00027895985
-0.25921341
-0.00028714625
-0.25902709
-0.0002846446
-0.25885009
-0.00027112693
-0.25868573
-0.00024641243
-0.25853732
-0.0002104572
-0.25840803
-0.00016337281
-0.25830094
-0.00010541552
-0.25821892
-3.7000396e-05
-0.25816465
4.1309461e-05
-0.25814057
0.00012882072
-0.25814894
0.00022470772
-0.25819168
0.00032799504
-0.25827034
0.00043759367
-0.25838611
0.00055229587
-0.25853978
0.00067080845
-0.2587317
0.00079173949
-0.25896178
0.00091364931
-0.25922949
0.0010350252
-0.25953384
0.0011543426
-0.25987339
0.0012700501
-0.26024622
0.0013806066
-0.26065001
0.0014844952
-0.26108197
0.0015802435
-0.26153893
0.0016664462
-0.26201731
0.0017417788
-0.26251321
0.001805022
-0.2630224
0.001855077
-0.26354036
0.0018909826
-0.26406236
0.0019119296
-0.26458348
0.0019172781
-0.26509869
0.0019065604
-0.26560286
0.0018794982
-0.26609088
0.0018360039
-0.26655765
0.0017761848
-0.26699821
0.0017003421
-0.26740775
0.001608971
-0.26778165
0.001502747
-0.26811562
0.0013825231
-0.26840564
0.0012493134
-0.26864808
0.0011042777
-0.26883971
0.00094870435
-0.26897774
0.00078398906
-0.26905985
0.00061161189
-0.26908419
0.00043313987
-0.2690494
0.00025008715
-0.26895459
6.4008846e-05
-0.26879942
-0.0001234288
-0.26858405
-0.00031060938
-0.26830916
-0.00049594856
-0.26797592
-0.00067795364
-0.267586
-0.00085520001
-0.26714134
-0.0010262865
-0.26664427
-0.0011899529
-0.26609754
-0.0013450827
-0.26550427
-0.0014906163
-0.26486786
-0.0016255719
-0.26419197
-0.0017490812
-0.26348051
-0.0018603982
-0.26273757
-0.0019589082
-0.26196741
-0.0020441331
-0.2611744
-0.0021157336
-0.26036297
-0.002173512
-0.25953758
-0.0022174126
-0.25870265
-0.002247521
-0.25786257
-0.0022640617
-0.25702158
-0.0022673916
-0.25618378
-0.002257998
-0.25535308
-0.0022364786
-0.25453318
-0.002203539
-0.25372749
-0.0021599742
-0.25293918
-0.0021066539
-0.25217109
-0.0020445059
-0.25142578
-0.0019744985
-0.25070545
-0.0018976277
-0.25001202
-0.0018148926
-0.24934707
-0.0017272883
-0.24871186
-0.0016357876
-0.24810736
-0.0015413298
-0.24753425
-0.0014448091
-0.24699294
-0.0013470687
-0.24648359
-0.0012488884
-0.24600611
-0.0011509853
-0.24556024
-0.0010540074
-0.2451455
-0.00095853319
-0.24476127
-0.00086507069
-0.24440676
-0.00077406099
-0.2440811
-0.0006858772
-0.24378328
-0.00060083471
-0.24351224
-0.00051919079
-0.24326683
-0.00044115299
-0.24304583
-0.00036690916
-0.242848
-0.00029662842
-0.24267208
-0.0002304533
-0.24251672
-0.00016859277
-0.24238046
-0.00011158307
-0.24226203
-6.0383745e-05
-0.24216086
-1.5187617e-05
-0.24207741
3.1969839e-05
-0.24200019
5.903188e-05
5.0125994e-05
-0.26082391
0.0010802322
-0.26096175
0.0010533327
-0.26108209
0.0010169638
-0.26118582
0.000970233
-0.26127255
0.00091380686
-0.26134142
0.00084873784
-0.26139148
0.00077605782
-0.26142189
0.00069681166
-0.26143197
0.00061203298
-0.26142127
0.00052282402
-0.26138956
0.00043032417
-0.26133686
0.00033575436
-0.26126348
0.00024037785
-0.26116998
0.00014551875
-0.26105721
5.2525682e-05
-0.26092632
-3.7224854e-05
-0.26077871
-0.00012235795
-0.2606161
-0.00020151484
-0.26044046
-0.00027336826
-0.26025401
-0.00033665986
-0.26005923
-0.00039018973
-0.25985881
-0.00043287135
-0.25965562
-0.00046371515
-0.25945271
-0.00048186886
-0.25925324
-0.00048661678
-0.25906047
-0.00047742129
-0.2588777
-0.00045389906
-0.25870824
-0.00041586346
-0.2585554
-0.00036330089
-0.25842237
-0.00029640424
-0.25831223
-0.0002155498
-0.25822792
-0.00012131817
-0.25817213
-1.4479712e-05
-0.25814732
0.00010401687
-0.25815567
0.0002330539
-0.25819901
0.00037133934
-0.25827886
0.00051743625
-0.25839631
0.00066975347
-0.2585521
0.00082659127
-0.25874649
0.00098613028
-0.25897933
0.0011464924
-0.25925002
0.0013057125
-0.25955749
0.0014618144
-0.25990023
0.0016127929
-0.26027629
0.00175666
-0.26068325
0.0018914632
-0.26111832
0.0020153104
-0.26157827
0.0021263988
-0.26205953
0.0022230308
-0.26255815
0.0023036462
-0.26306991
0.0023668401
-0.26359032
0.0024113852
-0.26411464
0.0024362495
-0.26463798
0.0024406187
-0.26515532
0.0024239004
-0.26566156
0.0023857452
-0.26615161
0.00232605
-0.26662039
0.0022449633
-0.26706293
0.0021428844
-0.26747442
0.0020204642
-0.26785027
0.0018785884
-0.26818612
0.0017183737
-0.26847795
0.0015411479
-0.2687221
0.0013484297
-0.26891531
0.001141907
-0.26905473
0.00092340888
-0.26913799
0.00069488009
-0.26916322
0.00045836779
-0.26912899
0.0002158545
-0.2690344
-3.0576821e-05
-0.2688791
-0.00027872976
-0.26866321
-0.0005265019
-0.26838734
-0.00077181563
-0.26805258
-0.001012712
-0.26766049
-0.0012472902
-0.26721304
-0.0014737361
-0.26671262
-0.0016903775
-0.26616202
-0.0018956835
-0.26556439
-0.0020882448
-0.26492319
-0.0022667728
-0.26424214
-0.0024301292
-0.26352521
-0.0025773329
-0.26277654
-0.002707572
-0.26200046
-0.002820212
-0.2612014
-0.0029147997
-0.26038384
-0.002991069
-0.25955231
-0.0030489417
-0.25871131
-0.0030885274
-0.25786525
-0.0031101202
-0.25701845
-0.0031141918
-0.25617506
-0.003101387
-0.25533904
-0.0030724983
-0.25451412
-0.0030284628
-0.25370375
-0.0029703364
-0.25291113
-0.0028992747
-0.25213913
-0.0028165109
-0.25139029
-0.0027233318
-0.25066686
-0.0026210609
-0.24997073
-0.0025110249
-0.24930347
-0.0023945452
-0.24866635
-0.0022729129
-0.2480603
-0.0021473738
-0.247486
-0.002019113
-0.24694382
-0.001889248
-0.2464339
-0.001758811
-0.24595613
-0.0016287506
-0.24551021
-0.0014999238
-0.24509565
-0.0013730944
-0.24471179
-0.0012489329
-0.24435783
-0.0011280208
-0.24403286
-0.0010108493
-0.24373586
-0.00089782996
-0.24346576
-0.00078929802
-0.24322138
-0.00068552697
-0.24300154
-0.00058674756
-0.24280502
-0.00049315429
-0.24263055
-0.00040491895
-0.24247684
-0.00032230148
-0.2423426
-0.00024582738
-0.24222685
-0.00017613759
-0.24212889
-0.00011314692
-0.24204858
-4.8332325e-05
-0.24197973
-9.82415e-06
5.8471792e-06
-0.26089618
0.0012364679
-0.26103505
0.0011922016
-0.26115717
0.0011390913
-0.26126248
0.0010755397
-0.26135038
0.0010017085
-0.26142003
0.00091838464
-0.26147052
0.00082654877
-0.26150103
0.00072732719
-0.26151091
0.00062190673
-0.26149967
0.00051158816
-0.26146709
0.00039773757
-0.26141315
0.00028182353
-0.26133815
0.00016537408
-0.26124262
4.9987665e-05
-0.26112739
-6.270198e-05
-0.26099359
-0.00017103
-0.26084261
-0.00027333085
-0.26067617
-0.00036796024
-0.26049622
-0.00045331282
-0.26030502
-0.0005278638
-0.26010504
-0.00059016502
-0.25989901
-0.0006389025
-0.25968985
-0.000672881
-0.25948063
-0.00069108342
-0.2592746
-0.00069265351
-0.25907506
-0.00067695569
-0.25888542
-0.00064354376
-0.25870906
-0.00059221807
-0.25854937
-0.00052299051
-0.25840965
-0.0004361316
-0.25829306
-0.00033213574
-0.25820263
-0.0002117514
-0.25814115
-7.5957517e-05
-0.25811117
7.4037749e-05
-0.25811494
0.00023681952
-0.25815437
0.00041077035
-0.25823102
0.00059408802
-0.25834606
0.00078479651
-0.25850025
0.00098077789
-0.25869389
0.001179776
-0.25892687
0.0013794653
-0.25919857
0.0015774174
-0.25950795
0.0017711941
-0.25985348
0.0019583258
-0.26023319
0.0021363677
-0.26064465
0.0023029219
-0.26108501
0.0024556669
-0.261551
0.0025923932
-0.26203899
0.0027110218
-0.26254499
0.002809643
-0.26306469
0.0028865381
-0.26359351
0.0029402061
-0.26412664
0.0029693855
-0.26465911
0.0029730814
-0.26518578
0.0029505709
-0.26570146
0.0029014293
-0.26620095
0.0028255346
-0.26667906
0.0027230743
-0.26713072
0.0025945456
-0.26755101
0.0024407564
-0.26793523
0.0022628054
-0.26827893
0.0020620785
-0.26857801
0.0018402239
-0.26882871
0.0015991279
-0.26902769
0.0013408888
-0.26917206
0.0010677793
-0.26925941
0.00078222818
-0.26928779
0.00048675098
-0.26925578
0.00018384821
-0.26916251
-0.00012384963
-0.2690076
-0.00043363836
-0.2687912
-0.00074290417
-0.26851394
-0.001049078
-0.26817696
-0.0013496951
-0.26778185
-0.0016423977
-0.26733064
-0.0019249437
-0.26682577
-0.0021952445
-0.26627009
-0.0024513714
-0.26566677
-0.0026915591
-0.26501934
-0.0029142025
-0.26433159
-0.0031178856
-0.26360753
-0.0033013863
-0.26285141
-0.0034636911
-0.26206762
-0.0036040057
-0.26126066
-0.0037217609
-0.26043511
-0.0038166207
-0.25959556
-0.003888484
-0.25874661
-0.0039374855
-0.25789273
-0.0039639918
-0.25703833
-0.0039685924
-0.25618762
-0.0039520958
-0.25534463
-0.0039154961
-0.25451312
-0.0038599694
-0.25369662
-0.0037868415
-0.25289833
-0.0036975637
-0.25212115
-0.0035936841
-0.25136767
-0.0034768177
-0.2506401
-0.0033486249
-0.24994036
-0.0032107692
-0.24927
-0.003064906
-0.24863026
-0.0029126517
-0.24802207
-0.0027555646
-0.24744606
-0.0025951258
-0.24690257
-0.0024327306
-0.24639172
-0.0022696659
-0.24591336
-0.0021071136
-0.24546714
-0.0019461395
-0.24505254
-0.0017876923
-0.24466887
-0.0016326029
-0.2443153
-0.0014815904
-0.24399089
-0.0013352596
-0.24369461
-0.0011941141
-0.24342534
-0.0010585618
-0.24318194
-0.00092892961
-0.24296321
-0.00080547768
-0.24276795
-0.00068841143
-0.24259496
-0.00057790851
-0.24244304
-0.0004742223
-0.24231111
-0.00037775863
-0.24219839
-0.00028885512
-0.24210409
-0.00020745235
-0.24202868
-0.00012374647
-0.24196917
-6.9330626e-05
-2.7871696e-05
-0.26095265
0.0013935866
-0.26109519
0.0013347376
-0.26122182
0.0012657227
-0.26133166
0.0011853839
-0.26142382
0.0010938629
-0.26149731
0.00099187949
-0.26155119
0.00088042671
-0.26158459
0.00076072763
-0.26159681
0.00063412343
-0.26158733
0.00050211279
-0.26155588
0.00036628939
-0.26150243
0.00022837273
-0.26142722
9.0161207e-05
-0.26133077
-4.6465388e-05
-0.26121389
-0.00017958071
-0.26107769
-0.00030722277
-0.2609236
-0.00042743011
-0.2607533
-0.00053825361
-0.26056881
-0.00063780648
-0.26037239
-0.00072428584
-0.26016657
-0.00079598007
-0.25995413
-0.00085134
-0.25973806
-0.00088895477
-0.25952151
-0.00090763092
-0.2593078
-0.00090636285
-0.25910035
-0.00088441069
-0.25890263
-0.00084125917
-0.25871816
-0.00077669089
-0.25855041
-0.00069073969
-0.25840279
-0.00058375195
-0.25827859
-0.00045633937
-0.25818092
-0.00030942014
-0.25811269
-0.00014418365
-0.25807655
3.7899442e-05
-0.25807484
0.00023510866
-0.25810957
0.0004454977
-0.25818237
0.0006668879
-0.25829448
0.00089690656
-0.25844671
0.0011330115
-0.25863944
0.0013724978
-0.25887255
0.0016125808
-0.25914549
0.0018503561
-0.25945721
0.0020829112
-0.25980618
0.0023072989
-0.26019042
0.0025206042
-0.26060746
0.0027199701
-0.26105443
0.0029026326
-0.261528
0.003065962
-0.26202446
0.0032074851
-0.26253975
0.00332493
-0.26306946
0.0034162525
-0.26360892
0.0034796671
-0.26415321
0.0035136728
-0.26469722
0.0035170854
-0.26523569
0.0034890446
-0.26576331
0.003429045
-0.26627471
0.0033369423
-0.2667646
0.0032129619
-0.26722775
0.0030576996
-0.26765912
0.0028721239
-0.26805387
0.0026575524
-0.26840744
0.002415648
-0.2687156
0.0021483897
-0.26897452
0.0018580437
-0.26918076
0.0015471321
-0.26933137
0.0012183858
-0.26942388
0.00087473366
-0.2694563
0.00051917227
-0.2694272
0.00015474898
-0.2693357
-0.00021535102
-0.26918141
-0.0005879231
-0.26896451
-0.00095980566
-0.26868566
-0.0013279317
-0.26834602
-0.0016893334
-0.26794724
-0.0020411789
-0.2674914
-0.0023807814
-0.26698101
-0.0027056295
-0.26641899
-0.0030133983
-0.26580858
-0.0033019631
-0.26515339
-0.0035693962
-0.26445728
-0.0038139978
-0.26372436
-0.0040342997
-0.26295897
-0.0042290823
-0.26216559
-0.0043973874
-0.26134883
-0.0045385269
-0.26051335
-0.0046520928
-0.25966388
-0.0047379609
-0.25880507
-0.0047962917
-0.25794153
-0.0048275272
-0.25707775
-0.0048323802
-0.25621801
-0.0048118293
-0.25536643
-0.0047670786
-0.25452685
-0.0046995536
-0.25370283
-0.0046108614
-0.25289763
-0.0045027608
-0.25211419
-0.0043771273
-0.25135509
-0.0042359167
-0.25062257
-0.0040811381
-0.24991854
-0.003914803
-0.24924454
-0.0037389111
-0.24860177
-0.003555413
-0.24799115
-0.0033661872
-0.24741326
-0.0031730168
-0.24686841
-0.0029775795
-0.24635666
-0.0027814206
-0.24587781
-0.002585957
-0.24543149
-0.0023924643
-0.24501711
-0.0022020756
-0.24463393
-0.0020157811
-0.24428108
-0.0018344348
-0.24395759
-0.0016587515
-0.24366238
-0.0014893228
-0.24339432
-0.0013266229
-0.24315223
-0.0011710231
-0.2429349
-0.001022804
-0.24274114
-0.00088217239
-0.24256976
-0.00074929148
-0.24241962
-0.00062435977
-0.24228977
-0.00050761348
-0.24217947
-0.00039915224
-0.24208797
-0.00029895431
-0.24201658
-0.00019513323
-0.24196357
-0.00012234526
-5.5986747e-05
-0.26102623
0.0015552949
-0.26117405
0.001482552
-0.26130638
0.0013980518
-0.26142192
0.0013009315
-0.26151951
0.0011914532
-0.26159802
0.0010703853
-0.26165638
0.00093879079
-0.26169367
0.0007980135
-0.26170911
0.00064955892
-0.26170212
0.00049512925
-0.26167238
0.00033655091
-0.26161981
0.0001758013
-0.26154461
1.4957148e-05
-0.26144726
-0.00014381205
-0.26132857
-0.00029827548
-0.26118963
-0.0004461632
-0.26103186
-0.00058519917
-0.26085698
-0.00071313521
-0.26066701
-0.00082776863
-0.26046429
-0.00092701127
-0.26025139
-0.0010088763
-0.26003117
-0.0010715644
-0.25980669
-0.0011134375
-0.2595812
-0.0011331142
-0.25935814
-0.0011294288
-0.25914102
-0.0011015286
-0.25893346
-0.0010488219
-0.25873908
-0.00097106777
-0.2585615
-0.00086831791
-0.25840426
-0.00074099247
-0.25827078
-0.00058982022
-0.25816431
-0.0004158911
-0.25808788
-0.00022060965
-0.25804427
-5.7119698e-06
-0.25803593
0.00022676577
-0.25806497
0.00047453853
-0.25813312
0.00073504435
-0.25824172
0.0010054982
-0.25839163
0.0012829234
-0.25858328
0.0015641518
-0.25881663
0.0018459253
-0.25909112
0.0021248488
-0.25940573
0.0023975194
-0.25975893
0.0026604966
-0.2601487
0.0029103793
-0.26057257
0.003143835
-0.26102757
0.0033576414
-0.26151035
0.0035487328
-0.26201709
0.0037142262
-0.26254363
0.0038514732
-0.26308547
0.0039580899
-0.26363779
0.0040319932
-0.26419555
0.004071431
-0.26475349
0.0040750199
-0.26530619
0.0040417535
-0.26584819
0.0039710394
-0.26637395
0.003862707
-0.26687801
0.003717018
-0.26735498
0.0035346681
-0.26779965
0.0033167904
-0.26820702
0.0030649283
-0.2685724
0.0027810317
-0.26889144
0.0024674225
-0.26916016
0.0021267618
-0.26937504
0.0017620119
-0.26953303
0.0013763812
-0.26963161
0.00097331212
-0.26966876
0.00055631861
-0.26964301
0.00012900703
-0.26955349
-0.00030487672
-0.26939982
-0.00074159527
-0.26918218
-0.0011774385
-0.2689013
-0.0016088192
-0.26855837
-0.0020322608
-0.2681551
-0.0024444475
-0.26769364
-0.0028422373
-0.26717658
-0.0032226896
-0.2666069
-0.0035830794
-0.26598795
-0.0039209174
-0.2653234
-0.0042339463
-0.26461722
-0.0045201755
-0.26387364
-0.0047778842
-0.26309708
-0.0050056406
-0.26229215
-0.0052023179
-0.26146357
-0.0053671047
-0.26061614
-0.0054995185
-0.25975469
-0.0055994106
-0.25888402
-0.005666969
-0.25800883
-0.0057027142
-0.25713372
-0.0057074882
-0.2562631
-0.0056824477
-0.25540116
-0.0056290179
-0.25455183
-0.0055488855
-0.25371874
-0.0054439529
-0.2529052
-0.0053163009
-0.25211418
-0.0051681479
-0.25134829
-0.0050018051
-0.25060979
-0.0048196452
-0.24990055
-0.0046240407
-0.24922211
-0.004417348
-0.24857566
-0.0042018627
-0.24796206
-0.0039797919
-0.24738185
-0.003753228
-0.24683529
-0.0035241365
-0.24632238
-0.0032943245
-0.2458429
-0.0030654456
-0.24539637
-0.0028389858
-0.24498219
-0.0026162615
-0.24459955
-0.0023984197
-0.24424754
-0.0021864461
-0.24392513
-0.001981161
-0.24363121
-0.0017832382
-0.24336463
-0.001593211
-0.24312416
-0.001411486
-0.24290861
-0.0012383554
-0.24271677
-0.001074017
-0.24254746
-0.00091860142
-0.24239959
-0.00077222357
-0.24227226
-0.00063495033
-0.2421647
-0.0005067048
-0.24207625
-0.00038741206
-0.24200869
-0.0002626916
-0.24196037
-0.00017066501
-8.0753856e-05
-0.26111988
0.001722363
-0.26127368
0.0016363476
-0.26141223
0.0015366054
-0.26153394
0.0014226378
-0.26163739
0.0012949067
-0.2617213
0.0011542976
-0.2617845
0.001001986
-0.26182594
0.00083946041
-0.26184479
0.00066840397
-0.26184039
0.0004907316
-0.26181235
0.00030851033
-0.26176053
0.00012398495
-0.2616851
-6.0477712e-05
-0.2615865
-0.00024241104
-0.26146551
-0.00041926687
-0.26132321
-0.00058846361
-0.26116103
-0.00074737567
-0.26098072
-0.00089344849
-0.26078433
-0.0010241571
-0.26057424
-0.0011371067
-0.26035309
-0.0012300197
-0.26012382
-0.0013008335
-0.25988959
-0.0013476675
-0.25965377
-0.0013689384
-0.25941989
-0.0013633085
-0.25919162
-0.0013298019
-0.2589727
-0.0012677414
-0.25876691
-0.0011768562
-0.25857802
-0.0010572109
-0.25840971
-0.00090929711
-0.25826557
-0.00073396033
-0.258149
-0.00053246444
-0.25806317
-0.00030643434
-0.25801101
-5.7875369e-05
-0.25799509
0.00021084913
-0.25801766
0.00049710347
-0.25808055
0.00079793355
-0.25818518
0.0011101272
-0.25833251
0.0014302594
-0.25852304
0.0017546822
-0.25875676
0.0020796478
-0.25903317
0.0024012536
-0.25935124
0.0027155882
-0.25970944
0.0030186996
-0.26010574
0.0033066818
-0.26053762
0.0035757089
-0.26100206
0.0038220812
-0.2614956
0.004042279
-0.26201437
0.0042329918
-0.26255407
0.0043911775
-0.26311008
0.0045140964
-0.26367744
0.0045993526
-0.26425094
0.0046449292
-0.26482515
0.0046492315
-0.26539449
0.0046110969
-0.26595329
0.0045298387
-0.26649584
0.0044052546
-0.26701646
0.0042376407
-0.26750959
0.0040277939
-0.26796981
0.0037770161
-0.26839197
0.0034870845
-0.26877119
0.0031602469
-0.26910295
0.0027991829
-0.26938315
0.0024069652
-0.26960815
0.0019870159
-0.26977481
0.001543043
-0.26988052
0.0010790213
-0.26992322
0.00059901571
-0.26990142
0.00010720928
-0.26981422
-0.00039207784
-0.26966127
-0.00089454639
-0.26944278
-0.0013959298
-0.2691595
-0.0018920992
-0.2688127
-0.0023790576
-0.26840416
-0.0028529923
-0.2679361
-0.0033102957
-0.2674112
-0.0037475908
-0.26683253
-0.0041617468
-0.26620355
-0.0045499037
-0.26552802
-0.0049094676
-0.26481005
-0.0052381503
-0.26405396
-0.0055339707
-0.26326433
-0.0057952781
-0.26244587
-0.0060207706
-0.26160347
-0.0062095084
-0.26074206
-0.0063609308
-0.2598666
-0.0064748633
-0.25898205
-0.0065515221
-0.25809325
-0.0065915104
-0.25720494
-0.006595806
-0.25632163
-0.006565754
-0.25544764
-0.0065030126
-0.25458698
-0.0064095453
-0.25374336
-0.0062875658
-0.25292017
-0.0061394951
-0.2521204
-0.0059679125
-0.25134671
-0.005775503
-0.25060133
-0.0055650199
-0.24988616
-0.0053392134
-0.2492027
-0.0051008109
-0.24855209
-0.0048524655
-0.24793516
-0.0045967238
-0.24735239
-0.0043359959
-0.24680399
-0.0040725413
-0.24628988
-0.0038084329
-0.24580976
-0.0035455638
-0.24536312
-0.0032856304
-0.24494925
-0.0030301315
-0.2445673
-0.0027803683
-0.24421629
-0.0025374541
-0.24389514
-0.0023023094
-0.2436027
-0.0020756839
-0.24333775
-0.0018581617
-0.24309906
-0.0016501754
-0.24288539
-0.0014520188
-0.24269554
-0.0012638678
-0.24252834
-0.0010858014
-0.24238273
-0.00091783209
-0.24225782
-0.00075986694
-0.24215285
-0.00061167479
-0.24206723
-0.00047303253
-0.24200295
-0.00032696912
-0.24195804
-0.00021557117
-0.00010334736
-0.26123267
0.0018966703
-0.26139366
0.0017973306
-0.2615394
0.0016823465
-0.26166812
0.0015513653
-0.26177825
0.0014050299
-0.26186832
0.0012443694
-0.26193703
0.0010706992
-0.26198324
0.00088567185
-0.262006
0.00069116145
-0.26200458
0.00048930642
-0.26197849
0.00028242454
-0.26192754
7.3038609e-05
-0.26185184
-0.00013618065
-0.26175179
-0.00034245931
-0.26162814
-0.00054291732
-0.26148197
-0.00073463848
-0.2613147
-0.00091464761
-0.26112809
-0.001080052
-0.26092426
-0.0012279888
-0.26070563
-0.0013557413
-0.26047493
-0.0014607201
-0.26023518
-0.001540583
-0.25998965
-0.0015931902
-0.25974185
-0.0016167409
-0.25949545
-0.0016097113
-0.25925426
-0.0015709906
-0.2590222
-0.0014998056
-0.2588032
-0.0013958483
-0.25860122
-0.0012591907
-0.25842013
-0.0010903933
-0.25826367
-0.00089041804
-0.25813543
-0.00066070548
-0.25803876
-0.00040310711
-0.25797673
-0.00011990153
-0.25795209
0.0001862078
-0.2579672
0.00051221763
-0.25802404
0.00085477269
-0.25812413
0.0012102149
-0.25826853
0.0015746586
-0.2584578
0.0019439541
-0.258692
0.0023138448
-0.25897064
0.0026799012
-0.25929274
0.0030376831
-0.25965675
0.0033827059
-0.2600606
0.0037105377
-0.26050173
0.0040168378
-0.26097706
0.0042974086
-0.26148303
0.0045482557
-0.26201566
0.004765621
-0.26257054
0.0049460492
-0.26314287
0.0050864261
-0.26372754
0.005184026
-0.26431916
0.0052365514
-0.26491211
0.0052421822
-0.2655006
0.0051995883
-0.26607874
0.0051079792
-0.2666406
0.0049671153
-0.26718029
0.0047773244
-0.267692
0.0045395053
-0.26817012
0.0042551339
-0.26860926
0.00392623
-0.26900437
0.0035553525
-0.26935074
0.0031455551
-0.26964412
0.0027003425
-0.26988072
0.0022236193
-0.2700573
0.0017196188
-0.27017115
0.0011928729
-0.27022016
0.00064803063
-0.27020283
8.9876093e-05
-0.27011823
-0.00047667615
-0.26996604
-0.0010467391
-0.2697465
-0.0016154733
-0.26946041
-0.0021781889
-0.26910911
-0.0027303544
-0.26869445
-0.0032676483
-0.26821876
-0.0037859862
-0.26768481
-0.0042815454
-0.26709577
-0.0047507824
-0.26645522
-0.0051904594
-0.26576705
-0.0055976383
-0.26503547
-0.0059697247
-0.26426497
-0.0063044694
-0.26346026
-0.0065999942
-0.26262621
-0.0068548144
-0.26176787
-0.0070678554
-0.26089032
-0.0072384734
-0.25999872
-0.007366466
-0.25909817
-0.0074520781
-0.25819368
-0.0074960001
-0.25729013
-0.0074993533
-0.2563922
-0.0074636827
-0.25550432
-0.0073908943
-0.25463062
-0.0072832456
-0.2537749
-0.0071432815
-0.25294061
-0.0069737841
-0.25213081
-0.0067777147
-0.25134816
-0.0065581537
-0.25059493
-0.0063182552
-0.24987297
-0.0060611659
-0.24918378
-0.005790001
-0.24852846
-0.0055077855
-0.24790777
-0.0052174178
-0.24732213
-0.0049216351
-0.24677167
-0.0046229977
-0.24625626
-0.0043238494
-0.2457755
-0.0040263248
-0.24532879
-0.0037323314
-0.24491538
-0.003443549
-0.24453432
-0.0031614299
-0.24418456
-0.002887211
-0.24386496
-0.0026219078
-0.2435743
-0.0023663393
-0.24331133
-0.002121133
-0.24307477
-0.0018867392
-0.24286334
-0.0016634445
-0.24267582
-0.0014513925
-0.24251102
-0.0012505966
-0.2423679
-0.0010609585
-0.24224553
-0.00088223489
-0.24214317
-0.00071403844
-0.24206026
-0.00055593571
-0.24199882
-0.00038841404
-0.24195651
-0.00025787918
-0.00012440729
-0.26136401
0.0020789408
-0.26153306
0.0019663765
-0.26168678
0.0018360732
-0.26182325
0.0016878327
-0.2619407
0.0015224779
-0.26203752
0.0013411951
-0.26211228
0.0011454557
-0.2621637
0.0009370917
-0.26219072
0.00071818084
-0.26219251
0.00049109647
-0.26216851
0.00025841907
-0.26211843
2.2961643e-05
-0.26204232
-0.00021228855
-0.26194055
-0.00044423388
-0.26181382
-0.0006696448
-0.2616632
-0.00088525221
-0.26149012
-0.001087728
-0.26129637