/*--------------------------------*- C++ -*----------------------------------*\
| =========                 |                                                 |
| \\      /  F ield         | foam-extend: Open Source CFD                    |
|  \\    /   O peration     | Version:     4.1                                |
|   \\  /    A nd           | Web:         http://www.foam-extend.org         |
|    \\/     M anipulation  |                                                 |
\*---------------------------------------------------------------------------*/
FoamFile
{
    version     2.0;
    format      ascii;
    class       volScalarField;
    location    "0.35";
    object      rAU;
}
// * * * * * * * * * * * * * * * * * * * * * * * * * * * * * * * * * * * * * //

dimensions      [0 0 1 0 0 0 0];

internalField   nonuniform List<scalar> 
16796
(
3.891677e-05
3.8933941e-05
3.895295e-05
3.8969546e-05
3.8983357e-05
3.8993943e-05
3.9000762e-05
3.9001981e-05
3.899605e-05
3.8986236e-05
3.8972794e-05
3.8956216e-05
3.8936684e-05
3.8914651e-05
3.8890284e-05
3.8864046e-05
3.8836126e-05
3.8807013e-05
3.8776921e-05
3.8746354e-05
3.8715536e-05
3.8684968e-05
3.8654857e-05
3.8625682e-05
3.8597608e-05
3.8571067e-05
3.8546168e-05
3.8523272e-05
3.8502414e-05
3.8483876e-05
3.8467604e-05
3.8453753e-05
3.8442325e-05
3.8433162e-05
3.8426318e-05
3.8421511e-05
3.8418707e-05
3.8417538e-05
3.8417574e-05
3.8417853e-05
3.8419391e-05
3.8421802e-05
3.8424921e-05
3.8428421e-05
3.8431999e-05
3.8435336e-05
3.84381e-05
3.8439976e-05
3.8439817e-05
3.8437307e-05
3.8432961e-05
3.8426646e-05
3.8418253e-05
3.8407728e-05
3.8395035e-05
3.8380192e-05
3.8363253e-05
3.8344312e-05
3.8323494e-05
3.8300973e-05
3.827693e-05
3.8251587e-05
3.8225185e-05
3.819798e-05
3.8170244e-05
3.8142251e-05
3.8114293e-05
3.808664e-05
3.8059571e-05
3.8033351e-05
3.8008232e-05
3.7984445e-05
3.7962215e-05
3.7941723e-05
3.7923141e-05
3.7906607e-05
3.7892235e-05
3.7880103e-05
3.7870279e-05
3.786277e-05
3.7857585e-05
3.7854691e-05
3.7854034e-05
3.7854034e-05
3.785556e-05
3.7859216e-05
3.7864912e-05
3.7872513e-05
3.7881862e-05
3.7892783e-05
3.7905106e-05
3.7918629e-05
3.7933163e-05
3.7948511e-05
3.7964481e-05
3.798088e-05
3.7997521e-05
3.8014237e-05
3.8030848e-05
3.8047197e-05
3.8063138e-05
3.8078533e-05
3.8093255e-05
3.8107202e-05
3.8120265e-05
3.8132361e-05
3.8143416e-05
3.8153366e-05
3.8162159e-05
3.8169766e-05
3.8176148e-05
3.8181292e-05
3.818519e-05
3.8187844e-05
3.8189262e-05
3.818851e-05
3.8186408e-05
3.8183221e-05
3.8179009e-05
3.8173848e-05
3.8167858e-05
3.8161308e-05
3.8154269e-05
3.8143689e-05
3.7779347e-05
3.7792998e-05
3.7809243e-05
3.7823906e-05
3.7837064e-05
3.7848681e-05
3.7858601e-05
3.7865413e-05
3.7862248e-05
3.7856375e-05
3.7848277e-05
3.7838059e-05
3.7825641e-05
3.781134e-05
3.7795233e-05
3.7777748e-05
3.775904e-05
3.7739585e-05
3.771957e-05
3.7699486e-05
3.7679522e-05
3.7660161e-05
3.7641566e-05
3.762419e-05
3.7608152e-05
3.7593849e-05
3.7581338e-05
3.7570946e-05
3.7562653e-05
3.7556701e-05
3.7552982e-05
3.7551613e-05
3.7552549e-05
3.7555585e-05
3.7560743e-05
3.7567278e-05
3.7572299e-05
3.7579084e-05
3.7587301e-05
3.7596054e-05
3.7606304e-05
3.7617594e-05
3.7629709e-05
3.7642293e-05
3.7655048e-05
3.7667682e-05
3.7679912e-05
3.769149e-05
3.7701356e-05
3.7709196e-05
3.7715422e-05
3.7716177e-05
3.7714547e-05
3.7710744e-05
3.7704781e-05
3.7696724e-05
3.7686676e-05
3.7674772e-05
3.7661178e-05
3.7646103e-05
3.7629758e-05
3.761239e-05
3.7594261e-05
3.7575641e-05
3.7556812e-05
3.7538052e-05
3.7519654e-05
3.7501883e-05
3.7485007e-05
3.7469281e-05
3.745494e-05
3.7442196e-05
3.7431255e-05
3.7422274e-05
3.7415401e-05
3.7410751e-05
3.740841e-05
3.7408433e-05
3.7410862e-05
3.7415683e-05
3.7422876e-05
3.7427944e-05
3.7435221e-05
3.74433e-05
3.7452982e-05
3.7464799e-05
3.7478646e-05
3.7494405e-05
3.7511944e-05
3.7531112e-05
3.7551764e-05
3.7573722e-05
3.7596815e-05
3.7620866e-05
3.7645697e-05
3.7671129e-05
3.7696984e-05
3.7723102e-05
3.7749308e-05
3.777545e-05
3.780138e-05
3.782696e-05
3.7852061e-05
3.7876575e-05
3.7900388e-05
3.7923407e-05
3.7945551e-05
3.7966747e-05
3.798693e-05
3.8006061e-05
3.8024087e-05
3.8040981e-05
3.8056722e-05
3.8071296e-05
3.8084694e-05
3.8095967e-05
3.8105902e-05
3.8114737e-05
3.812251e-05
3.8129268e-05
3.8134026e-05
3.8137584e-05
3.8140562e-05
3.814119e-05
3.7680222e-05
3.7691673e-05
3.7704465e-05
3.7715335e-05
3.772432e-05
3.7731499e-05
3.7736759e-05
3.7736628e-05
3.7725086e-05
3.7711256e-05
3.7695982e-05
3.767964e-05
3.7662302e-05
3.7644363e-05
3.7625925e-05
3.7607408e-05
3.7588935e-05
3.7570939e-05
3.7553544e-05
3.7537175e-05
3.7521937e-05
3.7508221e-05
3.7496094e-05
3.74859e-05
3.7477647e-05
3.7471616e-05
3.7467744e-05
3.7466239e-05
3.746696e-05
3.7470035e-05
3.7475239e-05
3.7482582e-05
3.7491917e-05
3.7502945e-05
3.7510827e-05
3.7518732e-05
3.7525021e-05
3.7532995e-05
3.7542645e-05
3.7553624e-05
3.7565871e-05
3.7578999e-05
3.7592843e-05
3.7607081e-05
3.7621437e-05
3.7635625e-05
3.7649358e-05
3.7662372e-05
3.7674394e-05
3.7685186e-05
3.7694527e-05
3.7696738e-05
3.7692409e-05
3.7685871e-05
3.7677205e-05
3.7666544e-05
3.7654052e-05
3.7639919e-05
3.7624359e-05
3.7607623e-05
3.7589955e-05
3.7571629e-05
3.7552922e-05
3.7534116e-05
3.7515495e-05
3.7497333e-05
3.7479912e-05
3.746348e-05
3.7448284e-05
3.7434551e-05
3.7422486e-05
3.7412269e-05
3.7404068e-05
3.7398002e-05
3.739418e-05
3.7392677e-05
3.739354e-05
3.7396784e-05
3.7402413e-05
3.7410375e-05
3.7415144e-05
3.7416311e-05
3.7419688e-05
3.7425405e-05
3.7433428e-05
3.7443697e-05
3.7456129e-05
3.747062e-05
3.7487049e-05
3.7505272e-05
3.7525148e-05
3.75465e-05
3.7569158e-05
3.7592941e-05
3.7617668e-05
3.7643153e-05
3.7669211e-05
3.7695674e-05
3.7722356e-05
3.7749097e-05
3.7775738e-05
3.780213e-05
3.7828131e-05
3.7853626e-05
3.7878487e-05
3.7902613e-05
3.7925911e-05
3.7948299e-05
3.7969703e-05
3.7990073e-05
3.8009349e-05
3.8027495e-05
3.8044481e-05
3.8060288e-05
3.8074898e-05
3.808832e-05
3.8100546e-05
3.8111588e-05
3.812146e-05
3.8130177e-05
3.8136682e-05
3.8141634e-05
3.8145475e-05
3.8145362e-05
3.766425e-05
3.7678103e-05
3.7692525e-05
3.7704898e-05
3.7715122e-05
3.7723298e-05
3.7729284e-05
3.771999e-05
3.7704292e-05
3.7687169e-05
3.7668802e-05
3.7649669e-05
3.7629925e-05
3.761002e-05
3.7590095e-05
3.7570593e-05
3.7551645e-05
3.7533681e-05
3.7516809e-05
3.7501431e-05
3.7487616e-05
3.7475719e-05
3.7465758e-05
3.745803e-05
3.7452489e-05
3.7449364e-05
3.7448538e-05
3.7450166e-05
3.7454057e-05
3.7460289e-05
3.7468594e-05
3.7478937e-05
3.7491134e-05
3.7498579e-05
3.7501318e-05
3.7504835e-05
3.7510438e-05
3.7517882e-05
3.7527195e-05
3.7538057e-05
3.7550425e-05
3.7563928e-05
3.7578407e-05
3.7593541e-05
3.7609043e-05
3.7624606e-05
3.763992e-05
3.765469e-05
3.7668613e-05
3.7681414e-05
3.7692836e-05
3.770081e-05
3.7694421e-05
3.7685733e-05
3.7674892e-05
3.7662071e-05
3.7647472e-05
3.7631324e-05
3.7613874e-05
3.7595405e-05
3.757619e-05
3.7556525e-05
3.7536711e-05
3.7517044e-05
3.749782e-05
3.7479321e-05
3.7461833e-05
3.7445603e-05
3.7430875e-05
3.7417867e-05
3.7406774e-05
3.739776e-05
3.7390979e-05
3.7386529e-05
3.7384497e-05
3.7384936e-05
3.7387868e-05
3.7393283e-05
3.7401158e-05
3.7409504e-05
3.7407377e-05
3.7406204e-05
3.7407462e-05
3.7411167e-05
3.7417305e-05
3.7425834e-05
3.7436683e-05
3.7449757e-05
3.7464941e-05
3.7482097e-05
3.7501086e-05
3.752173e-05
3.7543857e-05
3.7567284e-05
3.7591821e-05
3.7617278e-05
3.7643459e-05
3.7670187e-05
3.7697269e-05
3.772453e-05
3.7751802e-05
3.7778926e-05
3.7805749e-05
3.7832143e-05
3.785797e-05
3.7883121e-05
3.790749e-05
3.7930986e-05
3.7953527e-05
3.7975053e-05
3.7995496e-05
3.8014811e-05
3.8032961e-05
3.8049918e-05
3.8065657e-05
3.8080178e-05
3.8093465e-05
3.810552e-05
3.8116343e-05
3.8125934e-05
3.813426e-05
3.8141283e-05
3.8146765e-05
3.8147252e-05
3.7655406e-05
3.7672305e-05
3.7689397e-05
3.7704395e-05
3.7717077e-05
3.7727551e-05
3.773183e-05
3.7716068e-05
3.7698232e-05
3.7679083e-05
3.7658812e-05
3.7637918e-05
3.7616587e-05
3.7595299e-05
3.7574221e-05
3.7553816e-05
3.7534228e-05
3.751589e-05
3.7498914e-05
3.7483694e-05
3.7470293e-05
3.7459054e-05
3.7449979e-05
3.744335e-05
3.7439101e-05
3.7437441e-05
3.7438232e-05
3.7441605e-05
3.7447345e-05
3.7455503e-05
3.7465785e-05
3.7478128e-05
3.7488261e-05
3.7487788e-05
3.7487866e-05
3.7490137e-05
3.7494734e-05
3.7501437e-05
3.7510291e-05
3.7520991e-05
3.7533498e-05
3.754744e-05
3.7562654e-05
3.7578806e-05
3.759559e-05
3.7612682e-05
3.7629741e-05
3.7646445e-05
3.7662452e-05
3.767745e-05
3.7691142e-05
3.7703253e-05
3.7696876e-05
3.7686077e-05
3.7673081e-05
3.7658101e-05
3.7641374e-05
3.7623168e-05
3.7603763e-05
3.7583474e-05
3.7562604e-05
3.7541475e-05
3.7520409e-05
3.7499723e-05
3.7479728e-05
3.7460716e-05
3.7442981e-05
3.7426774e-05
3.7412338e-05
3.7399888e-05
3.738961e-05
3.7381657e-05
3.7376169e-05
3.7373228e-05
3.7372901e-05
3.7375218e-05
3.7380177e-05
3.7387744e-05
3.7397867e-05
3.7403264e-05
3.7397417e-05
3.7394038e-05
3.7393191e-05
3.7394909e-05
3.7399195e-05
3.740602e-05
3.7415328e-05
3.7427034e-05
3.7441029e-05
3.7457178e-05
3.7475344e-05
3.7495349e-05
3.7517016e-05
3.7540157e-05
3.7564577e-05
3.7590075e-05
3.7616447e-05
3.7643507e-05
3.7671049e-05
3.7698888e-05
3.7726846e-05
3.7754751e-05
3.7782439e-05
3.7809773e-05
3.7836604e-05
3.786281e-05
3.788828e-05
3.7912912e-05
3.7936613e-05
3.7959318e-05
3.798095e-05
3.8001457e-05
3.8020794e-05
3.8038925e-05
3.8055821e-05
3.8071473e-05
3.8085859e-05
3.8098973e-05
3.8110809e-05
3.8121353e-05
3.8130569e-05
3.8138413e-05
3.8144814e-05
3.8146906e-05
3.7647879e-05
3.7667803e-05
3.7687697e-05
3.7705441e-05
3.7720707e-05
3.7733591e-05
3.7732041e-05
3.7713699e-05
3.7693673e-05
3.7672468e-05
3.7650291e-05
3.7627658e-05
3.7604768e-05
3.7582116e-05
3.7559881e-05
3.7538535e-05
3.7518228e-05
3.74994e-05
3.7482166e-05
3.746692e-05
3.7453724e-05
3.7442918e-05
3.74345e-05
3.7428743e-05
3.7425572e-05
3.7425184e-05
3.7427426e-05
3.7432411e-05
3.7439901e-05
3.7449925e-05
3.7462161e-05
3.7476515e-05
3.7478676e-05
3.7474731e-05
3.7473319e-05
3.7474334e-05
3.7477936e-05
3.7483925e-05
3.7492363e-05
3.7502953e-05
3.7515664e-05
3.7530121e-05
3.7546154e-05
3.7563417e-05
3.7581587e-05
3.760031e-05
3.7619219e-05
3.7637957e-05
3.7656145e-05
3.7673433e-05
3.7689481e-05
3.7703975e-05
3.7699712e-05
3.7686719e-05
3.7671475e-05
3.7654233e-05
3.7635269e-05
3.7614889e-05
3.7593409e-05
3.7571179e-05
3.754853e-05
3.7525814e-05
3.7503376e-05
3.7481554e-05
3.7460675e-05
3.7441045e-05
3.7422966e-05
3.7406692e-05
3.7392469e-05
3.7380507e-05
3.7370986e-05
3.7364049e-05
3.7359821e-05
3.7358368e-05
3.7359737e-05
3.7363935e-05
3.7370936e-05
3.7380679e-05
3.7393086e-05
3.7394122e-05
3.7385945e-05
3.7380327e-05
3.7377352e-05
3.7377078e-05
3.7379521e-05
3.7384668e-05
3.7392473e-05
3.7402859e-05
3.7415723e-05
3.7430931e-05
3.7448346e-05
3.7467787e-05
3.7489074e-05
3.751201e-05
3.7536392e-05
3.756201e-05
3.7588651e-05
3.7616116e-05
3.7644187e-05
3.7672671e-05
3.7701373e-05
3.7730113e-05
3.7758715e-05
3.778703e-05
3.7814899e-05
3.7842192e-05
3.7868785e-05
3.789457e-05
3.7919444e-05
3.7943334e-05
3.7966154e-05
3.7987848e-05
3.8008361e-05
3.8027653e-05
3.8045687e-05
3.8062449e-05
3.807791e-05
3.8092061e-05
3.810489e-05
3.8116383e-05
3.8126507e-05
3.8135235e-05
3.8142488e-05
3.8145544e-05
3.764049e-05
3.7663507e-05
3.768634e-05
3.770696e-05
3.7724953e-05
3.7740394e-05
3.7732691e-05
3.7712035e-05
3.7689793e-05
3.7666484e-05
3.7642331e-05
3.7617863e-05
3.7593296e-05
3.7569143e-05
3.7545598e-05
3.7523147e-05
3.7501952e-05
3.7482461e-05
3.7464793e-05
3.7449349e-05
3.7436191e-05
3.742566e-05
3.7417753e-05
3.7412736e-05
3.7410529e-05
3.7411319e-05
3.7414939e-05
3.7421487e-05
3.7430704e-05
3.7442598e-05
3.7456816e-05
3.7471469e-05
3.7465487e-05
3.7459774e-05
3.7456824e-05
3.7456563e-05
3.7459174e-05
3.7464482e-05
3.747256e-05
3.7483125e-05
3.7496146e-05
3.7511245e-05
3.7528242e-05
3.7546774e-05
3.7566494e-05
3.7587022e-05
3.7607958e-05
3.7628905e-05
3.7649446e-05
3.7669186e-05
3.7687743e-05
3.7704758e-05
3.7702942e-05
3.7687682e-05
3.7670101e-05
3.7650493e-05
3.7629176e-05
3.7606495e-05
3.7582807e-05
3.7558495e-05
3.7533925e-05
3.7509479e-05
3.7485528e-05
3.7462432e-05
3.7440537e-05
3.7420163e-05
3.7401622e-05
3.7385176e-05
3.737107e-05
3.7359515e-05
3.7350684e-05
3.734471e-05
3.7341704e-05
3.7341717e-05
3.7344774e-05
3.7350862e-05
3.735993e-05
3.7371889e-05
3.7386632e-05
3.7383348e-05
3.7372802e-05
3.736492e-05
3.735981e-05
3.7357547e-05
3.7358163e-05
3.7361659e-05
3.7368e-05
3.7377116e-05
3.7388907e-05
3.7403241e-05
3.7419979e-05
3.7438935e-05
3.7459923e-05
3.7482739e-05
3.7507169e-05
3.7532994e-05
3.7559987e-05
3.7587938e-05
3.7616618e-05
3.7645819e-05
3.7675336e-05
3.7704976e-05
3.7734551e-05
3.7763903e-05
3.7792861e-05
3.7821286e-05
3.7849044e-05
3.7876018e-05
3.7902098e-05
3.7927204e-05
3.7951242e-05
3.7974147e-05
3.7995862e-05
3.8016338e-05
3.8035532e-05
3.8053426e-05
3.8069985e-05
3.8085195e-05
3.8099041e-05
3.8111504e-05
3.8122557e-05
3.8132182e-05
3.8140313e-05
3.814434e-05
3.7633546e-05
3.7659681e-05
3.7685495e-05
3.7709015e-05
3.7729743e-05
3.7747733e-05
3.7733606e-05
3.7710429e-05
3.7685762e-05
3.7660148e-05
3.7633831e-05
3.7607358e-05
3.7580961e-05
3.7555168e-05
3.7530187e-05
3.7506513e-05
3.7484321e-05
3.7464066e-05
3.7445876e-05
3.7430154e-05
3.741697e-05
3.7406663e-05
3.739923e-05
3.7394936e-05
3.7393695e-05
3.7395684e-05
3.7400725e-05
3.7408899e-05
3.7419928e-05
3.7433794e-05
3.7450117e-05
3.7461172e-05
3.745095e-05
3.744342e-05
3.7438899e-05
3.7437345e-05
3.7438969e-05
3.7443615e-05
3.7451375e-05
3.7461974e-05
3.7475382e-05
3.7491218e-05
3.750929e-05
3.7529214e-05
3.7550621e-05
3.7573097e-05
3.7596206e-05
3.7619513e-05
3.7642555e-05
3.7664891e-05
3.7686094e-05
3.7705756e-05
3.7706744e-05
3.7689108e-05
3.7669068e-05
3.7646961e-05
3.762315e-05
3.7598023e-05
3.7571976e-05
3.7545431e-05
3.751879e-05
3.7492467e-05
3.7466859e-05
3.7442353e-05
3.7419313e-05
3.7398076e-05
3.7378966e-05
3.7362251e-05
3.7348181e-05
3.7336964e-05
3.7328767e-05
3.7323716e-05
3.7321908e-05
3.7323376e-05
3.7328128e-05
3.7336125e-05
3.7347292e-05
3.7361512e-05
3.7378649e-05
3.7371075e-05
3.7358099e-05
3.7347909e-05
3.7340634e-05
3.7336369e-05
3.7335162e-05
3.7337028e-05
3.7341938e-05
3.7349829e-05
3.7360604e-05
3.7374131e-05
3.7390265e-05
3.7408817e-05
3.7429591e-05
3.7452374e-05
3.7476941e-05
3.7503059e-05
3.753049e-05
3.755901e-05
3.7588376e-05
3.7618367e-05
3.7648766e-05
3.7679367e-05
3.7709971e-05
3.7740407e-05
3.7770496e-05
3.7800086e-05
3.7829037e-05
3.7857223e-05
3.7884526e-05
3.7910858e-05
3.7936119e-05
3.796024e-05
3.7983155e-05
3.8004811e-05
3.8025162e-05
3.8044184e-05
3.806184e-05
3.8078113e-05
3.8092987e-05
3.8106447e-05
3.8118472e-05
3.8129054e-05
3.8138146e-05
3.8143205e-05
3.7626768e-05
3.7656177e-05
3.7685124e-05
3.7711675e-05
3.7735264e-05
3.7755915e-05
3.773509e-05
3.7709274e-05
3.7682053e-05
3.7653994e-05
3.762536e-05
3.759672e-05
3.7568324e-05
3.7540719e-05
3.7514129e-05
3.7489065e-05
3.7465713e-05
3.7444541e-05
3.7425683e-05
3.7409552e-05
3.7396221e-05
3.7386034e-05
3.7378988e-05
3.7375348e-05
3.7375022e-05
3.737818e-05
3.7384633e-05
3.7394448e-05
3.7407326e-05
3.7423225e-05
3.7441738e-05
3.7446984e-05
3.743462e-05
3.7425182e-05
3.7419026e-05
3.741614e-05
3.7416767e-05
3.7420771e-05
3.7428262e-05
3.743897e-05
3.7452869e-05
3.7469568e-05
3.7488862e-05
3.7510346e-05
3.7533619e-05
3.7558234e-05
3.7583714e-05
3.7609578e-05
3.7635317e-05
3.7660441e-05
3.7684468e-05
3.7706944e-05
3.771115e-05
3.7691025e-05
3.7668395e-05
3.7643646e-05
3.7617188e-05
3.7589453e-05
3.7560882e-05
3.7531938e-05
3.750306e-05
3.7474695e-05
3.7447273e-05
3.7421206e-05
3.739688e-05
3.737465e-05
3.7354853e-05
3.7337766e-05
3.7323642e-05
3.731269e-05
3.7305073e-05
3.7300906e-05
3.7300275e-05
3.7303196e-05
3.7309656e-05
3.7319594e-05
3.7332909e-05
3.7349453e-05
3.7369061e-05
3.7357236e-05
3.7341768e-05
3.7329224e-05
3.7319756e-05
3.7313477e-05
3.7310452e-05
3.7310706e-05
3.7314219e-05
3.7320934e-05
3.7330753e-05
3.7343543e-05
3.7359154e-05
3.7377388e-05
3.7398041e-05
3.7420886e-05
3.7445686e-05
3.7472195e-05
3.7500159e-05
3.7529342e-05
3.7559484e-05
3.7590351e-05
3.7621713e-05
3.7653349e-05
3.768505e-05
3.7716634e-05
3.7747909e-05
3.7778717e-05
3.7808907e-05
3.7838344e-05
3.7866905e-05
3.7894494e-05
3.7921005e-05
3.7946362e-05
3.7970496e-05
3.7993348e-05
3.8014867e-05
3.8035026e-05
3.8053785e-05
3.8071124e-05
3.8087028e-05
3.8101484e-05
3.8114479e-05
3.8126014e-05
3.8136065e-05
3.8142134e-05
3.7620385e-05
3.7653168e-05
3.7685342e-05
3.7715001e-05
3.7741509e-05
3.7763294e-05
3.7736884e-05
3.7708226e-05
3.7678247e-05
3.7647543e-05
3.7616403e-05
3.7585414e-05
3.755485e-05
3.7525273e-05
3.7496923e-05
3.7470328e-05
3.7445686e-05
3.7423475e-05
3.7403841e-05
3.7387206e-05
3.7373648e-05
3.7363518e-05
3.7356815e-05
3.7353802e-05
3.7354388e-05
3.7358735e-05
3.7366645e-05
3.7378167e-05
3.7392987e-05
3.7411037e-05
3.7431879e-05
3.7431346e-05
3.7416736e-05
3.7405303e-05
3.7397442e-05
3.7393181e-05
3.739279e-05
3.7396158e-05
3.7403411e-05
3.7414289e-05
3.7428764e-05
3.7446439e-05
3.746709e-05
3.7490287e-05
3.7515597e-05
3.7542535e-05
3.7570578e-05
3.7599197e-05
3.762783e-05
3.7655933e-05
3.7682971e-05
3.7708436e-05
3.7716307e-05
3.769355e-05
3.7668174e-05
3.7640616e-05
3.7611335e-05
3.7580813e-05
3.7549535e-05
3.7518009e-05
3.7486714e-05
3.7456134e-05
3.7426732e-05
3.7398948e-05
3.7373191e-05
3.7349835e-05
3.7329233e-05
3.7311671e-05
3.7297408e-05
3.7286652e-05
3.7279564e-05
3.7276249e-05
3.7276781e-05
3.7281159e-05
3.728935e-05
3.7301268e-05
3.7316785e-05
3.7335725e-05
3.7357889e-05
3.7341841e-05
3.7323803e-05
3.7308845e-05
3.7297143e-05
3.7288828e-05
3.7283981e-05
3.7282637e-05
3.7284785e-05
3.7290369e-05
3.7299292e-05
3.7311417e-05
3.7326585e-05
3.734459e-05
3.7365215e-05
3.7388221e-05
3.7413354e-05
3.7440353e-05
3.7468949e-05
3.7498888e-05
3.7529896e-05
3.7561723e-05
3.7594125e-05
3.7626868e-05
3.765973e-05
3.7692517e-05
3.7725029e-05
3.7757096e-05
3.778856e-05
3.7819278e-05
3.784912e-05
3.7877984e-05
3.7905759e-05
3.7932363e-05
3.7957723e-05
3.7981777e-05
3.800447e-05
3.8025772e-05
3.8045641e-05
3.8064059e-05
3.8081009e-05
3.8096482e-05
3.811047e-05
3.8122986e-05
3.8134019e-05
3.8141099e-05
3.7614265e-05
3.7650625e-05
3.7686205e-05
3.7719129e-05
3.7748697e-05
3.7769334e-05
3.7739229e-05
3.7707562e-05
3.7674651e-05
3.764112e-05
3.7607286e-05
3.7573761e-05
3.7540839e-05
3.7509103e-05
3.7478813e-05
3.7450512e-05
3.7424414e-05
3.740101e-05
3.7380458e-05
3.736319e-05
3.7349293e-05
3.7339123e-05
3.7332686e-05
3.7330245e-05
3.7331709e-05
3.7337234e-05
3.7346614e-05
3.7359885e-05
3.7376714e-05
3.739701e-05
3.7420304e-05
3.7413984e-05
3.7396982e-05
3.7383433e-05
3.7373777e-05
3.7368077e-05
3.7366638e-05
3.7369374e-05
3.7376427e-05
3.7387545e-05
3.7402701e-05
3.7421485e-05
3.7443653e-05
3.7468749e-05
3.7496301e-05
3.752578e-05
3.7556615e-05
3.7588223e-05
3.7619983e-05
3.7651294e-05
3.7681562e-05
3.771022e-05
3.7722259e-05
3.7696712e-05
3.7668419e-05
3.7637867e-05
3.760557e-05
3.7572061e-05
3.7537876e-05
3.7503569e-05
3.7469662e-05
3.7436678e-05
3.7405116e-05
3.7375445e-05
3.7348101e-05
3.732348e-05
3.7301949e-05
3.7283806e-05
3.7269316e-05
3.7258689e-05
3.7252082e-05
3.7249593e-05
3.7251282e-05
3.7257132e-05
3.7267087e-05
3.728104e-05
3.7298831e-05
3.7320255e-05
3.7345078e-05
3.7324838e-05
3.7304145e-05
3.7286708e-05
3.7272727e-05
3.7262351e-05
3.7255677e-05
3.7252749e-05
3.7253564e-05
3.7258066e-05
3.7266157e-05
3.7277692e-05
3.7292506e-05
3.7310379e-05
3.733108e-05
3.7354353e-05
3.737993e-05
3.740753e-05
3.7436866e-05
3.7467667e-05
3.7499642e-05
3.7532526e-05
3.7566058e-05
3.7599991e-05
3.763409e-05
3.766815e-05
3.7701959e-05
3.773534e-05
3.7768125e-05
3.7800165e-05
3.7831323e-05
3.786149e-05
3.7890551e-05
3.7918421e-05
3.794502e-05
3.7970285e-05
3.7994156e-05
3.8016603e-05
3.8037583e-05
3.8057075e-05
3.8075066e-05
3.8091552e-05
3.810653e-05
3.812002e-05
3.8132027e-05
3.8140097e-05
3.7608564e-05
3.7648657e-05
3.7687786e-05
3.7724102e-05
3.7756834e-05
3.777532e-05
3.7741945e-05
3.770705e-05
3.7670991e-05
3.7634423e-05
3.7597691e-05
3.7561432e-05
3.7525964e-05
3.749189e-05
3.7459489e-05
3.7429321e-05
3.7401615e-05
3.7376879e-05
3.7355283e-05
3.7337269e-05
3.7322937e-05
3.731265e-05
3.7306421e-05
3.7304519e-05
3.730685e-05
3.7313571e-05
3.7324465e-05
3.733956e-05
3.7358502e-05
3.7381176e-05
3.7407084e-05
3.7394988e-05
3.7375444e-05
3.7359651e-05
3.7348095e-05
3.7340883e-05
3.7338352e-05
3.7340446e-05
3.7347324e-05
3.7358745e-05
3.7374676e-05
3.7394699e-05
3.7418546e-05
3.7445727e-05
3.7475731e-05
3.750798e-05
3.7541847e-05
3.757669e-05
3.7611828e-05
3.7646592e-05
3.7680326e-05
3.7712399e-05
3.7729151e-05
3.7700633e-05
3.7669222e-05
3.7635467e-05
3.7599937e-05
3.756322e-05
3.7525908e-05
3.7488602e-05
3.7451871e-05
3.7416281e-05
3.7382367e-05
3.735063e-05
3.7321537e-05
3.7295503e-05
3.7272914e-05
3.7254081e-05
3.7239276e-05
3.7228712e-05
3.7222541e-05
3.7220855e-05
3.72237e-05
3.7231041e-05
3.7242804e-05
3.7258852e-05
3.7278999e-05
3.7303004e-05
3.73306e-05
3.7306188e-05
3.7282742e-05
3.726275e-05
3.7246435e-05
3.7233966e-05
3.7225453e-05
3.7220952e-05
3.7220463e-05
3.7223932e-05
3.7231256e-05
3.7242281e-05
3.7256833e-05
3.7274675e-05
3.7295559e-05
3.7319214e-05
3.7345348e-05
3.7373663e-05
3.7403852e-05
3.7435623e-05
3.746867e-05
3.7502707e-05
3.7537458e-05
3.7572663e-05
3.7608073e-05
3.7643471e-05
3.7678636e-05
3.771338e-05
3.7747528e-05
3.7780925e-05
3.7813427e-05
3.7844921e-05
3.7875288e-05
3.7904437e-05
3.7932288e-05
3.7958772e-05
3.798383e-05
3.8007429e-05
3.8029525e-05
3.80501e-05
3.8069141e-05
3.8086647e-05
3.8102622e-05
3.8117092e-05
3.8130073e-05
3.813912e-05
3.7603232e-05
3.7647296e-05
3.7690184e-05
3.7730075e-05
3.7766134e-05
3.7782047e-05
3.7745199e-05
3.7706869e-05
3.7667449e-05
3.7627628e-05
3.7587783e-05
3.7548578e-05
3.7510354e-05
3.747374e-05
3.7439033e-05
3.7406811e-05
3.7377324e-05
3.7351092e-05
3.7328303e-05
3.7309411e-05
3.7294528e-05
3.7284028e-05
3.7277933e-05
3.7276516e-05
3.7279689e-05
3.7287606e-05
3.7300046e-05
3.7317025e-05
3.7338174e-05
3.7363353e-05
3.7392034e-05
3.7374154e-05
3.7351884e-05
3.7333689e-05
3.7320107e-05
3.7311289e-05
3.7307613e-05
3.7309052e-05
3.7315783e-05
3.7327575e-05
3.7344391e-05
3.73658e-05
3.7391507e-05
3.7420987e-05
3.7453681e-05
3.7488959e-05
3.7526131e-05
3.756449e-05
3.7603286e-05
3.7641781e-05
3.7679248e-05
3.771499e-05
3.7737052e-05
3.7705359e-05
3.7670611e-05
3.763342e-05
3.7594418e-05
3.7554253e-05
3.7513571e-05
3.7473029e-05
3.7433245e-05
3.739483e-05
3.7358357e-05
3.7324364e-05
3.7293346e-05
3.7265745e-05
3.7241965e-05
3.7222331e-05
3.7207123e-05
3.7196555e-05
3.719078e-05
3.718988e-05
3.7193889e-05
3.7202755e-05
3.721638e-05
3.7234601e-05
3.72572e-05
3.7283903e-05
3.7314405e-05
3.7285835e-05
3.7259528e-05
3.7236896e-05
3.7218186e-05
3.7203586e-05
3.7193222e-05
3.7187158e-05
3.7185397e-05
3.7187885e-05
3.7194512e-05
3.7205115e-05
3.7219504e-05
3.7237425e-05
3.7258612e-05
3.728277e-05
3.7309588e-05
3.7338744e-05
3.7369909e-05
3.7402772e-05
3.7437003e-05
3.7472301e-05
3.7508373e-05
3.7544942e-05
3.7581746e-05
3.7618556e-05
3.7655142e-05
3.7691306e-05
3.7726867e-05
3.7761661e-05
3.7795541e-05
3.7828389e-05
3.7860082e-05
3.7890526e-05
3.7919638e-05
3.7947347e-05
3.7973594e-05
3.7998344e-05
3.8021554e-05
3.8043206e-05
3.8063291e-05
3.8081811e-05
3.8098775e-05
3.8114217e-05
3.812816e-05
3.8138166e-05
3.7598393e-05
3.7646637e-05
3.7693476e-05
3.7737113e-05
3.7776645e-05
3.7789444e-05
3.7748879e-05
3.7706869e-05
3.7663848e-05
3.7620542e-05
3.7577357e-05
3.7534987e-05
3.7493798e-05
3.7454441e-05
3.7417236e-05
3.738278e-05
3.7351339e-05
3.7323454e-05
3.7299326e-05
3.7279427e-05
3.7263882e-05
3.7253078e-05
3.7247048e-05
3.7246075e-05
3.7250074e-05
3.7259203e-05
3.7273237e-05
3.7292183e-05
3.7315656e-05
3.7343494e-05
3.7375137e-05
3.7351484e-05
3.7326289e-05
3.7305518e-05
3.7289765e-05
3.7279234e-05
3.7274344e-05
3.7275099e-05
3.7281701e-05
3.7293927e-05
3.7311737e-05
3.7334683e-05
3.7362441e-05
3.7394445e-05
3.7430086e-05
3.7468671e-05
3.7509444e-05
3.7551624e-05
3.7594385e-05
3.7636914e-05
3.7678408e-05
3.7718094e-05
3.7746114e-05
3.7711012e-05
3.7672679e-05
3.7631793e-05
3.7589054e-05
3.7545173e-05
3.7500858e-05
3.7456822e-05
3.7413737e-05
3.7372259e-05
3.7333006e-05
3.7296554e-05
3.7263428e-05
3.7234097e-05
3.7208985e-05
3.7188433e-05
3.717273e-05
3.7162094e-05
3.7156675e-05
3.7156548e-05
3.7161735e-05
3.7172164e-05
3.7187714e-05
3.7208195e-05
3.7233356e-05
3.7262886e-05
3.729629e-05
3.726371e-05
3.7234422e-05
3.7209054e-05
3.7187879e-05
3.7171106e-05
3.7158873e-05
3.7151254e-05
3.7148255e-05
3.7149817e-05
3.7155821e-05
3.7166093e-05
3.7180425e-05
3.7198543e-05
3.7220158e-05
3.7244951e-05
3.7272586e-05
3.7302716e-05
3.7334988e-05
3.7369066e-05
3.7404602e-05
3.7441272e-05
3.7478766e-05
3.7516792e-05
3.7555074e-05
3.7593371e-05
3.7631442e-05
3.7669082e-05
3.7706102e-05
3.7742334e-05
3.7777624e-05
3.7811852e-05
3.784489e-05
3.7876644e-05
3.7907028e-05
3.7935971e-05
3.7963412e-05
3.7989316e-05
3.8013641e-05
3.8036372e-05
3.80575e-05
3.8077032e-05
3.8094982e-05
3.811139e-05
3.8126284e-05
3.8137233e-05
3.7594058e-05
3.7646753e-05
3.7697785e-05
3.7745382e-05
3.7788575e-05
3.7797631e-05
3.77531e-05
3.7707161e-05
3.766029e-05
3.7613251e-05
3.7566483e-05
3.7520709e-05
3.7476326e-05
3.7434005e-05
3.7394089e-05
3.7357198e-05
3.7323616e-05
3.7293901e-05
3.7268275e-05
3.7247224e-05
3.7230892e-05
3.721968e-05
3.7213635e-05
3.721305e-05
3.7217852e-05
3.7228199e-05
3.7243868e-05
3.7264859e-05
3.7290773e-05
3.7321425e-05
3.7356225e-05
3.7326813e-05
3.7298459e-05
3.7274908e-05
3.7256817e-05
3.7244445e-05
3.7238258e-05
3.7238297e-05
3.7244787e-05
3.7257514e-05
3.7276437e-05
3.7301087e-05
3.7331109e-05
3.7365888e-05
3.740476e-05
3.7446962e-05
3.7491664e-05
3.7538005e-05
3.7585075e-05
3.7631976e-05
3.7677822e-05
3.7721762e-05
3.7756437e-05
3.7717667e-05
3.7675473e-05
3.7630606e-05
3.7583838e-05
3.7535949e-05
3.7487713e-05
3.7439903e-05
3.7393248e-05
3.7348454e-05
3.7306184e-05
3.7267055e-05
3.7231625e-05
3.7200392e-05
3.7173802e-05
3.7152212e-05
3.7135922e-05
3.7125155e-05
3.7120057e-05
3.7120698e-05
3.7127084e-05
3.7139127e-05
3.7156679e-05
3.7179523e-05
3.7207372e-05
3.7239877e-05
3.7275972e-05
3.7239744e-05
3.7207342e-05
3.7179134e-05
3.7155417e-05
3.7136423e-05
3.7122302e-05
3.7113137e-05
3.7108933e-05
3.7109627e-05
3.7115091e-05
3.7125133e-05
3.7139523e-05
3.7157967e-05
3.7180148e-05
3.7205719e-05
3.7234317e-05
3.7265566e-05
3.7299086e-05
3.7334518e-05
3.7371487e-05
3.740965e-05
3.7448678e-05
3.7488262e-05
3.7528112e-05
3.7567976e-05
3.7607602e-05
3.7646777e-05
3.7685307e-05
3.7723017e-05
3.775975e-05
3.7795382e-05
3.7829785e-05
3.7862862e-05
3.7894526e-05
3.7924705e-05
3.795334e-05
3.7980395e-05
3.800583e-05
3.8029632e-05
3.8051795e-05
3.807233e-05
3.8091255e-05
3.8108616e-05
3.8124447e-05
3.813632e-05
3.7590346e-05
3.7647751e-05
3.7703215e-05
3.7754985e-05
3.7802022e-05
3.7806577e-05
3.7757798e-05
3.7707652e-05
3.7656661e-05
3.7605625e-05
3.7555021e-05
3.75056e-05
3.7457787e-05
3.7412277e-05
3.7369437e-05
3.7329907e-05
3.7293991e-05
3.7262269e-05
3.723498e-05
3.7212631e-05
3.7195383e-05
3.7183657e-05
3.7177515e-05
3.7177267e-05
3.7182848e-05
3.7194427e-05
3.7211782e-05
3.7234908e-05
3.7263396e-05
3.729704e-05
3.7335218e-05
3.7300084e-05
3.7268314e-05
3.7241755e-05
3.7221134e-05
3.7206773e-05
3.7199188e-05
3.7198463e-05
3.720485e-05
3.7218145e-05
3.7238304e-05
3.7264836e-05
3.7297348e-05
3.7335176e-05
3.7377588e-05
3.7423748e-05
3.7472741e-05
3.7523616e-05
3.7575371e-05
3.7627014e-05
3.7677571e-05
3.7726103e-05
3.7768182e-05
3.7725453e-05
3.767909e-05
3.7629925e-05
3.7578806e-05
3.7526589e-05
3.7474117e-05
3.7422229e-05
3.7371712e-05
3.7323328e-05
3.7277788e-05
3.7235749e-05
3.7197808e-05
3.716449e-05
3.7136268e-05
3.7113516e-05
3.7096544e-05
3.708558e-05
3.7080771e-05
3.7082176e-05
3.7089791e-05
3.7103505e-05
3.7123148e-05
3.7148468e-05
3.7179145e-05
3.7214789e-05
3.7253602e-05
3.7213845e-05
3.7178183e-05
3.7147018e-05
3.7120676e-05
3.7099406e-05
3.7083376e-05
3.7072672e-05
3.7067301e-05
3.7067192e-05
3.7072203e-05
3.7082123e-05
3.7096699e-05
3.7115608e-05
3.7138503e-05
3.7165007e-05
3.7194723e-05
3.7227247e-05
3.7262167e-05
3.7299096e-05
3.7337635e-05
3.7377418e-05
3.7418095e-05
3.7459341e-05
3.7500853e-05
3.7542364e-05
3.7583616e-05
3.7624386e-05
3.7664475e-05
3.7703704e-05
3.7741913e-05
3.7778975e-05
3.7814762e-05
3.7849174e-05
3.7882126e-05
3.7913546e-05
3.7943375e-05
3.797158e-05
3.7998121e-05
3.8022987e-05
3.8046177e-05
3.8067705e-05
3.8087594e-05
3.8105895e-05
3.8122647e-05
3.8135427e-05
3.7587317e-05
3.764974e-05
3.7709914e-05
3.7766103e-05
3.7817201e-05
3.7816376e-05
3.7763054e-05
3.7708409e-05
3.7653008e-05
3.7597695e-05
3.7542982e-05
3.7489651e-05
3.7438155e-05
3.7389214e-05
3.7343219e-05
3.730083e-05
3.7262375e-05
3.7228452e-05
3.7199323e-05
3.7175515e-05
3.7157212e-05
3.7144854e-05
3.7138523e-05
3.7138548e-05
3.7144878e-05
3.7157695e-05
3.7176783e-05
3.7202135e-05
3.7233333e-05
3.7270153e-05
3.7311454e-05
3.7271144e-05
3.7235666e-05
3.720584e-05
3.7182471e-05
3.7165948e-05
3.715685e-05
3.7155304e-05
3.7161592e-05
3.7175525e-05
3.7197052e-05
3.722566e-05
3.7260914e-05
3.7302092e-05
3.7348388e-05
3.7398882e-05
3.7452566e-05
3.7508387e-05
3.7565243e-05
3.7622041e-05
3.7677705e-05
3.7731202e-05
3.7780598e-05
3.7734471e-05
3.7683598e-05
3.7629784e-05
3.7573963e-05
3.7517068e-05
3.7460018e-05
3.7403723e-05
3.7349031e-05
3.7296762e-05
3.7247679e-05
3.7202483e-05
3.7161809e-05
3.7126216e-05
3.70962e-05
3.7072155e-05
3.7054404e-05
3.704318e-05
3.703863e-05
3.7040805e-05
3.7049686e-05
3.7065143e-05
3.7086977e-05
3.7114906e-05
3.714857e-05
3.7187537e-05
3.7229401e-05
3.7185924e-05
3.7146844e-05
3.7112595e-05
3.7083533e-05
3.7059929e-05
3.7041964e-05
3.7029731e-05
3.7023234e-05
3.7022393e-05
3.7027048e-05
3.7036966e-05
3.7051866e-05
3.7071393e-05
3.7095166e-05
3.7122771e-05
3.7153777e-05
3.7187743e-05
3.7224227e-05
3.726281e-05
3.7303065e-05
3.7344603e-05
3.7387054e-05
3.7430074e-05
3.7473344e-05
3.7516589e-05
3.7559539e-05
3.7601967e-05
3.7643665e-05
3.7684454e-05
3.7724169e-05
3.7762685e-05
3.7799871e-05
3.7835629e-05
3.7869873e-05