/*--------------------------------*- C++ -*----------------------------------*\
| =========                 |                                                 |
| \\      /  F ield         | foam-extend: Open Source CFD                    |
|  \\    /   O peration     | Version:     4.1                                |
|   \\  /    A nd           | Web:         http://www.foam-extend.org         |
|    \\/     M anipulation  |                                                 |
\*---------------------------------------------------------------------------*/
FoamFile
{
    version     2.0;
    format      ascii;
    class       volVectorField;
    location    "0.35";
    object      U;
}
// * * * * * * * * * * * * * * * * * * * * * * * * * * * * * * * * * * * * * //

dimensions      [0 1 -1 0 0 0 0];

internalField   nonuniform List<vector> 
16796
(
(139.44126 -0.13525502 0)
(139.83017 -0.14430857 0)
(140.13924 -0.14426785 0)
(140.45088 -0.14219271 0)
(140.75559 -0.13899461 0)
(141.05113 -0.13506113 0)
(141.33555 -0.13056125 0)
(141.60726 -0.12559965 0)
(141.86492 -0.12025997 0)
(142.10739 -0.1146202 0)
(142.33377 -0.10875796 0)
(142.54335 -0.10275268 0)
(142.73567 -0.096685706 0)
(142.91049 -0.090640217 0)
(143.06782 -0.084700284 0)
(143.20793 -0.078950318 0)
(143.33133 -0.073473743 0)
(143.4388 -0.068352243 0)
(143.53133 -0.063664639 0)
(143.61019 -0.059486696 0)
(143.67685 -0.055890611 0)
(143.733 -0.052943733 0)
(143.78053 -0.05070578 0)
(143.8215 -0.049227339 0)
(143.85813 -0.048546228 0)
(143.89275 -0.048689349 0)
(143.9278 -0.049674919 0)
(143.96578 -0.051510444 0)
(144.00923 -0.054193883 0)
(144.06067 -0.05771386 0)
(144.12261 -0.062049936 0)
(144.19748 -0.067173468 0)
(144.28762 -0.073046928 0)
(144.3952 -0.079622814 0)
(144.52228 -0.0868414 0)
(144.67069 -0.094631072 0)
(144.84203 -0.10291092 0)
(145.03767 -0.1115914 0)
(145.25868 -0.12057527 0)
(145.50585 -0.12975958 0)
(145.77966 -0.13903624 0)
(146.08023 -0.14829388 0)
(146.40737 -0.15741872 0)
(146.76056 -0.16629634 0)
(147.1389 -0.17481291 0)
(147.54117 -0.18285673 0)
(147.96584 -0.19031975 0)
(148.41102 -0.19709905 0)
(148.87454 -0.2030983 0)
(149.35397 -0.20822915 0)
(149.84659 -0.21241259 0)
(150.34948 -0.21558011 0)
(150.85951 -0.21767481 0)
(151.37342 -0.21865227 0)
(151.88779 -0.21848125 0)
(152.39915 -0.21714423 0)
(152.904 -0.21463767 0)
(153.39882 -0.21097207 0)
(153.88014 -0.20617176 0)
(154.34459 -0.2002745 0)
(154.78893 -0.19333075 0)
(155.21008 -0.18540282 0)
(155.60516 -0.17656376 0)
(155.97152 -0.16689602 0)
(156.3068 -0.15649007 0)
(156.6089 -0.14544274 0)
(156.87604 -0.13385538 0)
(157.10676 -0.12183311 0)
(157.29996 -0.10947935 0)
(157.45482 -0.09689455 0)
(157.5709 -0.084175242 0)
(157.64807 -0.071412555 0)
(157.68652 -0.058664371 0)
(157.68679 -0.045941005 0)
(157.64969 -0.033177908 0)
(157.57615 -0.020281829 0)
(157.46612 -0.007428057 0)
(157.32086 0.0050445336 0)
(157.1421 0.016886124 0)
(156.93196 0.027927323 0)
(156.69287 0.038051869 0)
(156.42747 0.047180462 0)
(156.13856 0.055257646 0)
(155.82909 0.062244864 0)
(155.50207 0.068117442 0)
(155.16058 0.072863388 0)
(154.80772 0.076482867 0)
(154.44657 0.078987836 0)
(154.08021 0.080401616 0)
(153.71159 0.080758339 0)
(153.34362 0.080102205 0)
(152.97904 0.0784866 0)
(152.62048 0.075973051 0)
(152.27036 0.072630023 0)
(151.93093 0.068531637 0)
(151.60426 0.063756325 0)
(151.29217 0.058385455 0)
(150.99627 0.052501969 0)
(150.71796 0.046189087 0)
(150.4584 0.039529121 0)
(150.21854 0.032602358 0)
(149.99912 0.025486127 0)
(149.80066 0.01825401 0)
(149.62349 0.010975204 0)
(149.46777 0.003714081 0)
(149.33349 -0.0034700487 0)
(149.22047 -0.010523043 0)
(149.12843 -0.017395641 0)
(149.05693 -0.024043117 0)
(149.00545 -0.03042438 0)
(148.97338 -0.036500068 0)
(148.96001 -0.042231188 0)
(148.9646 -0.047574233 0)
(148.98629 -0.052491359 0)
(149.02408 -0.056982192 0)
(149.0771 -0.06104343 0)
(149.14446 -0.064635181 0)
(149.22513 -0.067681731 0)
(149.31796 -0.070022111 0)
(149.42246 -0.071329609 0)
(149.53832 -0.071270114 0)
(149.66401 -0.070537928 0)
(149.78234 -0.067670566 0)
(149.87141 -0.053403343 0)
(158.92133 -0.26024469 0)
(159.12961 -0.27426472 0)
(159.28565 -0.27447512 0)
(159.44081 -0.27003973 0)
(159.59016 -0.26267539 0)
(159.73191 -0.25316854 0)
(159.86439 -0.24190755 0)
(159.98612 -0.22914778 0)
(160.0958 -0.21510117 0)
(160.19232 -0.19997129 0)
(160.27475 -0.1839663 0)
(160.34233 -0.1673043 0)
(160.39453 -0.15021366 0)
(160.431 -0.13293256 0)
(160.45164 -0.11570631 0)
(160.45657 -0.098785425 0)
(160.44615 -0.082421764 0)
(160.42097 -0.066866569 0)
(160.38186 -0.052366426 0)
(160.32989 -0.039159623 0)
(160.26633 -0.027470346 0)
(160.19267 -0.017504039 0)
(160.11059 -0.0094455478 0)
(160.02198 -0.0034556576 0)
(159.92878 0.00031757547 0)
(159.8331 0.0017470553 0)
(159.73719 0.0007376039 0)
(159.64337 -0.0027760729 0)
(159.55404 -0.0088247479 0)
(159.47158 -0.017402969 0)
(159.39841 -0.028469883 0)
(159.33688 -0.041947013 0)
(159.28926 -0.057718132 0)
(159.25773 -0.075628185 0)
(159.24424 -0.095493189 0)
(159.25055 -0.11710452 0)
(159.27826 -0.14022613 0)
(159.3287 -0.16459731 0)
(159.40295 -0.18993437 0)
(159.50181 -0.21593405 0)
(159.62581 -0.24227657 0)
(159.77512 -0.26863036 0)
(159.94962 -0.29465537 0)
(160.14884 -0.32000825 0)
(160.37198 -0.34434634 0)
(160.61792 -0.36733236 0)
(160.88518 -0.38863898 0)
(161.17201 -0.40795329 0)
(161.4763 -0.42498118 0)
(161.79572 -0.43945152 0)
(162.12762 -0.45112009 0)
(162.46916 -0.45977325 0)
(162.81729 -0.46523119 0)
(163.16878 -0.46735078 0)
(163.52028 -0.46602787 0)
(163.86835 -0.46119911 0)
(164.20948 -0.45284312 0)
(164.54019 -0.44098103 0)
(164.857 -0.42567636 0)
(165.15652 -0.40703421 0)
(165.43547 -0.3851997 0)
(165.69073 -0.36035585 0)
(165.91939 -0.33272074 0)
(166.11874 -0.30254404 0)
(166.28634 -0.27010333 0)
(166.42003 -0.2356996 0)
(166.51798 -0.19965205 0)
(166.57864 -0.16229745 0)
(166.60084 -0.12397132 0)
(166.5837 -0.085006465 0)
(166.52669 -0.045747363 0)
(166.42968 -0.0065430731 0)
(166.29285 0.032280598 0)
(166.11671 0.070440122 0)
(165.90206 0.1077171 0)
(165.65029 0.143973 0)
(165.36433 0.17895379 0)
(165.0463 0.2122702 0)
(164.69828 0.24359496 0)
(164.3224 0.27266554 0)
(163.92087 0.2992687 0)
(163.49606 0.32323322 0)
(163.05044 0.34442393 0)
(162.58659 0.36273849 0)
(162.10717 0.37810597 0)
(161.61491 0.39048634 0)
(161.11255 0.39987017 0)
(160.60283 0.40627826 0)
(160.08847 0.40976094 0)
(159.57213 0.41039691 0)
(159.05638 0.40829165 0)
(158.5437 0.40357529 0)
(158.03644 0.3964001 0)
(157.53678 0.38693749 0)
(157.04677 0.37537476 0)
(156.56825 0.36191159 0)
(156.10288 0.34675652 0)
(155.65216 0.33012328 0)
(155.21734 0.31222733 0)
(154.79952 0.29328261 0)
(154.39956 0.2734985 0)
(154.01817 0.25307706 0)
(153.65586 0.23221081 0)
(153.31297 0.2110807 0)
(152.98967 0.1898546 0)
(152.68601 0.16868625 0)
(152.40187 0.14771441 0)
(152.13702 0.12706262 0)
(151.89114 0.10683924 0)
(151.66379 0.087137614 0)
(151.45446 0.068037313 0)
(151.26258 0.049608983 0)
(151.08751 0.03192055 0)
(150.92861 0.015032651 0)
(150.78534 -0.001022958 0)
(150.65694 -0.016236863 0)
(150.54255 -0.030585823 0)
(150.44123 -0.044013151 0)
(150.352 -0.05631551 0)
(150.27448 -0.067011238 0)
(150.20796 -0.075761321 0)
(150.15094 -0.084837579 0)
(150.09319 -0.090228624 0)
(150.03085 -0.07597547 0)
(161.35333 -0.34953245 0)
(161.48926 -0.35443833 0)
(161.57828 -0.35084505 0)
(161.66002 -0.3421352 0)
(161.73215 -0.32959933 0)
(161.79407 -0.313991 0)
(161.84491 -0.29578127 0)
(161.8839 -0.27532581 0)
(161.9104 -0.25294167 0)
(161.92392 -0.22894292 0)
(161.92411 -0.20365457 0)
(161.91083 -0.17741885 0)
(161.88407 -0.15059484 0)
(161.84405 -0.12355738 0)
(161.79115 -0.096692623 0)
(161.72595 -0.070394893 0)
(161.64923 -0.045061274 0)
(161.56195 -0.021088103 0)
(161.46524 0.001139078 0)
(161.36042 0.021251796 0)
(161.24898 0.03890392 0)
(161.13251 0.053757147 0)
(161.01278 0.065514627 0)
(160.89163 0.073916159 0)
(160.7711 0.078740247 0)
(160.65322 0.079802559 0)
(160.54007 0.076964027 0)
(160.43374 0.070135464 0)
(160.33629 0.059278284 0)
(160.24972 0.044408889 0)
(160.17599 0.02559823 0)
(160.11694 0.0029740987 0)
(160.07431 -0.02327869 0)
(160.04966 -0.05291852 0)
(160.04447 -0.085650773 0)
(160.06006 -0.12114104 0)
(160.09749 -0.15900674 0)
(160.15762 -0.19882593 0)
(160.24107 -0.24014028 0)
(160.3482 -0.28245951 0)
(160.47908 -0.32526718 0)
(160.63353 -0.36802764 0)
(160.81107 -0.41019155 0)
(161.01095 -0.45120385 0)
(161.23213 -0.4905102 0)
(161.4733 -0.52756448 0)
(161.73286 -0.56183612 0)
(162.00896 -0.59281733 0)
(162.29951 -0.62003025 0)
(162.60219 -0.64303374 0)
(162.91446 -0.66142996 0)
(163.2336 -0.67487032 0)
(163.55675 -0.68306095 0)
(163.8809 -0.68576744 0)
(164.20296 -0.68281878 0)
(164.51977 -0.67411037 0)
(164.82814 -0.65960613 0)
(165.1249 -0.63933942 0)
(165.40694 -0.61341293 0)
(165.67119 -0.58199744 0)
(165.91474 -0.54532933 0)
(166.13481 -0.50370702 0)
(166.32882 -0.45748647 0)
(166.4944 -0.40707534 0)
(166.6294 -0.352927 0)
(166.73197 -0.29553325 0)
(166.80051 -0.23541539 0)
(166.83372 -0.17312644 0)
(166.83064 -0.109206 0)
(166.79052 -0.044199827 0)
(166.713 0.021306072 0)
(166.59803 0.086731118 0)
(166.44587 0.15149883 0)
(166.2571 0.21503087 0)
(166.03262 0.27680897 0)
(165.77353 0.33632835 0)
(165.48117 0.39318205 0)
(165.15711 0.44703574 0)
(164.80318 0.49755007 0)
(164.42141 0.54440037 0)
(164.01399 0.58729204 0)
(163.58327 0.62596894 0)
(163.13174 0.66021902 0)
(162.66201 0.68987724 0)
(162.17673 0.7148269 0)
(161.67866 0.73500034 0)
(161.17056 0.75037916 0)
(160.65518 0.76099388 0)
(160.13527 0.76692287 0)
(159.61351 0.76829061 0)
(159.09248 0.76526506 0)
(158.57467 0.75805417 0)
(158.06246 0.74690179 0)
(157.55804 0.73208275 0)
(157.06346 0.71389755 0)
(156.58058 0.69266669 0)
(156.11109 0.66872482 0)
(155.65645 0.64241493 0)
(155.21794 0.6140827 0)
(154.79665 0.58407126 0)
(154.39345 0.55271633 0)
(154.00903 0.52034187 0)
(153.64391 0.48725648 0)
(153.29841 0.45375029 0)
(152.97272 0.4200925 0)
(152.66684 0.38652973 0)
(152.38068 0.35328466 0)
(152.11398 0.32055544 0)
(151.86642 0.28851548 0)
(151.63755 0.25731335 0)
(151.42684 0.22707259 0)
(151.23373 0.19789481 0)
(151.05756 0.16986113 0)
(150.89764 0.14303708 0)
(150.75325 0.11748617 0)
(150.62363 0.093261283 0)
(150.50797 0.07039126 0)
(150.40541 0.04891697 0)
(150.31516 0.029002784 0)
(150.23686 0.010998931 0)
(150.1693 -0.0050679687 0)
(150.11123 -0.022436758 0)
(150.05856 -0.034425986 0)
(150.01629 -0.032758582 0)
(161.63746 -0.41054099 0)
(161.75783 -0.40345372 0)
(161.83596 -0.39177904 0)
(161.90562 -0.37570255 0)
(161.96482 -0.35573507 0)
(162.01321 -0.33240358 0)
(162.05022 -0.30616194 0)
(162.07528 -0.27742175 0)
(162.08792 -0.24658349 0)
(162.08777 -0.21405718 0)
(162.07463 -0.18027065 0)
(162.04843 -0.14567375 0)
(162.00927 -0.11073615 0)
(161.95742 -0.075945129 0)
(161.89332 -0.041799063 0)
(161.81758 -0.0088045061 0)
(161.73099 0.02253235 0)
(161.63453 0.051712716 0)
(161.52935 0.078259221 0)
(161.41673 0.10170223 0)
(161.29814 0.12159738 0)
(161.17519 0.13755478 0)
(161.04961 0.14921243 0)
(160.92324 0.15625635 0)
(160.79801 0.1584299 0)
(160.6759 0.15553508 0)
(160.55897 0.14743615 0)
(160.44927 0.13406326 0)
(160.34886 0.11541489 0)
(160.25976 0.091558624 0)
(160.18392 0.062632035 0)
(160.12321 0.028841967 0)
(160.07938 -0.0095361825 0)
(160.05405 -0.052164569 0)
(160.04865 -0.098641501 0)
(160.06442 -0.14849965 0)
(160.10242 -0.20122168 0)
(160.16345 -0.25623694 0)
(160.24809 -0.31292844 0)
(160.35665 -0.37064341 0)
(160.48916 -0.42869707 0)
(160.6454 -0.48638347 0)
(160.82485 -0.5429814 0)
(161.0267 -0.59776472 0)
(161.24988 -0.65001035 0)
(161.49303 -0.69900767 0)
(161.75455 -0.74406764 0)
(162.03255 -0.78453195 0)
(162.32492 -0.8197821 0)
(162.62933 -0.84924803 0)
(162.94324 -0.87241656 0)
(163.26394 -0.8888391 0)
(163.58856 -0.89813884 0)
(163.91412 -0.90001692 0)
(164.23752 -0.89425771 0)
(164.55563 -0.88073294 0)
(164.86528 -0.85940456 0)
(165.16329 -0.83032617 0)
(165.44656 -0.79364305 0)
(165.71203 -0.74959062 0)
(165.95679 -0.69849131 0)
(166.17805 -0.64074995 0)
(166.37321 -0.57684785 0)
(166.53988 -0.507335 0)
(166.67591 -0.43282214 0)
(166.77941 -0.35397062 0)
(166.84874 -0.2714812 0)
(166.8826 -0.18609628 0)
(166.87996 -0.098527298 0)
(166.84009 -0.0095152169 0)
(166.7626 0.080147244 0)
(166.64744 0.1697105 0)
(166.49483 0.25842594 0)
(166.3053 0.34560266 0)
(166.07967 0.43054748 0)
(165.81905 0.51258253 0)
(165.52477 0.59108618 0)
(165.19846 0.66549844 0)
(164.84198 0.73529817 0)
(164.45736 0.80001147 0)
(164.04684 0.85922021 0)
(163.61282 0.91256656 0)
(163.15781 0.95975571 0)
(162.68446 1.0005577 0)
(162.19546 1.0348093 0)
(161.69361 1.0624145 0)
(161.18169 1.0833459 0)
(160.66252 1.0976441 0)
(160.13886 1.1054161 0)
(159.61343 1.1068336 0)
(159.08886 1.1021293 0)
(158.56767 1.0915917 0)
(158.05224 1.0755597 0)
(157.54481 1.0544161 0)
(157.04744 1.0285794 0)
(156.56201 0.99849645 0)
(156.09021 0.96463424 0)
(155.63352 0.92747145 0)
(155.19321 0.8874908 0)
(154.77036 0.84517161 0)
(154.36586 0.80098309 0)
(153.98037 0.7553783 0)
(153.61441 0.70878912 0)
(153.26828 0.66162206 0)
(152.94214 0.61425493 0)
(152.636 0.5670346 0)
(152.34973 0.52027552 0)
(152.08309 0.47425913 0)
(151.8357 0.42923404 0)
(151.60711 0.38541716 0)
(151.3968 0.34299506 0)
(151.20415 0.30212534 0)
(151.02853 0.26293812 0)
(150.86922 0.22554204 0)
(150.72551 0.19003628 0)
(150.59664 0.15651374 0)
(150.48181 0.12506496 0)
(150.38022 0.095821628 0)
(150.29117 0.069039506 0)
(150.21424 0.045072759 0)
(150.1479 0.024015534 0)
(150.09145 0.002642163 0)
(150.04386 -0.0091836256 0)
(150.01092 -0.011224158 0)
(161.68321 -0.48085949 0)
(161.80285 -0.46620581 0)
(161.88199 -0.44787567 0)
(161.95272 -0.42525698 0)
(162.01276 -0.39849516 0)
(162.06176 -0.36795313 0)
(162.09914 -0.33405033 0)
(162.12437 -0.2972291 0)
(162.13697 -0.25795333 0)
(162.1366 -0.21671501 0)
(162.12302 -0.1740358 0)
(162.09618 -0.13046855 0)
(162.05613 -0.086593001 0)
(162.00315 -0.043012235 0)
(161.93766 -0.00034502788 0)
(161.86025 0.040778204 0)
(161.77172 0.079727023 0)
(161.67304 0.11588316 0)
(161.56532 0.14862833 0)
(161.44989 0.17738268 0)
(161.32822 0.20160443 0)
(161.20192 0.22078615 0)
(161.07274 0.23447811 0)
(160.94255 0.24228628 0)
(160.81331 0.24388487 0)
(160.68707 0.23902392 0)
(160.5659 0.22753187 0)
(160.45192 0.20932116 0)
(160.34723 0.18439157 0)
(160.25391 0.15283266 0)
(160.17398 0.11482493 0)
(160.10936 0.070639923 0)
(160.06186 0.020639451 0)
(160.03315 -0.03473124 0)
(160.02471 -0.09495009 0)
(160.03784 -0.15941682 0)
(160.07363 -0.22745984 0)
(160.13292 -0.29833944 0)
(160.21631 -0.37125958 0)
(160.32414 -0.44538022 0)
(160.45646 -0.5198223 0)
(160.61305 -0.59368194 0)
(160.7934 -0.66603802 0)
(160.99671 -0.73596539 0)
(161.22189 -0.80254491 0)
(161.46758 -0.86487512 0)
(161.73213 -0.92208362 0)
(162.01366 -0.97333832 0)
(162.31 -1.0178586 0)
(162.61879 -1.0549257 0)
(162.93746 -1.0838934 0)
(163.26325 -1.1041973 0)
(163.59323 -1.1153635 0)
(163.92436 -1.1170165 0)
(164.2535 -1.108886 0)
(164.57744 -1.0908116 0)
(164.89295 -1.0627471 0)
(165.1968 -1.0247624 0)
(165.4858 -0.97704375 0)
(165.75685 -0.91989215 0)
(166.00695 -0.85371982 0)
(166.23325 -0.77904471 0)
(166.43311 -0.69648328 0)
(166.60407 -0.60674096 0)
(166.74393 -0.51060244 0)
(166.85075 -0.4089181 0)
(166.92289 -0.30259403 0)
(166.95901 -0.19257911 0)
(166.95802 -0.079800835 0)
(166.91925 0.034761756 0)
(166.84228 0.150088 0)
(166.7271 0.26520499 0)
(166.57389 0.37914443 0)
(166.38323 0.49099992 0)
(166.15597 0.59990013 0)
(165.89323 0.70501518 0)
(165.59641 0.80557468 0)
(165.26714 0.90087034 0)
(164.9073 0.99024914 0)
(164.51898 1.0731175 0)
(164.10444 1.1489482 0)
(163.66612 1.2172872 0)
(163.20659 1.2777577 0)
(162.72851 1.3300644 0)
(162.23467 1.3739963 0)
(161.72787 1.4094285 0)
(161.21098 1.4363235 0)
(160.68685 1.4547312 0)
(160.15829 1.4647874 0)
(159.62807 1.4667106 0)
(159.09887 1.4607979 0)
(158.57323 1.4474187 0)
(158.05359 1.427007 0)
(157.54221 1.4000531 0)
(157.04118 1.3670931 0)
(156.55239 1.3286996 0)
(156.07754 1.28547 0)
(155.61813 1.2380169 0)
(155.17542 1.186957 0)
(154.7505 1.1329022 0)
(154.34422 1.0764508 0)
(153.95727 1.0181793 0)
(153.59011 0.95863643 0)
(153.24305 0.89833738 0)
(152.91623 0.8377597 0)
(152.60962 0.77734028 0)
(152.32308 0.71747333 0)
(152.05633 0.65850942 0)
(151.809 0.60075552 0)
(151.58059 0.54447594 0)
(151.37058 0.48989404 0)
(151.17833 0.43719528 0)
(151.00319 0.38653021 0)
(150.84445 0.3380194 0)
(150.70137 0.29176069 0)
(150.57322 0.24783374 0)
(150.45923 0.20631258 0)
(150.35865 0.16730965 0)
(150.27087 0.13102311 0)
(150.19544 0.097672484 0)
(150.13087 0.067342102 0)
(150.07729 0.036458055 0)
(150.03501 0.017194057 0)
(150.0082 0.0047539032 0)
(161.71731 -0.54146377 0)
(161.83893 -0.51992977 0)
(161.92068 -0.4945605 0)
(161.99425 -0.46474823 0)
(162.05703 -0.43054562 0)
(162.10855 -0.39224908 0)
(162.14818 -0.35027093 0)
(162.17536 -0.30509014 0)
(162.18959 -0.2572346 0)
(162.19049 -0.20727794 0)
(162.17782 -0.15583507 0)
(162.15148 -0.10356062 0)
(162.11153 -0.051142551 0)
(162.0582 0.00070406875 0)
(161.99191 0.051245072 0)
(161.91325 0.099733649 0)
(161.82302 0.14542651 0)
(161.72216 0.18758159 0)
(161.61184 0.22548467 0)
(161.49338 0.25845209 0)
(161.36827 0.28583751 0)
(161.23816 0.30705036 0)
(161.10484 0.32156024 0)
(160.97022 0.32890905 0)
(160.83632 0.32872138 0)
(160.70523 0.32071085 0)
(160.57908 0.30468739 0)
(160.46007 0.28056247 0)
(160.35035 0.24835265 0)
(160.25207 0.2081829 0)
(160.16732 0.16028675 0)
(160.09808 0.10500656 0)
(160.04623 0.042791234 0)
(160.0135 -0.025805011 0)
(160.00144 -0.10013536 0)
(160.0114 -0.17946532 0)
(160.04452 -0.26297064 0)
(160.1017 -0.34976346 0)
(160.18357 -0.43887972 0)
(160.29049 -0.52930544 0)
(160.42257 -0.61998147 0)
(160.57959 -0.70981906 0)
(160.76104 -0.79771026 0)
(160.96615 -0.8825429 0)
(161.1938 -0.96321286 0)
(161.44263 -1.0386378 0)
(161.71098 -1.1077708 0)
(161.9969 -1.1696133 0)
(162.29823 -1.223229 0)
(162.61255 -1.2677555 0)
(162.93722 -1.3024175 0)
(163.26942 -1.3265376 0)
(163.60618 -1.3395469 0)
(163.94436 -1.3409945 0)
(164.28076 -1.3305556 0)
(164.61208 -1.3080377 0)
(164.93501 -1.2733856 0)
(165.24623 -1.226684 0)
(165.54246 -1.1681581 0)
(165.82053 -1.0981718 0)
(166.07734 -1.0172236 0)
(166.30998 -0.92594015 0)
(166.51573 -0.82506773 0)
(166.69207 -0.71546047 0)
(166.83674 -0.59806877 0)
(166.94776 -0.47392188 0)
(167.02343 -0.34412152 0)
(167.06241 -0.20980083 0)
(167.06357 -0.072100732 0)
(167.02625 0.067781318 0)
(166.95003 0.20863194 0)
(166.83487 0.34925527 0)
(166.68101 0.48848308 0)
(166.48903 0.62518675 0)
(166.2598 0.75829013 0)
(165.99448 0.88677138 0)
(165.6945 1.0096772 0)
(165.36154 1.1261276 0)
(164.99753 1.2353164 0)
(164.60459 1.3365155 0)
(164.18504 1.4290803 0)
(163.74137 1.5124558 0)
(163.2762 1.5861813 0)
(162.79226 1.6498952 0)
(162.29239 1.7033386 0)
(161.77946 1.7463579 0)
(161.2564 1.778907 0)
(160.72612 1.8010473 0)
(160.1915 1.812946 0)
(159.65536 1.814873 0)
(159.12044 1.8071949 0)
(158.58933 1.7903683 0)
(158.06452 1.7649297 0)
(157.5483 1.7314849 0)
(157.04279 1.6906971 0)
(156.54991 1.6432736 0)
(156.07138 1.5899531 0)
(155.60869 1.5314922 0)
(155.16312 1.4686526 0)
(154.73574 1.4021898 0)
(154.32741 1.3328417 0)
(153.93877 1.2613197 0)
(153.57028 1.1883003 0)
(153.22222 1.1144185 0)
(152.8947 1.0402629 0)
(152.58768 0.96637191 0)
(152.30096 0.89323151 0)
(152.03425 0.82127394 0)
(151.78714 0.75087787 0)
(151.55912 0.68236938 0)
(151.34962 0.61602365 0)
(151.158 0.55206793 0)
(150.98357 0.49068528 0)
(150.8256 0.43201987 0)
(150.68337 0.37618226 0)
(150.55611 0.32325429 0)
(150.44307 0.27330212 0)
(150.34355 0.22640845 0)
(150.25694 0.18268275 0)
(150.18277 0.1421897 0)
(150.11969 0.10491873 0)
(150.06848 0.066376817 0)
(150.02994 0.0400813 0)
(150.00678 0.017440778 0)
(161.76052 -0.60997346 0)
(161.88609 -0.58281139 0)
(161.97124 -0.55114189 0)
(162.04839 -0.5145315 0)
(162.11464 -0.47306274 0)
(162.16941 -0.42702866 0)
(162.212 -0.37685817 0)
(162.24178 -0.32307349 0)
(162.25822 -0.26626778 0)
(162.26091 -0.20709717 0)
(162.24955 -0.14627199 0)
(162.22402 -0.084553046 0)
(162.18435 -0.022742844 0)
(162.13075 0.038321935 0)
(162.06362 0.097782547 0)
(161.98355 0.15476298 0)
(161.89132 0.20839413 0)
(161.7879 0.25779367 0)
(161.67445 0.30212598 0)
(161.55233 0.34058036 0)
(161.42306 0.3723965 0)
(161.28833 0.3968761 0)
(161.14998 0.41339505 0)
(161.00997 0.42141409 0)
(160.87038 0.4204908 0)
(160.73337 0.41028869 0)
(160.60116 0.39058527 0)
(160.476 0.36127865 0)
(160.36015 0.32239207 0)
(160.25582 0.27407765 0)
(160.16518 0.21661655 0)
(160.09032 0.15041962 0)
(160.03318 0.076022816 0)
(159.99557 -0.00591096 0)
(159.97912 -0.094607164 0)
(159.98525 -0.18919343 0)
(160.01516 -0.28868837 0)
(160.06979 -0.39202903 0)
(160.14984 -0.49806644 0)
(160.25571 -0.60559334 0)
(160.38752 -0.71335028 0)
(160.54509 -0.82004469 0)
(160.72792 -0.92436317 0)
(160.93524 -1.0249889 0)
(161.16592 -1.1206163 0)
(161.41859 -1.2099663 0)
(161.69155 -1.2918033 0)
(161.98283 -1.3649492 0)
(162.29022 -1.4282997 0)
(162.61123 -1.4808387 0)
(162.94316 -1.5216523 0)
(163.28313 -1.549942 0)
(163.62807 -1.5650376 0)
(163.97478 -1.5664078 0)
(164.31993 -1.5536696 0)
(164.66015 -1.5265969 0)
(164.99201 -1.4851255 0)
(165.3121 -1.429357 0)
(165.61703 -1.3595596 0)
(165.90352 -1.2761665 0)
(166.1684 -1.1797714 0)
(166.40864 -1.0711207 0)
(166.62144 -0.9511039 0)
(166.8042 -0.8207395 0)
(166.9546 -0.68116142 0)
(167.0706 -0.53359763 0)
(167.15046 -0.3793651 0)
(167.19278 -0.21980868 0)
(167.19645 -0.056304494 0)
(167.16078 0.10971373 0)
(167.08536 0.27681389 0)
(166.97016 0.44357688 0)
(166.81543 0.60863918 0)
(166.62179 0.77067533 0)
(166.39014 0.92841881 0)
(166.12167 1.0806679 0)
(165.81787 1.2262976 0)
(165.48046 1.3642663 0)
(165.11141 1.4936196 0)
(164.71291 1.6134957 0)
(164.28733 1.7231312 0)
(163.83721 1.8218678 0)
(163.36525 1.9091581 0)
(162.87425 1.9845712 0)
(162.36711 2.0477974 0)
(161.8468 2.0986524 0)
(161.3163 2.1370791 0)
(160.77861 2.1631488 0)
(160.23668 2.1770595 0)
(159.69341 2.1791316 0)
(159.15158 2.169802 0)
(158.61388 2.1496145 0)
(158.08283 2.119209 0)
(157.56077 2.0793082 0)
(157.04986 2.0307027 0)
(156.55204 1.9742359 0)
(156.06905 1.9107874 0)
(155.6024 1.8412577 0)
(155.15336 1.7665525 0)
(154.723 1.6875688 0)
(154.31216 1.6051817 0)
(153.92146 1.5202334 0)
(153.55133 1.4335237 0)
(153.20203 1.3458021 0)
(152.87364 1.257762 0)
(152.56606 1.1700366 0)
(152.2791 1.0831959 0)
(152.0124 0.9977463 0)
(151.76552 0.91413018 0)
(151.53794 0.83272773 0)
(151.32903 0.75385911 0)
(151.13815 0.67778809 0)
(150.96458 0.60472649 0)
(150.80758 0.53483977 0)
(150.6664 0.46825268 0)
(150.54028 0.40505637 0)
(150.42848 0.34532227 0)
(150.33031 0.28912449 0)
(150.24516 0.23653275 0)
(150.17255 0.18756386 0)
(150.11124 0.14221374 0)
(150.06237 0.095010796 0)
(150.02673 0.060865643 0)
(150.00594 0.028328198 0)
(161.81601 -0.6759921 0)
(161.94613 -0.64311462 0)
(162.03505 -0.60500729 0)
(162.11607 -0.56137918 0)
(162.18608 -0.51238602 0)
(162.24435 -0.45835732 0)
(162.29013 -0.39976148 0)
(162.32271 -0.33717539 0)
(162.34151 -0.27126303 0)
(162.34607 -0.20276584 0)
(162.33605 -0.13249117 0)
(162.31128 -0.061307255 0)
(162.27178 0.0098681713 0)
(162.21772 0.080079041 0)
(162.14949 0.14834132 0)
(162.06768 0.21365388 0)
(161.97303 0.2750052 0)
(161.86656 0.33140902 0)
(161.74943 0.38189376 0)
(161.62302 0.42553016 0)
(161.4889 0.46144723 0)
(161.3488 0.48884186 0)
(161.2046 0.50699743 0)
(161.05835 0.51529545 0)
(160.91218 0.51322907 0)
(160.76834 0.50041384 0)
(160.62913 0.47659747 0)
(160.49689 0.44166752 0)
(160.37396 0.39565665 0)
(160.26267 0.33874712 0)
(160.16528 0.27127079 0)
(160.08396 0.19371006 0)
(160.02075 0.10669177 0)
(159.97755 0.010990452 0)
(159.95609 -0.092486793 0)
(159.95784 -0.20272471 0)
(159.9841 -0.31858138 0)
(160.03585 -0.43882572 0)
(160.11386 -0.56213336 0)
(160.21858 -0.68710741 0)
(160.35015 -0.81229389 0)
(160.50843 -0.93619954 0)
(160.69293 -1.0573076 0)
(160.90287 -1.1740976 0)
(161.13713 -1.2850618 0)
(161.39432 -1.3887237 0)
(161.67269 -1.4836561 0)
(161.97026 -1.5684987 0)
(162.28472 -1.6419757 0)
(162.61356 -1.7029124 0)
(162.95399 -1.7502519 0)
(163.30304 -1.7830701 0)
(163.65754 -1.8005903 0)
(164.0142 -1.8021957 0)
(164.36959 -1.787441 0)
(164.7202 -1.7560616 0)
(165.0625 -1.7079801 0)
(165.39296 -1.6433114 0)
(165.70807 -1.5623635 0)
(166.00442 -1.465636 0)
(166.27873 -1.3538149 0)
(166.52787 -1.2277645 0)
(166.74892 -1.0885152 0)
(166.93921 -0.93724838 0)
(167.09632 -0.77527945 0)
(167.21816 -0.60403377 0)
(167.30292 -0.42503938 0)
(167.34918 -0.23985843 0)
(167.3558 -0.050096646 0)
(167.32206 0.14258226 0)
(167.24759 0.3365219 0)
(167.13233 0.53007164 0)
(166.9766 0.72162878 0)
(166.781 0.90964693 0)
(166.5465 1.0926523 0)
(166.27434 1.2692502 0)
(165.96605 1.4381354 0)
(165.62341 1.5980994 0)
(165.24845 1.7480352 0)
(164.84341 1.8869443 0)
(164.41075 2.0139418 0)
(163.95308 2.1282641 0)
(163.47317 2.2292755 0)
(162.9739 2.3164748 0)
(162.45826 2.3895012 0)
(161.9293 2.4481397 0)
(161.39011 2.4923238 0)
(160.84375 2.5221372 0)
(160.29328 2.5378122 0)
(159.74167 2.5397254 0)
(159.1918 2.5283898 0)
(158.64642 2.504445 0)
(158.1081 2.4686431 0)
(157.57926 2.4218335 0)
(157.06208 2.3649453 0)
(156.55856 2.2989688 0)
(156.07044 2.2249362 0)
(155.59924 2.1439032 0)
(155.14624 2.0569301 0)
(154.71249 1.9650661 0)
(154.2988 1.8693332 0)
(153.90579 1.7707135 0)
(153.53385 1.6701379 0)
(153.1832 1.5684771 0)
(152.85386 1.466535 0)
(152.54573 1.3650437 0)
(152.25854 1.2646604 0)
(151.99191 1.1659665 0)
(151.74536 1.0694677 0)
(151.51831 0.97559549 0)
(151.31011 0.88470969 0)
(151.12008 0.79710244 0)
(150.94748 0.7130027 0)
(150.79154 0.63258161 0)
(150.6515 0.55595805 0)
(150.52658 0.48320638 0)
(150.41605 0.41436845 0)
(150.31923 0.34946764 0)
(150.23551 0.2884974 0)
(150.16441 0.23140128 0)
(150.10481 0.17812626 0)
(150.05799 0.12216417 0)
(150.02457 0.080038222 0)
(150.0054 0.038093644 0)
(161.88249 -0.74757037 0)
(162.01836 -0.70928217 0)
(162.11169 -0.66493601 0)
(162.19714 -0.61434807 0)
(162.27141 -0.55775606 0)
(162.33369 -0.49554394 0)
(162.3831 -0.42823339 0)
(162.41889 -0.35646472 0)
(162.44039 -0.28097856 0)
(162.4471 -0.20260655 0)
(162.43861 -0.12225814 0)
(162.41473 -0.040915281 0)
(162.37542 0.040380561 0)
(162.32084 0.12054689 0)
(162.25134 0.19846338 0)
(162.1675 0.27299233 0)
(162.07007 0.34298038 0)
(161.96006 0.40729773 0)
(161.83867 0.46483818 0)
(161.70729 0.51453895 0)
(161.56755 0.55540371 0)
(161.42122 0.58651457 0)
(161.27025 0.60705127 0)
(161.11676 0.61630584 0)
(160.96298 0.61369808 0)
(160.81123 0.59878757 0)
(160.66391 0.57128522 0)
(160.52347 0.53106226 0)
(160.39237 0.4781562 0)
(160.27303 0.41277604 0)
(160.16783 0.3353023 0)
(160.07904 0.24628801 0)
(160.00883 0.14645161 0)
(159.95919 0.036679242 0)
(159.93194 -0.081985051 0)
(159.92866 -0.20837877 0)
(159.95071 -0.34119664 0)
(159.99917 -0.47902693 0)
(160.07485 -0.62034806 0)
(160.17825 -0.76355884 0)
(160.30958 -0.90699397 0)
(160.46869 -1.0489447 0)
(160.65513 -1.1876764 0)
(160.86812 -1.3214511 0)
(161.10654 -1.4485465 0)
(161.36894 -1.5672766 0)
(161.65357 -1.6760119 0)
(161.95838 -1.7731994 0)
(162.28102 -1.8573823 0)
(162.61888 -1.9272192 0)
(162.9691 -1.9815024 0)
(163.3286 -2.0191754 0)
(163.69412 -2.0393492 0)
(164.06224 -2.0413172 0)
(164.4294 -2.0245685 0)
(164.79198 -1.9887981 0)
(165.1463 -1.9339158 0)
(165.48869 -1.8600514 0)
(165.8155 -1.7675565 0)
(166.1232 -1.6570032 0)
(166.40835 -1.5291782 0)
(166.66771 -1.3850736 0)
(166.89824 -1.2258738 0)
(167.09717 -1.0529369 0)
(167.26198 -0.86777583 0)
(167.3905 -0.6720306 0)
(167.48087 -0.46745693 0)
(167.53162 -0.25585438 0)
(167.54158 -0.039074104 0)
(167.51003 0.18097675 0)
(167.43659 0.40240281 0)
(167.32124 0.6233275 0)
(167.1643 0.84193594 0)
(166.96643 1.0564709 0)
(166.72862 1.2652533 0)
(166.45219 1.4666952 0)
(166.1387 1.6593095 0)
(165.79002 1.8417185 0)
(165.40824 2.0126602 0)
(164.99568 2.1709952 0)
(164.55486 2.3157133 0)
(164.08848 2.4459413 0)
(163.5994 2.5609509 0)
(163.0906 2.6601663 0)
(162.56516 2.7431718 0)
(162.02623 2.8097184 0)
(161.477 2.8597277 0)
(160.92065 2.8932944 0)
(160.36033 2.9106848 0)
(159.79912 2.9123322 0)
(159.23997 2.8988282 0)
(158.68573 2.8709106 0)
(158.13905 2.8294477 0)
(157.60241 2.7754203 0)
(157.07803 2.7099005 0)
(156.56796 2.6340305 0)
(156.07395 2.549 0)
(155.59754 2.4560241 0)
(155.14 2.3563222 0)
(154.70238 2.2510986 0)
(154.28546 2.1415251 0)
(153.88983 2.0287257 0)
(153.51585 1.9137642 0)
(153.16368 1.7976339 0)
(152.83332 1.6812499 0)
(152.5246 1.5654443 0)
(152.2372 1.4509628 0)
(151.97071 1.3384635 0)
(151.72458 1.2285177 0)
(151.4982 1.1216116 0)
(151.29088 1.018149 0)
(151.1019 0.91845621 0)
(150.93047 0.82278608 0)
(150.77581 0.73132374 0)
(150.63712 0.64419182 0)
(150.51362 0.56145774 0)
(150.40455 0.48314222 0)
(150.30925 0.40922628 0)
(150.22708 0.33963874 0)
(150.15756 0.27425195 0)
(150.09966 0.21292486 0)
(150.05467 0.14808887 0)
(150.023 0.09800829 0)
(150.00502 0.04710288 0)
(161.96011 -0.82049439 0)
(162.10238 -0.7766936 0)
(162.20062 -0.72601897 0)
(162.29098 -0.66834673 0)
(162.36995 -0.60399141 0)
(162.43661 -0.53339937 0)
(162.49001 -0.45715469 0)
(162.5293 -0.37596819 0)
(162.55376 -0.29066216 0)
(162.56279 -0.20216223 0)
(162.55596 -0.11148321 0)
(162.53301 -0.019723374 0)
(162.49385 0.071948384 0)
(162.43861 0.16232076 0)
(162.36762 0.2501358 0)
(162.28145 0.334117 0)
(162.18084 0.41296515 0)
(162.06681 0.48540585 0)
(161.94057 0.55019233 0)
(161.80357 0.60612534 0)
(161.65746 0.65207803 0)
(161.50407 0.68701233 0)
(161.34545 0.7099998 0)
(161.18377 0.720238 0)
(161.02137 0.71706893 0)
(160.86066 0.69999259 0)
(160.70418 0.66868026 0)
(160.55447 0.62298485 0)
(160.41412 0.56294788 0)
(160.28567 0.48880543 0)
(160.17163 0.40098815 0)
(160.07441 0.30012243 0)
(159.99628 0.18702278 0)
(159.93935 0.062690647 0)
(159.90557 -0.071686431 0)
(159.89661 -0.214789 0)
(159.91392 -0.36514388 0)
(159.95867 -0.52114845 0)
(160.03173 -0.68109656 0)