/*--------------------------------*- C++ -*----------------------------------*\
| =========                 |                                                 |
| \\      /  F ield         | foam-extend: Open Source CFD                    |
|  \\    /   O peration     | Version:     4.1                                |
|   \\  /    A nd           | Web:         http://www.foam-extend.org         |
|    \\/     M anipulation  |                                                 |
\*---------------------------------------------------------------------------*/
FoamFile
{
    version     2.0;
    format      ascii;
    class       volVectorField;
    location    "0.35";
    object      U;
}
// * * * * * * * * * * * * * * * * * * * * * * * * * * * * * * * * * * * * * //

dimensions      [0 1 -1 0 0 0 0];

internalField   nonuniform List<vector> 
16796
(
(137.32042 0.10259018 0)
(136.87976 0.098466108 0)
(136.6474 0.081686529 0)
(136.40342 0.062577663 0)
(136.22569 0.038504906 0)
(136.10022 0.010869238 0)
(136.03966 -0.019868635 0)
(136.04724 -0.051793015 0)
(136.12572 -0.081381887 0)
(136.26834 -0.10612703 0)
(136.46909 -0.12631512 0)
(136.72231 -0.14298052 0)
(137.02285 -0.15694919 0)
(137.36587 -0.16877091 0)
(137.74659 -0.17874097 0)
(138.16007 -0.18697929 0)
(138.60115 -0.19350777 0)
(139.06444 -0.19830415 0)
(139.54433 -0.20133687 0)
(140.03504 -0.20258529 0)
(140.53073 -0.20205087 0)
(141.02556 -0.19976275 0)
(141.51381 -0.19577995 0)
(141.98993 -0.19019164 0)
(142.44871 -0.1831159 0)
(142.88529 -0.17469785 0)
(143.29533 -0.16510664 0)
(143.675 -0.15453242 0)
(144.02112 -0.14318235 0)
(144.33118 -0.131277 0)
(144.60339 -0.11904608 0)
(144.83672 -0.1067251 0)
(145.03091 -0.094552664 0)
(145.18648 -0.0827687 0)
(145.30473 -0.071617885 0)
(145.38772 -0.061358651 0)
(145.43824 -0.052271005 0)
(145.45978 -0.044605395 0)
(145.45651 -0.0384505 0)
(145.43303 -0.033557303 0)
(145.39309 -0.029657508 0)
(145.34093 -0.026820651 0)
(145.28122 -0.025279609 0)
(145.21897 -0.025270337 0)
(145.15946 -0.026995076 0)
(145.10807 -0.030595741 0)
(145.07023 -0.036129331 0)
(145.05115 -0.04350886 0)
(145.05582 -0.052327 0)
(145.08806 -0.061911835 0)
(145.15007 -0.072016311 0)
(145.24426 -0.082737745 0)
(145.3725 -0.093986316 0)
(145.53609 -0.10558149 0)
(145.73569 -0.11731705 0)
(145.97129 -0.12898135 0)
(146.24226 -0.14036639 0)
(146.54729 -0.15127108 0)
(146.88452 -0.16150452 0)
(147.25149 -0.17088914 0)
(147.64525 -0.17926369 0)
(148.06236 -0.18648577 0)
(148.49902 -0.19243411 0)
(148.95109 -0.19701025 0)
(149.41417 -0.20013977 0)
(149.88367 -0.20177304 0)
(150.35491 -0.20188546 0)
(150.82317 -0.20047728 0)
(151.28378 -0.19757295 0)
(151.73219 -0.19322014 0)
(152.16402 -0.1874883 0)
(152.57514 -0.18046694 0)
(152.96172 -0.17226363 0)
(153.32032 -0.16300167 0)
(153.64785 -0.15281753 0)
(153.9417 -0.14185812 0)
(154.19972 -0.13027759 0)
(154.42023 -0.11823388 0)
(154.60208 -0.10588467 0)
(154.7446 -0.093382053 0)
(154.84763 -0.080865229 0)
(154.91147 -0.068446857 0)
(154.93683 -0.056151262 0)
(154.92492 -0.043811119 0)
(154.8764 -0.031390205 0)
(154.7924 -0.019312834 0)
(154.67512 -0.0079982594 0)
(154.52712 0.002381719 0)
(154.35128 0.011719165 0)
(154.15069 0.019945653 0)
(153.92856 0.027018233 0)
(153.68821 0.032914589 0)
(153.43298 0.037630582 0)
(153.1662 0.041178305 0)
(152.89115 0.043584311 0)
(152.61101 0.04488779 0)
(152.32885 0.045138716 0)
(152.04758 0.044395977 0)
(151.76995 0.042725596 0)
(151.4985 0.040199048 0)
(151.23559 0.036891667 0)
(150.98337 0.032881258 0)
(150.74376 0.028246878 0)
(150.51847 0.02306777 0)
(150.309 0.017422512 0)
(150.11664 0.011388371 0)
(149.94246 0.0050407593 0)
(149.78734 -0.0015470641 0)
(149.65198 -0.0083041182 0)
(149.53687 -0.015161644 0)
(149.44233 -0.022052749 0)
(149.36854 -0.028911674 0)
(149.31548 -0.035672681 0)
(149.28301 -0.042268259 0)
(149.27081 -0.048622591 0)
(149.27845 -0.05463675 0)
(149.30521 -0.060249479 0)
(149.35034 -0.065411889 0)
(149.41299 -0.070004038 0)
(149.49182 -0.073816885 0)
(149.58517 -0.076330548 0)
(149.69389 -0.076504444 0)
(149.81258 -0.075153393 0)
(149.88989 -0.069202056 0)
(155.86721 0.30366328 0)
(155.51643 0.29101809 0)
(155.34036 0.25335258 0)
(155.15367 0.21249171 0)
(155.01352 0.16470522 0)
(154.90285 0.11226102 0)
(154.82624 0.055516759 0)
(154.78115 -0.0039807352 0)
(154.76884 -0.06348785 0)
(154.79561 -0.12051889 0)
(154.86457 -0.17425844 0)
(154.97639 -0.22438751 0)
(155.1298 -0.27057277 0)
(155.3221 -0.31247363 0)
(155.54966 -0.34973168 0)
(155.80814 -0.3819895 0)
(156.09274 -0.40891684 0)
(156.39827 -0.43023063 0)
(156.71929 -0.44571345 0)
(157.05017 -0.4552267 0)
(157.38519 -0.45872095 0)
(157.71863 -0.4562421 0)
(158.04486 -0.44793449 0)
(158.35846 -0.4340413 0)
(158.65427 -0.41490181 0)
(158.92753 -0.39094725 0)
(159.17396 -0.36269342 0)
(159.3898 -0.33073298 0)
(159.57193 -0.2957245 0)
(159.71789 -0.25838207 0)
(159.82596 -0.21946163 0)
(159.89517 -0.17974844 0)
(159.92534 -0.14004251 0)
(159.91705 -0.10114313 0)
(159.87164 -0.063834366 0)
(159.79118 -0.028848157 0)
(159.67837 0.0031711722 0)
(159.53626 0.031606525 0)
(159.36839 0.05591744 0)
(159.17891 0.075804763 0)
(158.97364 0.091066822 0)
(158.75849 0.10140135 0)
(158.53922 0.10654451 0)
(158.32135 0.10635058 0)
(158.11011 0.10078614 0)
(157.91029 0.089928328 0)
(157.72628 0.073963327 0)
(157.56195 0.05320761 0)
(157.4206 0.028222399 0)
(157.30583 -0.00017796403 0)
(157.22173 -0.031333976 0)
(157.17093 -0.064732009 0)
(157.15525 -0.099748212 0)
(157.17577 -0.13573353 0)
(157.23295 -0.17203367 0)
(157.32656 -0.2079894 0)
(157.45572 -0.24295286 0)
(157.61896 -0.27630038 0)
(157.81419 -0.30744376 0)
(158.03876 -0.33583997 0)
(158.28956 -0.36099941 0)
(158.56299 -0.38249275 0)
(158.85511 -0.39995669 0)
(159.16163 -0.4130983 0)
(159.47806 -0.42169809 0)
(159.79971 -0.42561186 0)
(160.12182 -0.42477125 0)
(160.43958 -0.4191831 0)
(160.74826 -0.40892754 0)
(161.04324 -0.39415512 0)
(161.3201 -0.37508273 0)
(161.57467 -0.35198861 0)
(161.80309 -0.32520657 0)
(162.00185 -0.29511934 0)
(162.16787 -0.26215136 0)
(162.29848 -0.22676106 0)
(162.3915 -0.18943274 0)
(162.44525 -0.15066801 0)
(162.45852 -0.11097739 0)
(162.43064 -0.070871449 0)
(162.36141 -0.030849107 0)
(162.25118 0.0086274205 0)
(162.10072 0.047123886 0)
(161.91122 0.08435693 0)
(161.68528 0.12007688 0)
(161.42576 0.15382671 0)
(161.13504 0.18515644 0)
(160.81571 0.21377565 0)
(160.47049 0.23946236 0)
(160.10226 0.26205658 0)
(159.71402 0.28145183 0)
(159.30883 0.29759145 0)
(158.88979 0.31046496 0)
(158.45998 0.32010414 0)
(158.02243 0.32657875 0)
(157.58009 0.32999196 0)
(157.13578 0.33047548 0)
(156.69222 0.32818472 0)
(156.25193 0.32329403 0)
(155.8173 0.31599219 0)
(155.39049 0.30647815 0)
(154.97352 0.29495722 0)
(154.56816 0.28163774 0)
(154.17604 0.26672811 0)
(153.79856 0.25043438 0)
(153.43692 0.23295828 0)
(153.09217 0.21449561 0)
(152.76516 0.19523506 0)
(152.45655 0.17535737 0)
(152.16687 0.15503477 0)
(151.89646 0.13443068 0)
(151.64553 0.11369987 0)
(151.41413 0.092988844 0)
(151.2022 0.072436646 0)
(151.00953 0.052180069 0)
(150.83578 0.032367935 0)
(150.68064 0.013140292 0)
(150.54356 -0.0053801164 0)
(150.42378 -0.023031055 0)
(150.32025 -0.039580469 0)
(150.23183 -0.05432802 0)
(150.1585 -0.065836752 0)
(150.09621 -0.075897902 0)
(150.03332 -0.080225543 0)
(157.32878 0.43844367 0)
(157.08091 0.39942105 0)
(156.99521 0.33960782 0)
(156.91173 0.27610949 0)
(156.87857 0.20707594 0)
(156.87872 0.13454736 0)
(156.9149 0.059176324 0)
(156.98339 -0.01821501 0)
(157.08204 -0.09693231 0)
(157.20901 -0.17549055 0)
(157.36313 -0.25180293 0)
(157.54263 -0.32409302 0)
(157.7452 -0.3910363 0)
(157.96795 -0.4516296 0)
(158.20756 -0.50507884 0)
(158.46033 -0.55072526 0)
(158.72229 -0.58801814 0)
(158.98924 -0.61651157 0)
(159.25687 -0.63587649 0)
(159.5208 -0.64591444 0)
(159.77666 -0.64657109 0)
(160.02017 -0.63794523 0)
(160.24724 -0.62029342 0)
(160.45399 -0.5940305 0)
(160.63687 -0.55972488 0)
(160.79274 -0.51809145 0)
(160.91887 -0.46997906 0)
(161.01308 -0.4163574 0)
(161.07373 -0.35829831 0)
(161.09979 -0.29695813 0)
(161.09083 -0.2335545 0)
(161.04711 -0.16934528 0)
(160.96949 -0.1056037 0)
(160.8595 -0.043591854 0)
(160.71927 0.015484049 0)
(160.55148 0.0704765 0)
(160.35934 0.12032541 0)
(160.14677 0.16410654 0)
(159.91803 0.20096137 0)
(159.67763 0.23007967 0)
(159.43027 0.2508406 0)
(159.18078 0.26293159 0)
(158.93407 0.2662689 0)
(158.69495 0.26093478 0)
(158.46808 0.24716315 0)
(158.25789 0.22533042 0)
(158.06845 0.19594342 0)
(157.90348 0.1596122 0)
(157.76623 0.11698575 0)
(157.65948 0.06876534 0)
(157.58545 0.015897803 0)
(157.54578 -0.040492612 0)
(157.54164 -0.099298249 0)
(157.57357 -0.15943276 0)
(157.64148 -0.21980945 0)
(157.74469 -0.27934913 0)
(157.88191 -0.33699849 0)
(158.0513 -0.39174876 0)
(158.25049 -0.44265239 0)
(158.47665 -0.48883758 0)
(158.72652 -0.52952103 0)
(158.99648 -0.56401853 0)
(159.28258 -0.59175389 0)
(159.58064 -0.61226578 0)
(159.88626 -0.62521259 0)
(160.19496 -0.63037524 0)
(160.50219 -0.62765802 0)
(160.8034 -0.61708743 0)
(161.09415 -0.598809 0)
(161.37012 -0.57308244 0)
(161.62718 -0.54027488 0)
(161.86149 -0.50085262 0)
(162.06948 -0.45537143 0)
(162.24796 -0.40446553 0)
(162.39412 -0.34883567 0)
(162.50557 -0.28923624 0)
(162.58036 -0.22646185 0)
(162.61703 -0.16133341 0)
(162.61457 -0.094684983 0)
(162.57244 -0.027351886 0)
(162.49062 0.039849234 0)
(162.3695 0.1061176 0)
(162.21 0.17068626 0)
(162.0134 0.23276957 0)
(161.78137 0.29168073 0)
(161.51589 0.346949 0)
(161.21925 0.39817179 0)
(160.89396 0.44494572 0)
(160.54278 0.48693978 0)
(160.16862 0.52390381 0)
(159.77451 0.55566956 0)
(159.36354 0.58214793 0)
(158.93884 0.60332425 0)
(158.50353 0.61925231 0)
(158.06065 0.63004762 0)
(157.61317 0.63587988 0)
(157.16395 0.63696513 0)
(156.71569 0.63355787 0)
(156.27095 0.62594321 0)
(155.83211 0.61442948 0)
(155.40134 0.59934135 0)
(154.98065 0.5810136 0)
(154.57182 0.55978567 0)
(154.17647 0.53599693 0)
(153.79599 0.5099828 0)
(153.43158 0.48207169 0)
(153.08428 0.45258252 0)
(152.75493 0.42182302 0)
(152.44419 0.39008855 0)
(152.15256 0.35766144 0)
(151.88038 0.32481072 0)
(151.62785 0.29179228 0)
(151.39503 0.25884928 0)
(151.18181 0.22621291 0)
(150.988 0.19410288 0)
(150.81325 0.16272707 0)
(150.6571 0.13231 0)
(150.51898 0.10311222 0)
(150.39816 0.075413066 0)
(150.29375 0.049544535 0)
(150.20492 0.026190391 0)
(150.13093 0.0064189683 0)
(150.06832 -0.010375424 0)
(150.01956 -0.020516041 0)
(157.40849 0.54849511 0)
(157.17697 0.46957623 0)
(157.10353 0.38019085 0)
(157.03695 0.28688801 0)
(157.02279 0.18953355 0)
(157.04468 0.089950152 0)
(157.105 -0.010555792 0)
(157.19984 -0.11043961 0)
(157.32667 -0.20824168 0)
(157.48219 -0.30254394 0)
(157.66326 -0.39191135 0)
(157.86673 -0.47503277 0)
(158.0894 -0.55074683 0)
(158.32785 -0.61801823 0)
(158.57844 -0.67593609 0)
(158.83738 -0.72371184 0)
(159.10074 -0.76069029 0)
(159.36452 -0.7863619 0)
(159.62472 -0.8003794 0)
(159.87737 -0.80257154 0)
(160.11862 -0.79295559 0)
(160.34474 -0.77174535 0)
(160.55221 -0.73935447 0)
(160.73778 -0.69639592 0)
(160.89847 -0.64367493 0)
(161.03166 -0.58217976 0)
(161.13516 -0.51306506 0)
(161.20718 -0.43763496 0)
(161.24644 -0.35731846 0)
(161.25218 -0.27364644 0)
(161.22417 -0.18822099 0)
(161.16277 -0.10268868 0)
(161.06891 -0.018708206 0)
(160.94413 0.062094347 0)
(160.7905 0.13814009 0)
(160.61067 0.20795152 0)
(160.40782 0.27016901 0)
(160.18556 0.32357424 0)
(159.94791 0.36715147 0)
(159.69921 0.40009135 0)
(159.44406 0.42180721 0)
(159.18716 0.43193983 0)
(158.93336 0.43033225 0)
(158.68749 0.41703905 0)
(158.45426 0.39233717 0)
(158.23817 0.35672553 0)
(158.04346 0.31092066 0)
(157.87393 0.2558477 0)
(157.73296 0.19260953 0)
(157.62335 0.12243968 0)
(157.54738 0.046670322 0)
(157.50673 -0.033311374 0)
(157.50249 -0.11607705 0)
(157.53514 -0.20016116 0)
(157.60451 -0.28408095 0)
(157.70984 -0.36637614 0)
(157.84975 -0.4456332 0)
(158.02234 -0.52050731 0)
(158.22515 -0.58974265 0)
(158.45528 -0.65219019 0)
(158.70937 -0.70682342 0)
(158.98374 -0.75275148 0)
(159.27435 -0.78923019 0)
(159.57697 -0.81567036 0)
(159.88714 -0.83164376 0)
(160.20033 -0.83688636 0)
(160.51193 -0.83129916 0)
(160.81736 -0.81494641 0)
(161.11213 -0.78805137 0)
(161.39188 -0.75098976 0)
(161.65246 -0.70428081 0)
(161.88998 -0.64857635 0)
(162.10086 -0.58464792 0)
(162.28186 -0.5133721 0)
(162.43014 -0.43571462 0)
(162.5433 -0.35271304 0)
(162.61937 -0.2654585 0)
(162.65687 -0.17507665 0)
(162.65479 -0.082709753 0)
(162.61261 0.010501172 0)
(162.5303 0.10344638 0)
(162.40827 0.19505244 0)
(162.24739 0.2843222 0)
(162.04893 0.37031151 0)
(161.81456 0.45213834 0)
(161.54629 0.52900365 0)
(161.24647 0.60020872 0)
(160.91773 0.66517099 0)
(160.56289 0.72342736 0)
(160.18492 0.77463236 0)
(159.78692 0.81855552 0)
(159.37205 0.85507652 0)
(158.94348 0.88417843 0)
(158.50437 0.90593956 0)
(158.05782 0.9205239 0)
(157.60683 0.9281707 0)
(157.15429 0.92918347 0)
(156.70294 0.92391888 0)
(156.25533 0.91277589 0)
(155.81386 0.89618537 0)
(155.38072 0.87460049 0)
(154.9579 0.84848809 0)
(154.54721 0.81832099 0)
(154.15023 0.7845716 0)
(153.76835 0.74770639 0)
(153.40278 0.70818173 0)
(153.05453 0.66644051 0)
(152.72442 0.6229098 0)
(152.41311 0.57799938 0)
(152.12109 0.53210094 0)
(151.84869 0.48558801 0)
(151.59609 0.43881663 0)
(151.36334 0.39212672 0)
(151.15035 0.34584455 0)
(150.95691 0.30028614 0)
(150.78269 0.25575986 0)
(150.62725 0.21258036 0)
(150.49007 0.17109156 0)
(150.37051 0.13169167 0)
(150.26786 0.094902604 0)
(150.18153 0.0615803 0)
(150.11071 0.03281275 0)
(150.05315 0.0095446826 0)
(150.01364 -0.0032658539 0)
(157.37209 0.6721207 0)
(157.13916 0.56145946 0)
(157.06302 0.44503392 0)
(156.99535 0.32467083 0)
(156.98104 0.20150662 0)
(157.00396 0.077084834 0)
(157.06645 -0.047149107 0)
(157.16466 -0.16971549 0)
(157.29622 -0.28909299 0)
(157.45784 -0.40361601 0)
(157.64625 -0.51149061 0)
(157.85795 -0.61102927 0)
(158.08932 -0.70076911 0)
(158.33659 -0.77946706 0)
(158.59583 -0.84608442 0)
(158.86303 -0.8997657 0)
(159.13414 -0.93983373 0)
(159.40508 -0.96579108 0)
(159.67182 -0.97733138 0)
(159.93039 -0.97435044 0)
(160.17695 -0.95695818 0)
(160.40782 -0.9254869 0)
(160.61951 -0.88049524 0)
(160.80878 -0.82276872 0)
(160.97269 -0.75331308 0)
(161.10861 -0.673346 0)
(161.21433 -0.58428006 0)
(161.28801 -0.48770596 0)
(161.32833 -0.38536612 0)
(161.33446 -0.2791302 0)
(161.30609 -0.17096077 0)
(161.24353 -0.062883778 0)
(161.14764 0.043052841 0)
(161.01993 0.14481902 0)
(160.86244 0.24043511 0)
(160.67783 0.32804569 0)
(160.46929 0.40592557 0)
(160.24049 0.47254017 0)
(159.99553 0.52657035 0)
(159.73889 0.5669342 0)
(159.47529 0.59282747 0)
(159.20967 0.60375962 0)
(158.94705 0.59955295 0)
(158.69243 0.58033316 0)
(158.4507 0.54651719 0)
(158.22651 0.49879636 0)
(158.02422 0.43811532 0)
(157.84777 0.36564667 0)
(157.70065 0.28276179 0)
(157.58582 0.19101057 0)
(157.50563 0.09211075 0)
(157.46186 -0.012104229 0)
(157.45562 -0.11974754 0)
(157.48739 -0.22890134 0)
(157.55698 -0.337649 0)
(157.6636 -0.4441087 0)
(157.80585 -0.54646348 0)
(157.98174 -0.64298881 0)
(158.18876 -0.73207861 0)
(158.4239 -0.81226764 0)
(158.68372 -0.88225093 0)
(158.96442 -0.94089983 0)
(159.26187 -0.9872752 0)
(159.5717 -1.0206373 0)
(159.88935 -1.0404528 0)
(160.21015 -1.0463983 0)
(160.5294 -1.038361 0)
(160.84238 -1.0164363 0)
(161.14449 -0.98092245 0)
(161.43128 -0.93231191 0)
(161.69848 -0.87128034 0)
(161.94211 -0.79867276 0)
(162.15851 -0.71548738 0)
(162.34438 -0.62285713 0)
(162.49681 -0.52202968 0)
(162.61334 -0.41434568 0)
(162.69199 -0.30121587 0)
(162.73124 -0.18409732 0)
(162.73007 -0.064471583 0)
(162.68798 0.056177958 0)
(162.60494 0.17640261 0)
(162.48141 0.29481207 0)
(162.31833 0.41007358 0)
(162.11704 0.52094571 0)
(161.8793 0.62630666 0)
(161.60721 0.72517713 0)
(161.30318 0.81670682 0)
(160.9699 0.90017256 0)
(160.61026 0.97499359 0)
(160.22732 1.0407355 0)
(159.82425 1.0971097 0)
(159.40429 1.1439684 0)
(158.97068 1.1812967 0)
(158.52665 1.2092017 0)
(158.07534 1.2279008 0)
(157.61982 1.2377077 0)
(157.163 1.2390181 0)
(156.70764 1.2322954 0)
(156.25634 1.2180567 0)
(155.8115 1.1968587 0)
(155.37531 1.1692862 0)
(154.94977 1.13594 0)
(154.53668 1.0974277 0)
(154.1376 1.054355 0)
(153.75392 1.007319 0)
(153.38683 0.95690256 0)
(153.0373 0.90367 0)
(152.70615 0.84816417 0)
(152.39402 0.79090429 0)
(152.10135 0.73238477 0)
(151.82848 0.67307454 0)
(151.57555 0.61341729 0)
(151.3426 0.55383186 0)
(151.12952 0.49471361 0)
(150.9361 0.43643662 0)
(150.762 0.3793576 0)
(150.6068 0.32382602 0)
(150.46999 0.27019541 0)
(150.35101 0.21883507 0)
(150.24927 0.17018502 0)
(150.16437 0.12486852 0)
(150.09562 0.083549594 0)
(150.04217 0.047040808 0)
(150.00959 0.018738134 0)
(157.31216 0.7805121 0)
(157.07453 0.63657676 0)
(156.99534 0.48964167 0)
(156.92541 0.33890961 0)
(156.91021 0.18674032 0)
(156.93359 0.034802733 0)
(156.99791 -0.11495851 0)
(157.09926 -0.2606895 0)
(157.23512 -0.40059834 0)
(157.4021 -0.53292785 0)
(157.59675 -0.65596387 0)
(157.81548 -0.76811498 0)
(158.05456 -0.86795631 0)
(158.31009 -0.95423191 0)
(158.57808 -1.025865 0)
(158.85443 -1.0819614 0)
(159.13496 -1.1218214 0)
(159.41551 -1.1449497 0)
(159.69192 -1.1510705 0)
(159.96011 -1.14014 0)
(160.21612 -1.1123582 0)
(160.45614 -1.0681775 0)
(160.67655 -1.0083071 0)
(160.87399 -0.93371451 0)
(161.04538 -0.84561903 0)
(161.18796 -0.74548441 0)
(161.29938 -0.63500111 0)
(161.37772 -0.51606899 0)
(161.42152 -0.3907682 0)
(161.42988 -0.26133212 0)
(161.40243 -0.13010835 0)
(161.33942 0.0004748447 0)
(161.24173 0.12796392 0)
(161.11082 0.24992568 0)
(160.94882 0.36403225 0)
(160.75844 0.46806445 0)
(160.54297 0.55997282 0)
(160.3062 0.63793123 0)
(160.05242 0.70037756 0)
(159.78627 0.74605311 0)
(159.51267 0.77403375 0)
(159.23676 0.78375498 0)
(158.96375 0.7750162 0)
(158.69887 0.74798034 0)
(158.44719 0.70316953 0)
(158.21358 0.64145237 0)
(158.00257 0.56402234 0)
(157.81828 0.47236677 0)
(157.66432 0.36822575 0)
(157.54376 0.25354812 0)
(157.45905 0.13045187 0)
(157.41201 0.0011750421 0)
(157.4038 -0.13197278 0)
(157.43491 -0.26665655 0)
(157.50516 -0.40055029 0)
(157.61372 -0.53136812 0)
(157.75913 -0.65690629 0)
(157.93933 -0.7750773 0)
(158.15172 -0.88394121 0)
(158.39319 -0.98173223 0)
(158.66019 -1.0668816 0)
(158.94879 -1.1380364 0)
(159.25472 -1.1940747 0)
(159.57347 -1.2341175 0)
(159.90035 -1.2575358 0)
(160.23053 -1.2639558 0)
(160.55917 -1.2532585 0)
(160.88142 -1.2255771 0)
(161.19253 -1.1812902 0)
(161.48792 -1.1210114 0)
(161.76321 -1.0455764 0)
(162.01431 -0.95602539 0)
(162.23744 -0.85358439 0)
(162.42924 -0.73964218 0)
(162.58672 -0.61572627 0)
(162.70737 -0.48347632 0)
(162.78917 -0.34461608 0)
(162.83058 -0.20092413 0)
(162.83058 -0.054206295 0)
(162.78868 0.09373346 0)
(162.70488 0.24112567 0)
(162.57967 0.38626261 0)
(162.41403 0.52752435 0)
(162.20937 0.66339692 0)
(161.96753 0.79249451 0)
(161.69069 0.91358461 0)
(161.38138 1.0256005 0)
(161.04239 1.1276498 0)
(160.67671 1.2190225 0)
(160.28752 1.2991917 0)
(159.87808 1.3678116 0)
(159.45174 1.42471 0)
(159.01181 1.4698784 0)
(158.56162 1.5034591 0)
(158.10438 1.5257289 0)
(157.6432 1.5370831 0)
(157.18105 1.5380171 0)
(156.72073 1.5291087 0)
(156.26487 1.5110001 0)
(155.81587 1.4843822 0)
(155.37594 1.4499781 0)
(154.94709 1.4085302 0)
(154.53109 1.360788 0)
(154.12951 1.3074976 0)
(153.74371 1.2493938 0)
(153.37486 1.1871932 0)
(153.02392 1.1215894 0)
(152.69166 1.0532495 0)
(152.3787 0.98281169 0)
(152.08548 0.91088415 0)
(151.81229 0.83804477 0)
(151.55926 0.76484157 0)
(151.3264 0.69179369 0)
(151.11359 0.61939293 0)
(150.9206 0.54810598 0)
(150.7471 0.47837817 0)
(150.59266 0.41064173 0)
(150.45679 0.34532639 0)
(150.33895 0.28287169 0)
(150.23861 0.22376481 0)
(150.15539 0.16858184 0)
(150.08859 0.11786585 0)
(150.03783 0.072263268 0)
(150.00824 0.033347432 0)
(157.24615 0.90652021 0)
(157.00101 0.73206026 0)
(156.91809 0.55596544 0)
(156.84473 0.37608443 0)
(156.82759 0.19562764 0)
(156.85026 0.016308248 0)
(156.91524 -0.15967868 0)
(157.01865 -0.33027273 0)
(157.15802 -0.49339039 0)
(157.32999 -0.64699976 0)
(157.5311 -0.78913837 0)
(157.75762 -0.91798771 0)
(158.00569 -1.0319306 0)
(158.27123 -1.1295653 0)
(158.55009 -1.2097152 0)
(158.83798 -1.2714277 0)
(159.13059 -1.313981 0)
(159.42358 -1.3368887 0)
(159.71264 -1.3399125 0)
(159.99351 -1.3230726 0)
(160.26207 -1.2866585 0)
(160.51432 -1.2312394 0)
(160.74648 -1.1576683 0)
(160.95498 -1.0670859 0)
(161.13657 -0.96091512 0)
(161.28832 -0.84085567 0)
(161.40771 -0.70886647 0)
(161.49266 -0.56714909 0)
(161.54159 -0.41811677 0)
(161.55345 -0.26436567 0)
(161.5278 -0.1086317 0)
(161.46484 0.046247891 0)
(161.3654 0.19739924 0)
(161.23096 0.34194623 0)
(161.0637 0.47710037 0)
(160.86643 0.6002115 0)
(160.64256 0.70883244 0)
(160.39606 0.80077943 0)
(160.1314 0.87418134 0)
(159.85345 0.92752886 0)
(159.5674 0.95971221 0)
(159.27864 0.97005349 0)
(158.99265 0.95831861 0)
(158.71493 0.924718 0)
(158.45082 0.86989637 0)
(158.20541 0.79491208 0)
(157.98348 0.70120717 0)
(157.78933 0.59056933 0)
(157.62676 0.46508687 0)
(157.49899 0.32710066 0)
(157.40858 0.17915374 0)
(157.35743 0.023932066 0)
(157.34675 -0.13579525 0)
(157.37703 -0.29722289 0)
(157.44809 -0.45755537 0)
(157.55903 -0.6140573 0)
(157.70833 -0.76409913 0)
(157.89385 -0.90519572 0)
(158.11286 -1.0350423 0)
(158.36212 -1.1515455 0)
(158.63795 -1.2528492 0)
(158.93625 -1.3373565 0)
(159.25259 -1.4037469 0)
(159.58229 -1.4509893 0)
(159.92047 -1.4783508 0)
(160.26215 -1.4854013 0)
(160.60229 -1.4720139 0)
(160.93587 -1.4383607 0)
(161.25798 -1.3849055 0)
(161.56387 -1.3123911 0)
(161.84902 -1.2218237 0)
(162.1092 -1.1144534 0)
(162.34053 -0.99175078 0)
(162.53951 -0.85538078 0)
(162.70309 -0.70717387 0)
(162.82869 -0.54909471 0)
(162.91423 -0.38320895 0)
(162.95815 -0.21164845 0)
(162.95942 -0.036578136 0)
(162.91759 0.13983889 0)
(162.83266 0.31549374 0)
(162.7052 0.48835731 0)
(162.53627 0.65649525 0)
(162.32738 0.81810801 0)
(162.08045 0.97155765 0)
(161.79779 1.1153904 0)
(161.48202 1.2483493 0)
(161.13608 1.3693842 0)
(160.76307 1.4776614 0)
(160.3663 1.5725656 0)
(159.94916 1.6536972 0)
(159.51509 1.7208649 0)
(159.06754 1.7740724 0)
(158.6099 1.8135027 0)
(158.14549 1.8394996 0)
(157.67748 1.8525465 0)
(157.20891 1.8532453 0)
(156.74261 1.842294 0)
(156.28124 1.8204661 0)
(155.82723 1.7885901 0)
(155.38279 1.7475312 0)
(154.94992 1.698175 0)
(154.53039 1.6414128 0)
(154.12575 1.57813 0)
(153.73733 1.5091957 0)
(153.36628 1.4354555 0)
(153.01352 1.3577252 0)
(152.67981 1.2767867 0)
(152.36572 1.1933856 0)
(152.07165 1.1082295 0)
(151.79787 1.0219871 0)
(151.54448 0.93528907 0)
(151.31147 0.84872786 0)
(151.0987 0.76285933 0)
(150.90592 0.678204 0)
(150.73279 0.59524983 0)
(150.5789 0.5144572 0)
(150.4438 0.43626591 0)
(150.32696 0.36110592 0)
(150.22795 0.28942597 0)
(150.14642 0.22171045 0)
(150.08178 0.15842072 0)
(150.03387 0.10014528 0)
(150.00708 0.047787875 0)
(157.167 1.0225675 0)
(156.91433 0.81551791 0)
(156.82858 0.60777215 0)
(156.75282 0.39649657 0)
(156.73522 0.18579531 0)
(156.75895 -0.022330977 0)
(156.82662 -0.22526252 0)
(156.93423 -0.42066142 0)
(157.07926 -0.60624803 0)
(157.25825 -0.77985857 0)
(157.46766 -0.93945061 0)
(157.70365 -1.0831464 0)
(157.96224 -1.2092688 0)
(158.23925 -1.3163531 0)
(158.5304 -1.4031639 0)
(158.83126 -1.4687017 0)
(159.13738 -1.5122166 0)
(159.44425 -1.5332186 0)
(159.74738 -1.531492 0)
(160.04233 -1.5071079 0)
(160.32479 -1.4604373 0)
(160.59055 -1.3921617 0)
(160.83561 -1.3032797 0)
(161.05621 -1.1951123 0)
(161.24888 -1.0692987 0)
(161.41051 -0.92779246 0)
(161.53837 -0.77284354 0)
(161.63023 -0.60698224 0)
(161.68433 -0.43298553 0)
(161.69954 -0.25384613 0)
(161.6753 -0.072724713 0)
(161.61176 0.1070945 0)
(161.50973 0.28227955 0)
(161.37071 0.44953054 0)
(161.19695 0.60563603 0)
(160.99135 0.74754044 0)
(160.75748 0.87241455 0)
(160.49949 0.97772989 0)
(160.22209 1.0613194 0)
(159.93039 1.1214376 0)
(159.62987 1.1568049 0)
(159.32622 1.1666435 0)
(159.02524 1.1506939 0)
(158.73272 1.1092184 0)
(158.45431 1.042991 0)
(158.19539 0.95327444 0)
(157.96098 0.84178426 0)
(157.75563 0.71064265 0)
(157.58334 0.56232275 0)
(157.44748 0.39958848 0)
(157.35074 0.22543141 0)
(157.29511 0.043003877 0)
(157.28184 -0.14444716 0)
(157.31143 -0.33364654 0)
(157.38369 -0.5213493 0)
(157.49766 -0.70437918 0)
(157.65173 -0.87968497 0)
(157.84366 -1.0443861 0)
(158.07058 -1.1958148 0)
(158.32911 -1.3315511 0)
(158.61538 -1.4494531 0)
(158.92513 -1.5476811 0)
(159.25373 -1.6247175 0)
(159.5963 -1.6793811 0)
(159.94776 -1.710837 0)
(160.30292 -1.7186015 0)
(160.65652 -1.7025425 0)
(161.00337 -1.6628744 0)
(161.33835 -1.6001494 0)
(161.65652 -1.5152433 0)
(161.95321 -1.409337 0)
(162.22401 -1.2838935 0)
(162.46491 -1.1406316 0)
(162.6723 -0.98149469 0)
(162.84301 -0.80861799 0)
(162.9744 -0.62429158 0)
(163.06434 -0.43092204 0)
(163.11122 -0.23099201 0)
(163.11402 -0.027021556 0)
(163.07229 0.17847211 0)
(162.98608 0.38301314 0)
(162.85603 0.58421943 0)
(162.68326 0.77983301 0)
(162.46939 0.96775189 0)
(162.21647 1.1460614 0)
(161.92692 1.3130615 0)
(161.60354 1.4672863 0)
(161.24938 1.6075175 0)
(160.86773 1.7327933 0)
(160.46203 1.8424102 0)
(160.03581 1.9359189 0)
(159.59266 2.0131144 0)
(159.13616 2.0740205 0)
(158.66981 2.1188709 0)
(158.19702 2.1480863 0)
(157.72105 2.1622499 0)
(157.245 2.1620816 0)
(156.77177 2.148412 0)
(156.30403 2.1221573 0)
(155.84425 2.0842956 0)
(155.39464 2.0358457 0)
(154.9572 1.9778472 0)
(154.53369 1.9113446 0)
(154.12563 1.8373727 0)
(153.73433 1.756946 0)
(153.36089 1.6710493 0)
(153.00621 1.5806317 0)
(152.671 1.4866017 0)
(152.3558 1.3898243 0)
(152.06097 1.2911198 0)
(151.78673 1.1912626 0)
(151.53315 1.0909819 0)
(151.30019 0.99096147 0)
(151.08767 0.89184018 0)
(150.89531 0.79421242 0)
(150.72278 0.69862853 0)
(150.56962 0.60559602 0)
(150.43538 0.51558104 0)
(150.31955 0.42901131 0)
(150.22169 0.34628648 0)
(150.14145 0.26776989 0)
(150.07826 0.1937488 0)
(150.03203 0.12452074 0)
(150.00662 0.060362366 0)
(157.07869 1.1543267 0)
(156.81635 0.91516044 0)
(156.72724 0.67583424 0)
(156.64851 0.43301259 0)
(156.63017 0.19151099 0)
(156.65485 -0.04645225 0)
(156.7253 -0.27793313 0)
(156.83749 -0.5002816 0)
(156.98885 -0.71089191 0)
(157.17586 -0.90732134 0)
(157.39488 -1.087294 0)
(157.64195 -1.248737 0)
(157.91292 -1.3898121 0)
(158.20346 -1.508928 0)
(158.50909 -1.6047563 0)
(158.82522 -1.6762353 0)
(159.14719 -1.7225834 0)
(159.47032 -1.7433068 0)
(159.78991 -1.7382136 0)
(160.10131 -1.7074267 0)
(160.39999 -1.6513967 0)
(160.68152 -1.5709152 0)
(160.94167 -1.4671221 0)
(161.17645 -1.341514 0)
(161.38215 -1.1959413 0)
(161.55543 -1.032607 0)
(161.69336 -0.85404896 0)
(161.79348 -0.66312467 0)
(161.85387 -0.46297572 0)
(161.87323 -0.25699481 0)
(161.85089 -0.048772445 0)
(161.7869 0.15795383 0)
(161.68204 0.35937108 0)
(161.53782 0.55166968 0)
(161.35656 0.73113006 0)
(161.14128 0.89421329 0)
(160.89572 1.0376414 0)
(160.62427 1.1584839 0)
(160.33188 1.2542287 0)
(160.02401 1.3228533 0)
(159.70645 1.362876 0)
(159.38525 1.3733984 0)
(159.06659 1.3541263 0)
(158.75663 1.3053743 0)
(158.46137 1.228053 0)
(158.18653 1.1236407 0)
(157.93744 0.99414011 0)
(157.71892 0.84202319 0)
(157.53521 0.67016598 0)
(157.38986 0.48177751 0)
(157.28571 0.28032439 0)
(157.22486 0.06945267 0)
(157.2086 -0.14708867 0)
(157.23744 -0.3655161 0)
(157.31114 -0.58207331 0)
(157.4287 -0.79309568 0)
(157.5884 -0.99507229 0)
(157.78785 -1.1846957 0)
(158.02405 -1.3589085 0)
(158.29342 -1.5149422 0)
(158.5919 -1.6503512 0)
(158.91501 -1.7630387 0)
(159.2579 -1.8512791 0)
(159.61546 -1.9137336 0)
(159.98237 -1.949461 0)
(160.35319 -1.957923 0)
(160.72245 -1.9389843 0)
(161.0847 -1.892907 0)
(161.4346 -1.8203404 0)
(161.76702 -1.7223047 0)
(162.07705 -1.6001702 0)
(162.36014 -1.4556312 0)
(162.6121 -1.2906752 0)
(162.82917 -1.1075484 0)
(163.00808 -0.90871674 0)
(163.14609 -0.69682473 0)
(163.24101 -0.47465047 0)
(163.29121 -0.24505932 0)
(163.29565 -0.010958845 0)
(163.2539 0.22474815 0)
(163.16608 0.45923149 0)
(163.03288 0.68976357 0)
(162.85554 0.91375106 0)
(162.63579 1.128783 0)
(162.37582 1.3326666 0)
(162.07822 1.5234576 0)
(161.74594 1.6994826 0)
(161.38222 1.8593557 0)
(160.9905 2.0019883 0)
(160.57441 2.1265914 0)
(160.13765 2.23267 0)
(159.68398 2.3200119 0)
(159.2171 2.3886689 0)
(158.74066 2.4389341 0)
(158.25818 2.4713147 0)
(157.77302 2.4865036 0)
(157.28835 2.4853479 0)
(156.80712 2.4688196 0)
(156.33205 2.4379852 0)
(155.86562 2.393979 0)
(155.41006 2.3379776 0)
(154.96736 2.2711779 0)
(154.53924 2.194778 0)
(154.12722 2.1099615 0)
(153.73257 2.0178849 0)
(153.35634 1.9196674 0)
(152.9994 1.8163844 0)
(152.66241 1.7090619 0)
(152.34585 1.5986739 0)
(152.05006 1.4861407 0)
(151.77519 1.3723285 0)
(151.5213 1.2580496 0)
(151.28829 1.1440627 0)
(151.07595 1.0310731 0)
(150.88401 0.91973309 0)
(150.71207 0.81064129 0)
(150.55969 0.70434269 0)
(150.42641 0.60132846 0)
(150.31172 0.50203681 0)
(150.21519 0.40685672 0)
(150.13643 0.31611474 0)
(150.07487 0.23005196 0)
(150.03034 0.14885204 0)
(150.0062 0.072534054 0)
(156.97602 1.2809043 0)
(156.70417 1.0073805 0)
(156.61226 0.734276 0)
(156.53132 0.45796543 0)
(156.51337 0.18403593 0)
(156.54036 -0.084956777 0)
(156.61518 -0.34565825 0)
(156.73364 -0.5951562 0)
(156.89307 -0.83063017 0)
(157.08986 -1.0494608 0)
(157.32022 -1.2492234 0)
(157.58009 -1.4277179 0)
(157.86515 -1.5829941 0)
(158.17093 -1.7133628 0)
(158.49278 -1.8174134 0)
(158.82593 -1.8940211 0)
(159.16553 -1.9423629 0)
(159.5067 -1.9619278 0)
(159.84452 -1.9525336 0)
(160.17414 -1.9143418 0)
(160.49075 -1.8478727 0)
(160.78968 -1.7540209 0)
(161.06647 -1.6340658 0)
(161.31683 -1.4896821 0)
(161.53683 -1.3229398 0)
(161.72284 -1.1363048 0)
(161.8717 -0.93262221 0)
(161.98073 -0.71510213 0)
(162.0478 -0.48728174 0)
(162.07144 -0.25299061 0)
(162.05085 -0.016291959 0)
(161.98599 0.21857396 0)
(161.8776 0.44728275 0)
(161.72722 0.66552631 0)
(161.53721 0.86908894 0)
(161.31075 1.0539487 0)
(161.05175 1.2163702 0)
(160.76487 1.353008 0)
(160.45536 1.460991 0)
(160.12901 1.5380064 0)