/*--------------------------------*- C++ -*----------------------------------*\
| =========                 |                                                 |
| \\      /  F ield         | foam-extend: Open Source CFD                    |
|  \\    /   O peration     | Version:     4.1                                |
|   \\  /    A nd           | Web:         http://www.foam-extend.org         |
|    \\/     M anipulation  |                                                 |
\*---------------------------------------------------------------------------*/
FoamFile
{
    version     2.0;
    format      ascii;
    class       volScalarField;
    location    "1.85";
    object      p;
}
// * * * * * * * * * * * * * * * * * * * * * * * * * * * * * * * * * * * * * //

dimensions      [0 2 -2 0 0 0 0];

internalField   nonuniform List<scalar> 
4393
(
-46.418275
-92.981816
-146.74661
-201.53769
-258.52848
-318.02966
-380.42418
-446.0216
-515.04617
-587.60803
-663.67516
-743.04513
-825.31983
-909.88667
-995.91041
-1082.3385
-1167.9204
-1251.2387
-1330.7464
-1404.8061
-1471.7266
-1529.7974
-1577.3239
-1612.6684
-1634.3033
-1640.8855
-1631.3606
-1605.1088
-1562.0232
-1502.604
-1428.0625
-1340.3042
-1241.8234
-1135.5207
-1024.4766
-911.72592
-800.06796
-691.93538
-589.32532
-493.78597
-406.44473
-328.06271
-259.10044
-199.78377
-150.17407
-110.24034
-79.763254
-57.83231
-43.628013
-45.16611
-92.395996
-146.03403
-200.67388
-257.49554
-316.84194
-379.10962
-444.62023
-513.60986
-586.20071
-662.37236
-741.93245
-824.48992
-909.43466
-995.92823
-1082.9091
-1169.113
-1253.1061
-1333.3246
-1408.1151
-1475.7718
-1534.5696
-1582.7974
-1618.7955
-1641.0076
-1648.0569
-1638.8539
-1612.7038
-1569.4361
-1509.5442
-1434.2448
-1345.4786
-1245.8055
-1138.2118
-1025.868
-911.8888
-799.13372
-690.07204
-586.7153
-490.60833
-402.86285
-324.21739
-255.10986
-195.75327
-146.20051
-106.36023
-75.961595
-54.86266
-44.264488
-44.361871
-91.499243
-144.77575
-199.05482
-255.52566
-314.56081
-376.57896
-441.92401
-510.8552
-583.51841
-659.91607
-739.87545
-823.01883
-908.73995
-996.19242
-1084.2947
-1171.7533
-1257.0997
-1338.7354
-1414.9751
-1484.0844
-1544.3102
-1593.9092
-1631.1785
-1654.5013
-1662.4209
-1653.7591
-1627.7381
-1584.0957
-1523.2533
-1446.4222
-1355.6119
-1253.5194
-1143.3091
-1028.3381
-911.88387
-796.92628
-686.00499
-581.15565
-483.91051
-395.34373
-316.14217
-246.6899
-187.1563
-137.55077
-97.687941
-67.257832
-46.702907
-37.920378
-43.571152
-90.203497
-142.87203
-196.57258
-252.4994
-311.05364
-372.68279
-437.76275
-506.58753
-579.33956
-656.05706
-736.59873
-820.60896
-907.489
-996.38132
-1086.1741
-1175.528
-1262.9214
-1346.7026
-1425.1388
-1496.4546
-1558.8584
-1610.5623
-1649.8029
-1674.875
-1684.1996
-1676.4524
-1650.7043
-1606.545
-1544.2894
-1465.1355
-1371.1992
-1265.394
-1151.1696
-1032.1788
-911.95606
-793.66713
-679.95748
-572.89548
-473.98961
-384.25274
-304.29102
-234.40473
-174.68802
-125.07524
-85.291409
-55.02222
-34.93427
-26.790145
-42.746018
-88.586076
-140.40163
-193.29788
-248.47667
-306.37001
-367.46086
-432.16664
-500.82796
-573.67713
-650.80218
-732.10636
-817.26636
-905.69541
-996.52124
-1088.5891
-1180.4947
-1270.6405
-1357.3007
-1438.6792
-1512.9483
-1578.2702
-1632.8044
-1674.7132
-1702.1783
-1713.459
-1707.0292
-1681.7391
-1636.953
-1572.8178
-1490.4977
-1392.2538
-1281.3117
-1161.5348
-1037.0027
-911.61334
-788.789
-671.31377
-561.29026
-460.18302
-368.91162
-287.96545
-217.52583
-157.57767
-107.95367
-68.296615
-38.299762
-18.683402
-10.926993
-41.73744
-86.536888
-137.25308
-189.11402
-243.33042
-300.36947
-360.75693
-424.96196
-493.38482
-566.32293
-643.93072
-726.17231
-812.77023
-903.15686
-996.44223
-1091.4142
-1186.5794
-1280.2368
-1370.5626
-1455.6798
-1533.7004
-1602.7369
-1660.8936
-1706.2493
-1736.8502
-1750.7506
-1746.1565
-1721.6152
-1676.1691
-1609.7099
-1523.3302
-1419.4773
-1301.8089
-1174.7659
-1043.0179
-910.95469
-782.33322
-660.10549
-546.40008
-442.60522
-349.5031
-267.41964
-196.37227
-136.1951
-86.586729
-47.090454
-17.368704
1.8953465
9.4341691
-40.59551
-84.127171
-133.49119
-184.07009
-237.08795
-293.05305
-352.54165
-416.08553
-484.15865
-557.14077
-635.27218
-718.59815
-806.90504
-899.65532
-995.93953
-1094.4705
-1193.6351
-1291.594
-1386.3954
-1476.064
-1558.6463
-1632.2099
-1694.8103
-1744.4436
-1779.005
-1796.3013
-1794.1938
-1770.825
-1724.7865
-1655.5862
-1564.1763
-1453.2322
-1326.9989
-1190.7119
-1049.8414
-909.42598
-773.64351
-645.63664
-527.53714
-420.60872
-325.43854
-242.13258
-170.49418
-110.16496
-60.679827
-21.460696
7.9041122
26.823679
34.190943
-39.186008
-81.205551
-128.95645
-178.00161
-229.57705
-284.23736
-342.61693
-405.32137
-472.91376
-545.87578
-624.55668
-709.10814
-799.40454
-894.95493
-994.83045
-1097.6468
-1201.6306
-1304.7573
-1404.9088
-1499.9924
-1587.989
-1666.9349
-1734.8568
-1789.6813
-1829.1468
-1850.7726
-1851.9889
-1830.4104
-1784.0054
-1711.7092
-1614.2143
-1494.4633
-1357.4975
-1209.6432
-1057.4495
-906.79885
-762.38316
-627.54425
-504.37053
-393.92805
-296.53033
-211.99149
-139.84082
-79.48136
-30.253175
8.5656671
37.490168
56.043804
63.248561
-37.653449
-77.930938
-123.79688
-171.03286
-220.89025
-273.97554
-330.98879
-392.62114
-459.5417
-532.35658
-611.55201
-697.4183
-789.95112
-888.73185
-992.81696
-1100.6983
-1210.3874
-1319.6103
-1426.0329
-1527.423
-1621.7034
-1706.9072
-1781.0687
-1842.0771
-1887.5231
-1914.605
-1920.2265
-1901.3234
-1855.0121
-1779.3762
-1674.6456
-1544.058
-1393.7394
-1231.5242
-1065.418
-902.39126
-747.74707
-605.01083
-476.14653
-361.9166
-262.25657
-176.59941
-104.13043
-43.9632
4.7913563
43.023684
71.374793
89.494119
96.516932
-35.748815
-74.004829
-117.69208
-162.83154
-210.68187
-261.90426
-317.27078
-377.56966
-443.59415
-516.10042
-595.74483
-682.99673
-778.01795
-880.50111
-989.50002
-1103.349
-1219.7672
-1336.1397
-1449.8471
-1558.4922
-1659.957
-1752.3186
-1833.6804
-1901.9528
-1954.6112
-1988.513
-1999.9354
-1984.9553
-1939.5404
-1860.5127
-1747.2974
-1603.4219
-1436.5075
-1256.501
-1073.3829
-895.51885
-728.91359
-577.21784
-442.13792
-323.98098
-222.16729
-135.63952
-63.159546
-3.4980583
44.496557
81.904389
109.5075
127.08891
133.89262
-33.798634
-69.806243
-111.02789
-153.76793
-199.29483
-248.32735
-301.71457
-360.35255
-425.17744
-497.12414
-577.0583
-665.67866
-763.37423
-870.00865
-984.66026
-1105.4662
-1229.7463
-1354.4137
-1476.4674
-1593.3173
-1702.8402
-1803.2313
-1892.7563
-1969.4401
-2030.7077
-2073.0756
-2092.1039
-2082.7929
-2039.5858
-1957.4488
-1834.4243
-1674.2474
-1486.6344
-1284.5444
-1080.6576
-885.11613
-704.6907
-543.0275
-401.36509
-279.34225
-175.6859
-88.716584
-16.683848
42.039472
88.898467
125.17878
151.81128
168.71719
175.24995
-31.322729
-64.748356
-103.16398
-143.16711
-186.01795
-232.49048
-283.51349
-340.10049
-403.35031
-474.40917
-554.39867
-644.30975
-744.84104
-856.11861
-977.2992
-1106.2778
-1239.8197
-1374.1695
-1505.8015
-1631.8965
-1750.3826
-1859.6802
-1958.3491
-2044.6714
-2116.1357
-2168.9574
-2197.92
-2196.6909
-2157.7327
-2073.3255
-1939.1484
-1758.8897
-1545.2551
-1315.6018
-1086.3278
-869.8186
-673.6069
-501.08699
-352.70791
-227.146
-122.2086
-35.439775
35.518292
92.742957
137.99739
172.78083
198.17304
214.23503
220.43256
-28.935353
-59.575019
-94.898077
-131.84688
-171.67526
-215.21024
-263.45975
-317.56076
-378.79212
-448.54488
-528.24832
-619.25858
-722.68953
-839.06438
-967.71685
-1106.2533
-1250.6596
-1396.2154
-1538.6636
-1674.922
-1803.0779
-1921.9453
-2030.5694
-2127.6999
-2211.0801
-2276.7106
-2318.5367
-2328.6706
-2297.0938
-2212.1923
-2065.652
-1860.4853
-1613.7494
-1349.407
-1089.0112
-847.73848
-633.73477
-449.70519
-294.82735
-166.41701
-61.081488
24.585941
93.645769
148.6693
191.75103
224.60059
248.43736
263.45902
269.24621
-25.834185
-53.293419
-85.133333
-118.63359
-155.00887
-195.12766
-240.07117
-291.10196
-349.69473
-417.52247
-496.38356
-588.08847
-694.30537
-816.16079
-953.35352
-1103.1788
-1260.522
-1419.2472
-1574.0534
-1721.5574
-1860.1746
-1989.3363
-2108.797
-2218.04
-2315.3462
-2396.6701
-2455.0971
-2481.0201
-2461.4977
-2379.4191
-2219.7582
-1983.4126
-1693.8848
-1385.4101
-1086.7046
-816.33263
-582.61619
-386.8334
-226.18368
-96.095868
8.358609
91.722675
157.84468
209.8161
250.05835
280.47304
302.39852
316.15959
321.45238
-22.988274
-47.105616
-75.194255
-104.93108
-137.4926
-173.78005
-214.93914
-262.35457
-317.70638
-382.98381
-460.41865
-552.37014
-661.22093
-788.98802
-936.05543
-1099.4242
-1272.3863
-1446.659
-1615.3977
-1774.8822
-1924.1582
-2063.6286
-2194.0747
-2316.1134
-2429.0548
-2529.1508
-2608.6686
-2656.1733
-2655.5155
-2582.0935
-2409.6776
-2133.8911
-1787.8784
-1422.5329
-1076.4503
-772.13844
-517.10651
-310.00238
-145.03283
-15.064607
86.748903
166.26561
228.17997
276.09999
312.74389
340.16722
359.79281
372.05519
376.76303
-19.234005
-39.566136
-63.483991
-89.028689
-117.28554
-149.16101
-185.84185
-228.81612
-279.96343
-341.61501
-416.50498
-507.64542
-618.31837
-751.84295
-909.86993
-1089.2875
-1281.1052
-1473.7727
-1658.1739
-1830.2918
-1990.374
-2140.3276
-2282.2798
-2418.3713
-2549.5398
-2672.7616
-2779.4823
-2856.4148
-2884.4363
-2829.5603
-2647.2461
-2321.0872
-1898.5226
-1458.8318
-1053.8857
-710.45804
-433.22536
-216.297
-49.466965
77.789632
174.63818
248.39173
304.59738
347.33019
379.54032
403.37511
420.29168
430.80755
434.83661
-15.909561
-32.367253
-51.889461
-72.946173
-96.528125
-123.53002
-155.16118
-192.99626
-239.10685
-296.1929
-367.57403
-457.03014
-568.92182
-708.39599
-879.34027
-1079.0098
-1295.0591
-1510.7437
-1713.4128
-1898.7626
-2069.1471
-2228.6986
-2381.1217
-2530.4774
-2680.3857
-2829.6039
-2969.1767
-3084.3381
-3154.0989
-3134.0111
-2949.9601
-2559.1608
-2029.2978
-1490.9055
-1012.5346
-624.92463
-325.99161
-102.36339
62.502564
183.47659
272.40179
338.09602
386.8797
423.18038
450.07138
469.70186
483.49632
492.01878
495.27606
-11.483934
-23.591271
-38.294712
-54.43869
-72.848165
-94.363274
-120.17003
-151.87521
-191.68076
-242.61953
-308.63694
-394.36266
-505.33317
-649.10814
-833.41847
-1057.1182
-1303.0126
-1546.0299
-1768.1209
-1964.9809
-2142.9743
-2309.8848
-2471.308
-2633.6118
-2804.7355
-2986.7701
-3170.348
-3338.4983
-3469.9067
-3511.259
-3344.1367
-2870.7984
-2184.1432
-1512.8701
-942.74513
-506.96176
-189.2947
35.498598
192.78352
302.75056
380.12569
435.11295
474.59766
503.16009
523.83638
538.65829
548.93478
555.2309
557.62921
-7.545956
-15.399274
-25.214385
-36.272663
-49.208346
-64.768159
-84.069036
-108.69897
-140.93302
-184.11092
-242.90339
-322.98255
-431.1492
-577.9657
-777.58731
-1033.2898
-1320.8803
-1601.2875
-1847.8979
-2056.6838
-2241.3072
-2415.2342
-2585.4242
-2759.525
-2951.4775
-3168.7938
-3401.8414
-3630.6653
-3839.9341
-3979.4506
-3868.0219
-3294.1303
-2367.8698
-1515.4535
-830.29337
-345.15973
-15.872048
201.0951
342.92639
435.89033
497.4582
538.82664
567.05988
586.58913
600.19882
609.65731
616.06259
619.92844
621.39203
-2.4940632
-5.655431
-10.105335
-15.573882
-22.445062
-31.342478
-43.273969
-59.749511
-83.01315
-116.56767
-165.75628
-237.36435
-339.18048
-484.64174
-697.71908
-992.03953
-1333.7674
-1659.6115
-1930.103
-2142.1466
-2323.1199
-2495.6059
-2666.793
-2843.1722
-3048.9948
-3303.174
-3599.0876
-3914.1976
-4241.4071
-4553.2175
-4583.0234
-3903.4784
-2589.3112
-1483.2203
-653.43094
-124.34836
202.50733
397.84713
513.68346
582.39884
623.43324
648.17732
663.26852
672.57998
678.38237
682.01637
684.26795
685.54479
686.01534
2.9587827
3.9729673
4.5462216
4.3727128
3.3872544
1.1545785
-3.1202756
-10.724172
-23.652466
-45.261316
-81.374519
-140.13101
-230.2735
-367.38849
-589.87776
-934.91056
-1357.8538
-1750.6934
-2054.8901
-2266.9251
-2439.8807
-2611.559
-2788.5988
-2969.4139
-3193.9262
-3500.0127
-3883.2973
-4313.0922
-4763.9033
-5291.5202
-5573.8103
-4825.3577
-2837.3019
-1376.2419
-376.92578
174.90844
474.14912
627.83442
704.34008
740.6213
756.28035
761.57921
761.89121
760.03431
757.47739
754.96732
752.88231
751.47259
750.91507
8.285108
13.265306
19.323497
25.157928
31.020594
36.677802
41.595035
44.762994
44.510318
37.799727
18.452006
-23.539284
-98.146865
-220.10652
-443.94207
-853.46429
-1397.2821
-1876.4149
-2210.7431
-2392.8795
-2530.4286
-2685.6836
-2862.7828
-3027.8151
-3238.6402
-3573.5317
-4023.7139
-4561.7461
-5089.7118
-5960.361
-6823.7181
-6299.5145
-3074.0129
-1170.9515
36.506722
572.65493
805.01206
890.17366
911.79912
907.31725
893.25928
876.87539
861.2638
847.66124
836.4618
827.67551
821.19684
817.07825
815.48593
17.841138
25.859695
36.761725
47.719723
59.416599
71.801329
84.631479
97.258411
108.52222
116.2357
114.96641
93.715274
41.619906
-49.538434
-244.67547
-715.15133
-1441.8801
-2033.6101
-2413.3731
-2545.7124
-2643.0184
-2787.1992
-2982.1462
-3113.6799
-3276.6776
-3677.6989
-4224.3715
-4961.7034
-5679.3056
-7242.854
-8882.0926
-9068.3527
-3578.1298
-1038.2194
635.19325
1099.0921
1197.351
1178.9795
1129.5275
1077.2886
1030.5876
991.36666
959.44126
934.02443
914.23863
899.26868
888.48485
881.72033
879.11836
22.150579
30.89524
46.136738
62.238217
80.171528
100.10825
122.29209
146.74779
173.26284
201.2384
227.41498
240.71449
225.96312
180.34547
45.408649
-483.28437
-1555.1588
-2311.4994
-2773.6625
-2771.0091
-2749.6659
-2813.1453
-3022.6411
-3099.9059
-3207.1639
-3763.2636
-4232.9948
-5185.2221
-6470.8433
-7863.4477
-9589.1442
-12103.54
-4823.2657
-72.51493
1722.8307
1811.9827
1641.1422
1478.7602
1346.2296
1243.2035
1163.5572
1101.9566
1054.3114
1017.6218
989.69044
968.87449
954.02889
944.77069
941.2174
36.937087
46.533242
66.460104
87.31401
110.74806
137.0774
166.90657
200.72081
238.86206
281.66261
327.57454
365.35488
371.82645
347.26616
293.74159
-191.10954
-1818.0783
-2617.1351
-3115.4964
-2772.7579
-2626.8086
-2732.5432
-3131.756
-3271.1277
-3302.4341
0
0
0
0
0
0
0
0
6202.3752
3402.4562
2582.4955
2068.2385
1755.8595
1545.1253
1396.0884
1287.0015
1205.455
1143.7778
1096.9951
1061.747
1035.6641
1017.1505
1005.6369
1001.2225
35.366745
42.182744
64.028414
87.075081
113.20491
142.73971
176.57927
215.67657
261.07475
314.42455
377.59012
445.98924
502.79948
560.82567
710.68077
552.80431
-1996.7854
-2776.9626
-3646.9058
-2968.6377
-3044.3365
-3012.3249
0
0
0
0
0
0
0
0
0
0
10129.574
6286.2537
4123.9548
3000.3243
2361.3129
1969.1781
1709.0493
1527.5632
1396.2859
1299.0428
1225.9924
1170.8554
1129.457
1098.8967
1077.2397
1063.784
1058.6265
44.263794
54.950259
80.950051
106.9776
136.1544
169.03602
206.87571
251.10418
303.50615
367.0804
447.11658
546.08848
653.28867
754.39107
842.19571
568.47297
-3108.2259
-3581.5988
-3205.2811
0
0
0
0
0
0
0
0
0
0
0
1780.6717
3364.5942
5756.1164
5236.0896
3961.3823
3100.1684
2507.143
2107.7401
1830.6543
1632.9921
1488.4298
1380.7309
1299.5698
1238.1936
1192.0514
1157.9576
1133.7808
1118.7536
1112.9925
22.191612
42.16633
66.371008
91.284915
118.75239
149.54727
184.74325
225.50534
273.13246
329.82982
399.49992
478.02723
537.53011
536.2475
558.10681
702.38645
0
0
0
0
0
0
-1132.0676
-1103.5232
-1011.3055
-917.55611
-790.08496
-495.29882
-94.947271
697.08383
2026.4397
3361.9105
4750.9873
4489.8576
3714.8021
3058.6866
2552.6655
2182.2203
1911.4456
1711.6615
1562.3547
1449.5321
1363.6925
1298.345
1248.9834
1212.3854
1186.3705
1170.1779
1163.9662
19.953997
50.022175
74.970485
100.54382
127.96159
158.05677
191.47966
228.66493
269.572
313.41802
357.89979
396.5623
406.14906
338.09188
142.0179
-338.13529
-1284.4172
-1227.4749
-1147.1017
-1100.4783
-1051.0812
-1021.6128
-1010.364
-803.28916
-838.68208
-583.18161
-362.34494
-204.61727
259.08284
904.85458
1960.2926
3049.3233
3956.5654
3851.8967
3404.2981
2933.5971
2528.4617
2206.0156
1956.7041
1765.4224
1618.5288
1505.3809
1418.1055
1351.0013
1299.9424
1261.8834
1234.7284
1217.7885
1211.284
20.663328
46.485413
72.120263
97.97178
125.28638
154.81514
187.13913
222.62496
261.25912
302.13417
342.03508
373.73566
384.81878
353.15845
205.21578
-227.92218
-792.30512
-920.95905
-962.54805
-966.15072
-887.80272
-842.32016
-818.54937
-691.80002
-620.94361
-417.54026
-179.14324
77.742964
510.88697
1096.4663
1896.1868
2721.5882
3334.8855
3356.8267
3105.6568
2777.1432
2463.3574
2193.8101
1973.5975
1797.6786
1658.5138
1548.9432
1463.0388
1396.1804
1344.8435
1306.3178
1278.698
1261.4185
1254.7757
14.99659
36.230597
58.796991
81.291019
104.29082
128.03548
152.53046
177.41593
201.78997
223.68916
238.8969
240.18115
218.24899
159.21448
15.075103
-283.91205
-606.90319
-732.46463
-784.51847
-794.28637
-753.12513
-703.47405
-642.23487
-537.76204
-423.8863
-238.24308
-11.498519
269.88387
668.60847
1187.7222
1823.2423
2450.8964
2889.5205
2967.0586
2834.9721
2613.0012
2376.1815
2157.6762
1969.1885
1812.3856
1684.4723
1581.3762
1499.091
1434.1697
1383.8
1345.7039
1318.2395
1300.9995
1294.3627
23.838364
46.444889
70.189872
93.656151
117.54422
141.96098
166.72595
191.21045
214.09574
232.81514
242.68436
236.66999
205.98879
135.39761
-7.2593602
-236.55102
-460.15473
-579.8058
-635.3832
-644.54086
-615.83455
-568.29263
-497.28096
-394.4599
-264.34903
-82.932827
139.16107
416.11351
777.02663
1223.7721
1735.5102
2221.7454
2557.2301
2658.5602
2599.6227
2454.8463
2280.1779
2107.1228
1949.7497
1813.469
1698.7943
1604.1109
1527.1062
1465.4576
1417.0851
1380.1847
1353.418
1336.5534
1330.0512
12.024202
29.927703
50.032191
70.035748
90.041025
109.92725
129.38617
147.74692
163.76077
175.18274
178.31571
168.06159
137.63856
74.654329
-40.055152
-203.5077
-358.80722
-456.74755
-506.07906
-514.23361
-488.93005
-440.00554
-365.68919
-262.6008
-128.53848
46.964238
261.85453
525.191
849.67434
1232.3374
1648.6363
2032.8058
2301.9489
2411.5832
2398.1277
2308.5355
2183.1595
2048.951
1920.3869
1804.4654
1703.8311
1618.6751
1548.0642
1490.6662
1445.0904
1410.0051
1384.3869
1368.1815
1361.9233
21.407258
40.632422
60.854091
80.367726
99.453591
117.84346
135.02365
150.10173
161.62898
167.32367
163.94543
147.54856
113.08108
52.273618
-43.556969
-165.61535
-279.00342
-356.12483
-395.69007
-400.45674
-375.18744
-324.72557
-248.67403
-145.28266
-11.774167
156.79246
361.05915
606.02198
895.95179
1224.416
1567.8664
1878.5076
2101.9971
2212.1876
2227.1466
2176.7607
2089.8437
1988.0678
1885.0999
1788.3899
1701.7412
1626.5697
1562.9909
1510.491
1468.2867
1435.486
1411.37
1396.0509
1390.125
11.864136
27.968647
45.959745
63.61162
80.820521
97.231937
112.31667
125.22206
134.61714
138.50966
134.22486
118.55908
87.502279
35.679645
-40.002297
-130.4318
-213.52486
-271.83079
-300.8491
-300.62654
-273.46205
-221.63388
-145.03192
-42.511112
87.994222
248.90862
441.01374
666.30046
924.57417
1207.7344
1495.1769
1752.1623
1942.6282
2049.7639
2082.4753
2059.9382
2002.6782
1927.6336
1846.8494
1767.6916
1694.4093
1629.1884
1572.8939
1525.6525
1487.1885
1456.9988
1434.6432
1420.3806
1414.8538
17.140352
33.237311
50.219995
66.364767
81.714319
95.886726
108.32926
118.22215
124.38327
125.18562
118.61226
102.36243
73.691031
29.625409
-29.988913
-97.382216
-158.13656
-200.46221
-219.38498
-213.53447
-183.55778
-130.34321
-53.764317
46.960318
173.10553
325.77661
505.17495
711.24636
941.41831
1187.1581
1431.2313
1648.3114
1813.9322
1916.4939
1960.2187
1957.4979
1922.9611
1869.6952
1807.8367
1744.3105
1683.4266
1627.7751
1578.7191
1536.8593
1502.3258
1474.9439
1454.5175
1441.4278
1436.3464
11.96587
26.365706
42.104182
57.216593
71.535748
84.633742
95.955494
104.7278
109.89843
110.11348
103.80201
89.276649
64.758269
28.907302
-17.019687
-66.703728
-110.25014
-139.22894
-148.9946
-137.55138
-104.54787
-50.079625
26.067925
124.39881
245.54586
389.78546
556.6473
744.78763
950.46869
1165.4734
1375.7035
1562.5376
1708.9273
1806.4499
1856.8891
1868.2991
1851.1311
1815.4435
1769.5686
1719.7249
1670.096
1623.4069
1581.325
1544.7831
1514.221
1489.7315
1471.3239
1459.4742
1454.8659
13.672515
27.35957
41.871655
55.550747
68.315714
79.771174
89.415431
96.581129
100.40716
99.848951
93.763572
81.00717
60.559534
32.098428
-2.5894375
-38.476652
-68.501774
-86.407751
-88.110102
-71.431308
-35.489638
20.054021
95.479347
191.07376
307.00126
442.97351
597.96298
769.86571
954.48573
1144.3019
1327.8969
1491.4046
1622.6062
1715.1567
1769.5578
1791.0637
1787.1665
1765.5772
1733.0733
1695.058
1655.4635
1616.9945
1581.471
1550.0422
1523.3734
1501.7674
1485.4001
1474.8152
1470.6913
11.353742
24.027827
37.64511
50.500552
62.432361
73.046771
81.880026
88.352005
91.760677
91.312632
86.206074
75.73272
59.446
37.651028
12.275986
-12.652458
-31.896955
-40.645218
-35.405147
-14.03791
24.575401
80.988317
155.49844
248.21853
358.97846
487.10018
631.16257
788.66202
955.34898
1124.5374
1286.9999
1432.2482
1551.2804
1639.181
1695.7797
1724.5053
1730.7501
1720.4243
1699.0134
1671.1269
1640.3516
1609.2937
1579.8157
1553.1933
1530.2479
1511.4414
1497.0799
1487.7493
1484.1078
11.40741
23.29599
35.923462
47.75433
58.666172
68.305005
76.268437
82.0767
85.182542
85.010354
81.033235
72.876324
60.489073
44.522027
26.8472
10.721072
0.16237683
-1.028389
10.105312
35.553851
76.498709
133.57345
207.05501
296.91479
402.74669
523.6091
657.83537
802.75907
954.29713
1106.6006
1252.1844
1382.9755
1492.1645
1575.8547
1633.5315
1667.4214
1681.4224
1680.0721
1667.8003
1648.5064
1625.3922
1600.9185
1576.9178
1554.7271
1535.2679
1519.1187
1506.6846
1498.5704
1495.3986
10.343694
21.515206
33.418464
44.56052
54.805643
63.829399
71.285702
76.786987
79.922817
80.301614
77.620593
71.762663
62.951054
52.019479
40.711684
31.70475
28.181983
33.206348
49.281198
78.204318
121.12208
178.66786
251.07256
338.19323
439.45897
553.75812
679.29314
813.3825
952.21539
1090.7114
1222.7514
1342.0032
1443.1851
1523.1435
1581.1972
1618.7739
1638.7038
1644.4829
1639.6904
1627.6167
1611.0829
1592.3713
1573.2515
1555.0722
1538.8131
1525.135
1514.5165
1507.5611
1504.8394
9.9406034
20.476354
31.670291
42.129991
51.740036
60.213268
67.259672
72.57513
75.865219
76.886683
75.510374
71.807446
66.178268
59.538177
53.481458
50.249953
52.431737
62.543963
82.715154
114.5429
159.08949
216.94394
288.27808
372.85681
469.99604
578.48217
696.4677
821.34175
949.60212
1076.8385
1197.9926
1307.9983
1402.6585
1479.37
1537.3815
1577.5853
1602.0459
1613.4717
1614.7642
1608.7017
1597.7598
1584.0284
1569.1943
1554.5866
1541.2124
1529.7897
1520.8527
1514.9873
1512.6935
9.3564855
19.364678
30.008303
39.956307
49.101838
57.191817
63.988231
69.261451
72.815908
74.529242
74.407952
72.661151
69.80165
66.769693
65.018007
66.459545
73.249464
87.495491
111.02113
145.23571
191.09829
249.13283
319.44848
401.73656
495.23706
598.68208
710.22645
827.37309
946.92376
1065.032
1177.4572
1280.0604
1369.4252
1443.3601
1501.0942
1543.1583
1571.0667
1586.9346
1593.1294
1592.007
1585.7418
1576.2384
1565.092
1553.596
1542.7636
1533.3524
1525.9436
1521.096
1519.2105
8.9349229
18.48593
28.650062
38.160444
46.922801
54.715633
61.346502
66.648494
70.506268
72.892221
73.915142
73.881712
73.372888
73.323638
75.062073
80.252017
90.72988
108.29444
134.52463
170.66336
217.56516
275.68318
345.06665
425.34904
515.7209
614.89172
721.04866
831.8233
944.29376
1055.0745
1160.5506
1257.2641
1342.3651
1413.9707
1471.3164
1514.6885
1545.2058
1564.5397
1574.6427
1577.5291
1575.1201
1569.1527
1561.1298
1552.3026
1543.6752
1536.0297
1529.9956
1526.1075
1524.6262
8.5490878
17.743431
27.539661
36.720584
45.201104
52.788071
59.328729
64.70864
68.877047
71.879907
73.902175
75.318286
76.748703
79.109629
83.625561
91.772922
105.15319
125.33306
153.69921
191.35462
239.05851
297.19695
365.76609
444.35495
532.12323
627.77712
729.54969
835.19748
942.03526
1047.0435
1147.0792
1239.1826
1320.9148
1390.6225
1447.5583
1491.8426
1524.3119
1546.3086
1559.4681
1565.5345
1566.2222
1563.1245
1557.6592
1551.0353
1544.239
1538.0665
1533.213
1530.228
1529.1732
8.1797945
17.102073
26.616361
35.549353
43.821654
51.264826
57.758891
63.231088
67.680331
71.20753
74.052587
76.635789
79.599409
83.837386
90.492336
100.90229
116.49786
138.67444
168.67206
207.48181
255.7827
313.90297
381.79479
459.01398
544.7018
637.57107
735.90257
837.56223
940.05599
1040.6446
1136.5326
1225.1189
1304.2584
1372.466
1429.0139
1473.9121
1507.7983
1531.7774
1547.2491
1555.752
1558.8387
1557.9875
1554.5458
1549.6889
1544.3861
1539.4368
1535.6169
1533.5683
1533.0777
7.8074653
16.603251
25.94026
34.712449
42.84695
50.199296
56.676525
62.237945
66.919207
70.860729
74.340492
77.808597
81.918237
87.542321
95.761615
107.81597
125.01732
148.64064
179.82011
219.46336
268.18758
326.27575
393.6465
469.83226
553.96406
644.76493
740.55743
839.29438
938.62564
1036.0148
1128.911
1214.9613
1292.223
1359.3287
1415.5684
1460.8801
1495.7669
1521.169
1538.3193
1548.6078
1553.4681
1554.292
1552.3723
1548.8589
1544.7054
1540.6822
1537.614
1536.3937
1536.6788
7.3041603
16.167683
25.424158
34.111369
42.165165
49.465532
55.940293
61.570926
66.417186
70.644534
74.554281
78.613605
83.479934
90.010441
99.245989
112.36646
130.61022
155.17361
187.12053
227.30316
276.29687
334.35381
401.3701
476.86326
559.959
649.38926
743.50676
840.32386
937.58589
1032.8878
1123.8346
1208.2292
1284.2563
1350.6234
1406.6335
1452.1814
1487.687
1513.9861
1532.2048
1543.6367
1549.6372
1551.5383
1550.5927
1547.936
1544.5156
1541.0471
1538.3506
1537.92
1540.1131
6.08146
15.835466
25.143157
33.822781
41.84589
49.124502
55.60066
61.26804
66.198702
70.570636
74.6969
79.053421
84.300499
91.290138
101.04798
114.71776
133.49018
158.52469
190.85529
231.30724
280.43507
338.47525
405.31238
480.45647
563.03066
651.77174
745.04814
840.90277
937.12931
1031.3885
1121.3625
1204.9313
1280.3423
1346.3406
1402.2364
1447.9044
1483.7238
1510.4798
1529.2465
1541.2703
1547.8634
1550.3272
1549.9021
1547.7275
1544.7604
1541.6761
1539.2603
1539.7833
1545.6255
-2227.7586
-2483.6253
-2699.5394
-2881.4842
-3023.9679
-3106.215
-3108.2259
-3029.2217
-2857.279
-2664.0037
-3205.3892
-3205.2811
-3198.4356
-3187.4487
-3173.3345
-3160.5817
-3148.7459
-3158.2126
-3158.8147
-3131.4103
-3183.0315
-3181.907
-3167.1527
-3150.1895
-3133.2743
-3124.2835
-3105.9909
-3113.208
-3100.0764
-3046.5502
-3137.8421
-3135.18
-3126.5769
-3117.8811
-3109.0876
-3112.0998
-3101.0042
-3098.9716
-3085.5703
-3048.7084
-3078.15
-3076.7154
-3072.1699
-3066.2526
-3057.747
-3058.1471
-3057.8128
-3057.1426
-3055.6641
-3059.4009
-3030.1693
-3029.377
-3023.6162
-3013.455
-2998.2001
-2968.6377
-2990.8017
-3003.1026
-3009.7482
-3023.097
-3013.4131
-3015.1072
-3018.3589
-3021.7461
-3032.6628
-3008.5368
-3008.2149
-3004.5876
-2989.6694
-2966.6814
-3027.9234
-3029.5542
-3035.6401
-3044.3365
-3068.3865
-3076.103
-3056.7218
-3030.7043
-3000.8674
-2965.4635
-3848.4529
-3860.7652
-3831.7264
-3787.3168
-3749.757
-3717.6918
-3696.1885
-3682.4623
-3673.5224
-3675.2645
-2986.9818
-2985.7896
-2977.9087
-2960.9536
-2921.5854
-2946.9463
-2958.9511
-2961.1438
-2950.658
-2923.551
-3009.2484
-3012.3249
-3018.6882
-3037.9315
-3013.9714
-3005.251
-3001.2993
-2993.8837
-2979.8936
-2964.7519
-3048.507
-3050.9595
-3056.1375
-3080.7267
-3093.4964
-3069.4241
-3042.6921
-3022.4076
-3003.5387
-2987.053
-2999.6598
-2995.8311
-2976.9422
-2951.6613
-2974.5983
-2992.0793
-3003.3183
-3010.7382
-3013.0013
-3020.0187
-3033.2654
-3035.7259
-3034.8623
-2997.9711
-3007.1044
-3020.7172
-3031.5174
-3038.7505
-3041.7999
-3051.3646
-3156.8904
-3164.6844
-3188.9177
-3187.4469
-3159.5471
-3131.756
-3111.0626
-3095.6697
-3080.2523
-3063.0195
-3141.9782
-3137.1435
-3129.6598
-3149.8309
-3150.4248
-3144.6321
-3138.4096
-3132.9745
-3126.9765
-3128.8788
-3162.7557
-3162.0351
-3137.7506
-3147.9047
-3159.3504
-3167.4865
-3171.9066
-3173.7104
-3173.0009
-3177.7023
-3277.1164
-3289.5197
-3285.469
-3271.1277
-3255.806
-3243.7651
-3235.0336
-3229.2399
-3222.4246
-3213.8642
-3282.489
-3286.5605
-3294.0151
-3285.9372
-3276.2942
-3270.7941
-3270.559
-3275.0001
-3280.0408
-3292.3432
-3186.325
-3172.215
-3189.5514
-3215.4283
-3244.9017
-3273.5986
-3300.5725
-3325.1454
-3345.2982
-3370.2634
-3326.0532
-3302.4341
-3312.0416
-3332.3492
-3359.1126
-3384.3605
-3406.826
-3425.2573
-3437.7757
-3453.4905
-3701.675
-3692.6556
-3661.9568
-3627.8858
-3602.8069
-3583.3217
-3571.2316
-3564.0737
-3557.9587
-3555.0926
-3016.6789
-3015.1533
-3009.7383
-2998.12
-2992.634
-2999.8928
-2999.53
-2994.1794
-2984.9472
-2983.9234
-3540.5383
-3549.1351
-3563.5694
-3610.8532
-3667.0288
-3718.8603
-3739.9425
-3721.8035
-3638.1028
-3466.2532
-3268.7586
-3268.9935
-3271.943
-3276.811
-3277.9218
-3277.0257
-3275.0644
-3269.9198
-3265.7621
-3219.2849
-3179.5263
-3227.5524
-3289.6669
-3394.3699
-3505.6952
-3592.5209
-3635.0766
-3595.2073
-3447.064
-3214.6351
-3480.277
-3490.3205
-3511.2513
-3547.9505
-3581.5988
-3610.2584
-3618.8295
-3618.3247
-3582.5466
-3470.1575
-3367.3453
-3371.7353
-3385.9149
-3409.8731
-3430.834
-3448.4899
-3456.6155
-3446.1966
-3433.5789
-3381.8274
11318.722
10715.546
10129.574
9489.9391
8832.8459
8179.539
7545.1802
6936.7837
6347.344
5770.3041
8301.8483
8224.5314
8101.2594
7839.6074
7501.7191
7111.2848
6689.6064
6254.5661
5816.3989
5360.001
-3709.5008
-3727.9364
-3745.3442
-3751.3105
-3759.9993
-3763.2636
-3768.059
-3771.4948
-3772.82
-3776.3117
-3705.852
-3709.7032
-3745.0495
-3776.2803
-3815.3392
-3842.5109
-3866.4373
-3882.4673
-3891.1148
-3895.3026
-3946.5155
-3939.2801
-3955.509
-3963.086
-3991.466
-4009.8457
-4029.6726
-4042.6489
-4048.0682
-4043.6183
-4222.4233
-4212.0683
-4226.3372
-4216.9236
-4232.9948
-4234.8766
-4241.3993
-4242.4479
-4238.8759
-4234.5148
-4544.8768
-4526.7371
-4538.4822
-4511.4471
-4515.2329
-4497.386
-4484.9279
-4464.9008
-4437.2334
-4404.8727
-4901.1055
-4873.8834
-4883.4904
-4837.0692
-4828.6372
-4790.1482
-4757.3174
-4713.8953
-4659.2257
-4599.0147
-5281.8496
-5243.3993
-5252.0394
-5185.2221
-5165.6719
-5107.5832
-5056.1878
-4992.7188
-4916.4635
-4831.1515
-5682.8602
-5630.7851
-5639.6099
-5550.5887
-5519.7719
-5441.5438
-5370.8775
-5288.4427
-5198.4687
-5115.9183
-6105.0441
-6035.9215
-6045.7706
-5931.7763
-5888.3057
-5787.8968
-5693.5293
-5583.5009
-5458.1877
-5322.5872
-6548.5004
-6458.4125
-6470.8433
-6329.1983
-6271.9441
-6149.0594
-6030.8964
-5896.7843
-5747.1782
-5585.4189
-7019.3414
-6902.2104
-6917.9745
-6744.4917
-6670.3455
-6522.7546
-6376.8532
-6214.6283
-6036.1369
-5850.2663
-7516.4403
-7366.2089
-7388.3263
-7179.887
-7085.7239
-6911.6634
-6733.8685
-6537.7861
-6319.1649
-6081.8848