/*--------------------------------*- C++ -*----------------------------------*\
| =========                 |                                                 |
| \\      /  F ield         | foam-extend: Open Source CFD                    |
|  \\    /   O peration     | Version:     4.1                                |
|   \\  /    A nd           | Web:         http://www.foam-extend.org         |
|    \\/     M anipulation  |                                                 |
\*---------------------------------------------------------------------------*/
FoamFile
{
    version     2.0;
    format      ascii;
    class       surfaceScalarField;
    location    "1.85";
    object      phi;
}
// * * * * * * * * * * * * * * * * * * * * * * * * * * * * * * * * * * * * * //

dimensions      [0 3 -1 0 0 0 0];

internalField   nonuniform List<scalar> 
8438
(
-0.59744055
0.0016735472
-0.5991794
0.0017388498
-0.60095317
0.0017737683
-0.60277086
0.001817691
-0.60464223
0.0018713724
-0.60657772
0.0019354892
-0.60858673
0.0020090102
-0.61067688
0.002090144
-0.61285327
0.0021763927
-0.61511783
0.0022645644
-0.6174686
0.0023507693
-0.61989906
0.0024304552
-0.62239757
0.0024985102
-0.62494702
0.0025494544
-0.62752474
0.0025777173
-0.63010274
0.0025780011
-0.63264832
0.0025455807
-0.63512492
0.0024766037
-0.63749314
0.0023682193
-0.63971171
0.0022185702
-0.64173843
0.002026717
-0.64353098
0.0017925459
-0.64504773
0.0015167503
-0.64624868
0.0012009514
-0.64709669
0.00084801059
-0.64755923
0.00046254475
-0.64761054
5.1308847e-05
-0.64723324
-0.0003773075
-0.64642232
-0.00081091488
-0.64518928
-0.0012330445
-0.64356299
-0.0016262887
-0.64158951
-0.0019734783
-0.63932991
-0.0022595942
-0.63685625
-0.0024736687
-0.63424625
-0.0026099983
-0.63157786
-0.0026683852
-0.62892438
-0.0026534786
-0.62635086
-0.0025735271
-0.62391195
-0.0024389089
-0.6216512
-0.0022607526
-0.61960136
-0.0020498378
-0.61778552
-0.0018158413
-0.61621861
-0.001566903
-0.61490908
-0.001309536
-0.61385998
-0.0010490977
-0.61306952
-0.00079045594
-0.61253402
-0.00053550822
-0.6122586
-0.00027541765
-1.3647565e-05
-0.61123275
0.0031392836
-0.61269188
0.0031979763
-0.61417817
0.0032600562
-0.61570488
0.0033444035
-0.61728447
0.003450959
-0.61892813
0.0035791558
-0.62064573
0.0037266051
-0.62244521
0.0038896305
-0.62433205
0.004063225
-0.62630849
0.0042410042
-0.62837289
0.0044151735
-0.63051902
0.0045765835
-0.63273544
0.0047149283
-0.63500511
0.0048191282
-0.63730529
0.0048778952
-0.63960777
0.0048804816
-0.6418795
0.0048173131
-0.64408351
0.0046806077
-0.64617993
0.00446464
-0.64812707
0.0041657092
-0.64988231
0.003781958
-0.65140292
0.0033131549
-0.6526468
0.0027606336
-0.65357337
0.0021275268
-0.65414475
0.0014193838
-0.65432738
0.00064517671
-0.65409457
-0.00018150444
-0.65343047
-0.0010414079
-0.65233195
-0.0019094348
-0.65080993
-0.0027550571
-0.64889248
-0.0035437371
-0.64662534
-0.0042406229
-0.64406991
-0.0048150267
-0.64129905
-0.0052445241
-0.63839154
-0.0055175136
-0.63542622
-0.0056336989
-0.63247703
-0.0056026765
-0.62960924
-0.0054413171
-0.62687743
-0.0051707186
-0.6243248
-0.0048133821
-0.62198365
-0.0043909853
-0.61987661
-0.0039228769
-0.61801827
-0.0034252478
-0.61641681
-0.0029109919
-0.61507556
-0.0023903517
-0.61399476
-0.0018712586
-0.6131739
-0.0013563624
-0.61260473
-0.00084459341
-0.00037357309
-0.61227828
0.0045548844
-0.61369215
0.0046118511
-0.61513086
0.0046987691
-0.61660937
0.0048229114
-0.61814097
0.004982561
-0.61973747
0.0051756557
-0.6214092
0.0053983375
-0.62316463
0.0056450583
-0.62500977
0.005908362
-0.6269475
0.0061787323
-0.62897682
0.0064444991
-0.63109213
0.0066918911
-0.63328251
0.0069053113
-0.63553129
0.0070679065
-0.63781584
0.0071624407
-0.64010783
0.0071724719
-0.64237389
0.0070833775
-0.64457662
0.0068833358
-0.64667571
0.0065637304
-0.64862906
0.0061190605
-0.65039369
0.0055465887
-0.65192647
0.0048459277
-0.65318472
0.0040188838
-0.65412697
0.003069777
-0.65471396
0.0020063817
-0.6549103
0.00084151588
-0.65468684
-0.00040496851
-0.65402351
-0.0017047398
-0.65291286
-0.0030200844
-0.65136383
-0.0043040813
-0.64940434
-0.0055032336
-0.64708182
-0.0065631363
-0.64446113
-0.0074357213
-0.64161967
-0.0080859876
-0.63864102
-0.0084961571
-0.63560837
-0.0086663525
-0.63259887
-0.008612178
-0.62967978
-0.0083604047
-0.62690642
-0.0079440731
-0.62432176
-0.0073980456
-0.62195717
-0.00675558
-0.61983397
-0.0060460772
-0.61796529
-0.0052939244
-0.61635794
-0.0045183439
-0.61501429
-0.0037340008
-0.61393449
-0.0029510529
-0.61311683
-0.0021740312
-0.61255277
-0.0014086478
-0.0006813936
-0.61263513
0.005941101
-0.61402864
0.0060053581
-0.61544763
0.0061177594
-0.61690706
0.0062823381
-0.61842069
0.0064961928
-0.62000103
0.0067560002
-0.6216592
0.007056501
-0.62340449
0.0073903488
-0.62524383
0.0077477072
-0.62718106
0.0081159642
-0.62921611
0.0084795467
-0.63134416
0.0088199377
-0.63355485
0.009116004
-0.63583169
0.0093447476
-0.63815177
0.0094825195
-0.640486
0.0095067057
-0.64279987
0.0093972482
-0.64505461
0.0091380724
-0.64720853
0.0087176496
-0.64921826
0.0081287873
-0.65103967
0.0073679981
-0.65262851
0.0064347709
-0.65394085
0.0053312235
-0.65493353
0.0040624612
-0.65556501
0.0026378554
-0.6557968
0.0010733065
-0.65559594
-0.00060582882
-0.6549383
-0.0023623727
-0.65381274
-0.0041456522
-0.65222562
-0.0058912018
-0.65020453
-0.0075243165
-0.64779956
-0.0089681131
-0.64508092
-0.010154354
-0.64213327
-0.011033642
-0.63904783
-0.011581599
-0.63591453
-0.011799648
-0.63281557
-0.011711143
-0.62982116
-0.011354814
-0.62698766
-0.010777568
-0.62435755
-0.010028155
-0.62196069
-0.0091524397
-0.61981634
-0.0081904329
-0.61793536
-0.0071748977
-0.61632246
-0.0061312434
-0.61497831
-0.0050781504
-0.61390148
-0.0040278895
-0.61308836
-0.0029871536
-0.61253355
-0.001963448
-0.00096999858
-0.61305964
0.0073002671
-0.61442992
0.0073756404
-0.61582665
0.0075144863
-0.61726496
0.0077206554
-0.61875913
0.007990361
-0.62032244
0.0083193089
-0.62196695
0.0087010047
-0.62370304
0.0091264479
-0.62553888
0.0095835403
-0.62747955
0.010056641
-0.62952625
0.010526248
-0.63167526
0.010968939
-0.63391697
0.011357714
-0.63623513
0.011662913
-0.63860642
0.011853811
-0.64100065
0.011900932
-0.64338163
0.01177823
-0.64570866
0.011465096
-0.64793811
0.010947109
-0.65002494
0.01021561
-0.65192356
0.0092666241
-0.65358842
0.0080996318
-0.65497409
0.0067168899
-0.65603538
0.0051237533
-0.65672783
0.0033303028
-0.65700892
0.0013543948
-0.65684053
-0.00077421907
-0.65619277
-0.003010134
-0.65504887
-0.0052895455
-0.65341119
-0.0075288868
-0.65130648
-0.0096290235
-0.64878834
-0.011486251
-0.64593473
-0.013007964
-0.64284072
-0.014127654
-0.63960853
-0.014813792
-0.63633766
-0.015070518
-0.63311722
-0.01493158
-0.63002134
-0.014450694
-0.62710752
-0.013691386
-0.62441728
-0.012718401
-0.62197815
-0.011591573
-0.61980637
-0.010362213
-0.61790966
-0.0090716074
-0.61628981
-0.0077510873
-0.61494507
-0.0064228882
-0.61387184
-0.0051011207
-0.61306518
-0.0037938172
-0.61252118
-0.0025074519
-0.0012463736
-0.61359684
0.0086271962
-0.61493746
0.0087162618
-0.61630589
0.0088829128
-0.61771743
0.0091321949
-0.61918692
0.0094598489
-0.62072854
0.0098609321
-0.6223555
0.010327959
-0.62407954
0.010850494
-0.62591037
0.011414364
-0.62785474
0.012001019
-0.62991552
0.012587028
-0.63209047
0.013143889
-0.63437109
0.013638325
-0.63674151
0.014033333
-0.6391779
0.014290209
-0.64164862
0.014371646
-0.64411522
0.014244832
-0.64653437
0.013884247
-0.64885992
0.01327266
-0.65104465
0.012400344
-0.65304132
0.011263289
-0.6548029
0.0098612099
-0.65628234
0.0081963327
-0.65743215
0.0062735655
-0.65820433
0.0041024797
-0.65855122
0.0017012897
-0.65842796
-0.00089748731
-0.65779678
-0.0036413086
-0.65663298
-0.0064533473
-0.65493279
-0.0092290775
-0.65272123
-0.011840586
-0.65005635
-0.014151132
-0.64702671
-0.016037598
-0.64374191
-0.017412457
-0.64031933
-0.018236377
-0.6368714
-0.01851844
-0.63349629
-0.018306689
-0.63027288
-0.017674111
-0.62725966
-0.016704606
-0.62449638
-0.01548168
-0.62200711
-0.014080839
-0.61980385
-0.012565471
-0.61788998
-0.010985478
-0.61626332
-0.0093777463
-0.61491869
-0.0077675184
-0.61384964
-0.0061701696
-0.61304957
-0.0045938933
-0.61251419
-0.0030428274
-0.0015156164
-0.61424986
0.0099181468
-0.61555488
0.010021284
-0.61688861
0.01021664
-0.61826706
0.01051064
-0.61970584
0.010898633
-0.62122021
0.011375303
-0.62282472
0.011932462
-0.62453276
0.012558537
-0.62635594
0.013237547
-0.62830315
0.013948225
-0.63037938
0.014663264
-0.6325844
0.01534891
-0.63491121
0.01596513
-0.6373446
0.01646672
-0.63986017
0.016805784
-0.64242437
0.016935847
-0.64499578
0.016816236
-0.64752756
0.016416032
-0.64997028
0.015715384
-0.65227411
0.014704167
-0.65438991
0.013379094
-0.65626928
0.011740576
-0.65786364
0.0097906906
-0.65912311
0.0075330429
-0.65999571
0.0049750774
-0.66042757
0.0021331532
-0.66036522
-0.0009598437
-0.65976045
-0.004246076
-0.65857744
-0.0076363605
-0.6568033
-0.011003214
-0.65445964
-0.014184245
-0.65160988
-0.017000896
-0.64835687
-0.019290608
-0.64483008
-0.020939246
-0.64116745
-0.021899009
-0.6374985
-0.022187391
-0.63393278
-0.0218724
-0.63055465
-0.021052248
-0.62742308
-0.019836178
-0.62457483
-0.018329925
-0.62202903
-0.01662664
-0.61979194
-0.014802559
-0.6178613
-0.012916124
-0.61622984
-0.0110092
-0.61488807
-0.0091092872
-0.61382606
-0.0072321795
-0.61303484
-0.0053851147
-0.61250836
-0.0035693047
-0.00177903
-0.61501314
0.011164679
-0.61627531
0.011283454
-0.61756755
0.011508882
-0.61890629
0.011849385
-0.620308
0.012300342
-0.62178911
0.012856414
-0.62336573
0.013509079
-0.6250532
0.014246009
-0.62686545
0.015049791
-0.62881396
0.015896736
-0.63090649
0.016755793
-0.6331454
0.017587822
-0.63552577
0.018345502
-0.63803342
0.018974371
-0.64064338
0.019415743
-0.64331966
0.019612125
-0.64601687
0.019513452
-0.64868358
0.019082737
-0.65126609
0.01829789
-0.6537114
0.017149485
-0.65596849
0.015636176
-0.65798778
0.013759873
-0.6597196
0.011522504
-0.66111191
0.0089253558
-0.66210848
0.0059716526
-0.66264824
0.0026729066
-0.66266702
-0.00094106383
-0.66210303
-0.0048100637
-0.66090517
-0.0088342222
-0.65904706
-0.012861316
-0.65654406
-0.016687247
-0.65346569
-0.020079269
-0.64993397
-0.022822327
-0.64610555
-0.024767669
-0.64214604
-0.025858521
-0.63820719
-0.026126236
-0.63441255
-0.025667038
-0.63085226
-0.024612539
-0.62758465
-0.023103785
-0.62464163
-0.021272946
-0.6220353
-0.019232972
-0.61976431
-0.017073552
-0.61781916
-0.014861272
-0.6161863
-0.012642062
-0.61485101
-0.01044458
-0.6137993
-0.0082838843
-0.6130193
-0.0061651188
-0.61250256
-0.0040860371
-0.0020367942
-0.61588775
0.012363391
-0.61710108
0.012496789
-0.61834495
0.012752749
-0.61963691
0.01314134
-0.62099446
0.013657891
-0.62243538
0.014297337
-0.62397755
0.015051246
-0.62563856
0.015907022
-0.62743509
0.016846325
-0.62938184
0.017843478
-0.63148999
0.018863948
-0.63376532
0.019863156
-0.63620577
0.020785952
-0.63879876
0.021567354
-0.64151882
0.022135805
-0.64432692
0.022420224
-0.64717243
0.022358963
-0.64999775
0.021908055
-0.65274369
0.021043837
-0.65535354
0.019759326
-0.6577744
0.018057039
-0.6599562
0.015941679
-0.66184894
0.013415239
-0.66339911
0.010475525
-0.66454634
0.0071188839
-0.66522144
0.0033480046
-0.66534732
-0.00081518447
-0.66484467
-0.0053127113
-0.6636416
-0.010037291
-0.6616919
-0.014811017
-0.65899989
-0.019379258
-0.65564151
-0.023437642
-0.65176458
-0.026699261
-0.64756312
-0.02896913
-0.6432401
-0.030181545
-0.63897601
-0.030390324
-0.63491112
-0.029731924
-0.63114113
-0.028382534
-0.62772167
-0.026523241
-0.62467705
-0.024317569
-0.62200961
-0.021900405
-0.61970805
-0.019375112
-0.61775381
-0.01681552
-0.61612565
-0.014270219
-0.61480272
-0.011767508
-0.61376636
-0.0093202456
-0.61300126
-0.0069302189
-0.61249631
-0.0045909883
-0.0022881508
-0.61686708
0.013502364
-0.61802285
0.013652558
-0.61921059
0.013940493
-0.6204481
0.014378856
-0.62175383
0.014963613
-0.62314694
0.015690448
-0.62464724
0.016551552
-0.62627491
0.017534692
-0.62804985
0.018621261
-0.6299906
0.01978423
-0.63211267
0.020986021
-0.63442623
0.022176718
-0.63693313
0.023292852
-0.63962326
0.024257479
-0.64247093
0.024983473
-0.64543328
0.025382573
-0.64845267
0.025378354
-0.65146317
0.024918561
-0.65439841
0.023979069
-0.65719717
0.022558086
-0.65980508
0.020664955
-0.6621726
0.018309199
-0.66425078
0.015493417
-0.66598594
0.012210681
-0.6673142
0.0084471476
-0.66815767
0.0041914704
-0.66842399
-0.00054886354
-0.66801159
-0.0057251039
-0.66682065
-0.011228237
-0.66477595
-0.016855716
-0.66186291
-0.022292303
-0.65816316
-0.027137393
-0.65385945
-0.03100297
-0.64919792
-0.033630652
-0.64443224
-0.034947224
-0.63977988
-0.035042686
-0.63540048
-0.03411133
-0.63139392
-0.032389091
-0.62780975
-0.030107409
-0.6246607
-0.027466618
-0.62193578
-0.024625331
-0.61961082
-0.021700072
-0.61765611
-0.018770231
-0.61604135
-0.015884977
-0.61473865
-0.013070204
-0.61372414
-0.010334755
-0.61297875
-0.0076756185
-0.61248854
-0.0050811957
-0.0025317384
-0.61795011
0.01458088
-0.61904282
0.01474526
-0.62016719
0.015064871
-0.62134248
0.015554141
-0.62258823
0.016209363
-0.62392512
0.017027335
-0.62537504
0.018001471
-0.626961
0.019120658
-0.62870665
0.020366905
-0.63063512
0.0217127
-0.63276724
0.023118139
-0.63511882
0.024528301
-0.63769705
0.025871082
-0.6404956
0.027056031
-0.64348914
0.027977017
-0.64663013
0.028523555
-0.64985148
0.028599707
-0.6530759
0.028142981
-0.65622741
0.02713058
-0.65923953
0.025570204
-0.6620571
0.023482527
-0.66463282
0.020884914
-0.66692095
0.017781548
-0.66886975
0.014159483
-0.67041326
0.0099906558
-0.67146465
0.0052428701
-0.67191428
-9.9239104e-05
-0.67163243
-0.0060069501
-0.67048217
-0.012378502
-0.6683463
-0.018991586
-0.66517831
-0.025460294
-0.66106255
-0.031253146
-0.6562297
-0.035835821
-0.65099987
-0.038860485
-0.64569614
-0.04025095
-0.64058336
-0.040155475
-0.63584258
-0.038852104
-0.63157471
-0.036656966
-0.62781772
-0.033864395
-0.6245672
-0.030717136
-0.62179412
-0.027398413
-0.61945802
-0.024036175
-0.61751569
-0.020712556
-0.61592634
-0.017474325
-0.61465425
-0.014342295
-0.61366992
-0.011319088
-0.61295032
-0.0083952212
-0.61247874
-0.0055527704
-0.002765681
-0.61913355
0.015581999
-0.62015232
0.015764034
-0.62120426
0.016116808
-0.62230824
0.01665812
-0.62348456
0.017385684
-0.62475529
0.018298069
-0.6261445
0.019390677
-0.62767831
0.020654466
-0.62938459
0.022073186
-0.63129194
0.023620058
-0.63342773
0.025253928
-0.63581501
0.026915582
-0.63846823
0.028524296
-0.64138684
0.029974639
-0.64454704
0.031137219
-0.64789565
0.03187217
-0.65135279
0.032056841
-0.65482523
0.031615426
-0.65822392
0.030529263
-0.66147593
0.028822218
-0.6645265
0.0265331
-0.66733306
0.023691471
-0.66985615
0.020304642
-0.67204919
0.016352519
-0.67384673
0.011788194
-0.67515361
0.0065497488
-0.6758396
0.00058675166
-0.67574198
-0.0061045643
-0.67467682
-0.013443668
-0.67246549
-0.021202914
-0.66900812
-0.028917658
-0.66438406
-0.035877211
-0.65889049
-0.041329392
-0.65295501
-0.044795963
-0.6469968
-0.046209157
-0.64134093
-0.045811351
-0.63619033
-0.044002697
-0.63164059
-0.041206715
-0.62770971
-0.037795274
-0.6243684
-0.034058448
-0.62156365
-0.030203156
-0.61923469
-0.026365137
-0.61732237
-0.02262488
-0.61577403
-0.019022657
-0.61454554
-0.015570793
-0.61360155
-0.012263071
-0.61291513
-0.009081646
-0.61246693
-0.0060009682
-0.0029876608
-0.62040723
0.016509462
-0.62134768
0.016704485
-0.62231988
0.017089011
-0.6233443
0.017682537
-0.62444217
0.018483556
-0.62563693
0.019492832
-0.62695482
0.020708568
-0.62842526
0.022124908
-0.63008083
0.023728756
-0.63195647
0.025495689
-0.63408743
0.027384889
-0.63650591
0.029334067
-0.63923608
0.031254468
-0.64228607
0.033024623
-0.64563567
0.03448682
-0.64922517
0.035461673
-0.65295699
0.035788665
-0.65671528
0.035373707
-0.66039272
0.034206706
-0.66390871
0.032338215
-0.66721113
0.029835511
-0.67026613
0.026746474
-0.6730451
0.023083618
-0.67551141
0.01881882
-0.67760444
0.013881233
-0.67922277
0.0081680748
-0.68021404
0.0015780216
-0.68037576
-0.0059428497
-0.67946337
-0.014356055
-0.67721195
-0.023454333
-0.67343371
-0.0326959
-0.66818544
-0.041125483
-0.66185772
-0.047657111
-0.65503895
-0.051614727
-0.64828268
-0.052965435
-0.64198963
-0.052104391
-0.63638146
-0.049610875
-0.63153698
-0.046051187
-0.6274416
-0.041890656
-0.62403067
-0.037469383
-0.62121989
-0.033013932
-0.61892365
-0.028661375
-0.61706445
-0.024484087
-0.61557672
-0.020510385
-0.61440758
-0.016739927
-0.61351601
-0.01315464
-0.6128714
-0.0097262585
-0.61245211
-0.0064202586
-0.0031949717
-0.62177491
0.017340277
-0.62262384
0.017553419
-0.62350589
0.017971062
-0.62444014
0.018616784
-0.62544799
0.019491404
-0.62655388
0.020598727
-0.62778609
0.021940771
-0.62917738
0.023516202
-0.63076546
0.025316834
-0.63259253
0.02732276
-0.63470341
0.029495768
-0.63714181
0.031772469
-0.63994491
0.034057572
-0.64313386
0.03621357
-0.64669603
0.038048993
-0.650565
0.039330643
-0.65461888
0.039842541
-0.65870912
0.039463947
-0.66270259
0.038200172
-0.6665093
0.036144927
-0.67008329
0.0334095
-0.67340493
0.030068116
-0.67646192
0.026140607
-0.67923347
0.021590373
-0.68167008
0.016317846
-0.68366807
0.010166056
-0.68505223
0.0029621878
-0.68557385
-0.0054212366
-0.68491418
-0.015015724
-0.68268951
-0.025678998
-0.67856888
-0.036816534
-0.67254897
-0.047145393
-0.66515192
-0.055054157
-0.65721544
-0.059551213
-0.64948249
-0.060698383
-0.64244683
-0.059140044
-0.63633816
-0.055719549
-0.63119904
-0.051190306
-0.62696358
-0.046126119
-0.623518
-0.040914961
-0.62073806
-0.035793875
-0.6185086
-0.030890829
-0.61673169
-0.026260998
-0.61532831
-0.021913764
-0.61423708
-0.017831161
-0.61341178
-0.013979939
-0.61281874
-0.010319295
-0.61243456
-0.0068044379
-0.0033845858
-0.62320323
0.018083421
-0.62395754
0.018307732
-0.62474214
0.018755664
-0.62557752
0.019452162
-0.62648542
0.020399306
-0.62749111
0.021604417
-0.62862469
0.023074343
-0.62992225
0.02481377
-0.63142692
0.026821503
-0.63318908
0.029084918
-0.63526489
0.031571576
-0.63771234
0.034219917
-0.64058559
0.036930825
-0.64392473
0.03955271
-0.64773124
0.041855507
-0.65193283
0.043532227
-0.65637328
0.044282993
-0.66085515
0.043945813
-0.66520707
0.042552092
-0.66932716
0.040265023
-0.67318168
0.037264021
-0.67677383
0.033660265
-0.68011558
0.029482354
-0.6832109
0.024685697
-0.68603219
0.019139138
-0.68848207
0.012615931
-0.69036381
0.004843928
-0.69137624
-0.0044088031
-0.6911129
-0.015279062
-0.6890316
-0.027760305
-0.68457142
-0.041276707
-0.67759101
-0.054125807
-0.6687954
-0.063849763
-0.65942564
-0.068920976
-0.65049275
-0.069631275
-0.6426001
-0.067032693
-0.63596038
-0.062359273
-0.63054753
-0.056603153
-0.62621766
-0.05045599
-0.62279034
-0.044342276
-0.62009169
-0.038492524
-0.61797269
-0.033009838
-0.61631369
-0.027919991
-0.61502256
-0.023204892
-0.61403035
-0.018823373
-0.61328674
-0.014723552
-0.61275596
-0.010850076
-0.6124136
-0.0071467921
-0.0035532399
-0.62472708
0.018710042
-0.62537227
0.018952916
-0.62604895
0.019432347
-0.62677469
0.020177901
-0.62757026
0.021194878
-0.62846095
0.022495107
-0.62947806
0.024091452
-0.63066057
0.025996283
-0.63205686
0.028217793
-0.63372606
0.030754116
-0.63573745
0.033582967
-0.63816646
0.036648929
-0.64108903
0.039853388
-0.64457238
0.043036065
-0.64864358
0.045926704
-0.65322924
0.048117892
-0.65812576
0.049179507
-0.66306258
0.048882633
-0.66781247
0.047301985
-0.67226013
0.044712687
-0.67639596
0.041399854
-0.68025967
0.037523973
-0.6838967
0.033119381
-0.68734437
0.028133368
-0.69060941
0.022404175
-0.6936115
0.015618027
-0.69613383
0.0073662492
-0.69781637
-0.0027262584
-0.69815453
-0.014940907
-0.69641066
-0.029504172
-0.6916665
-0.046020868
-0.68348552
-0.062306788
-0.67281348
-0.074521802
-0.6615772
-0.080157249
-0.65116505
-0.080043425
-0.64229917
-0.075898578
-0.63512294
-0.069535502
-0.62948969
-0.062236405
-0.62514041
-0.054805262
-0.62180691
-0.047675783
-0.61925588
-0.041043553
-0.61730137
-0.034964349
-0.61580236
-0.029418997
-0.61465519
-0.024352061
-0.61378527
-0.019693296
-0.61313991
-0.015368914
-0.61268265
-0.011307338
-0.61238911
-0.0074403254
-0.003697552
-0.62625589
0.019233868
-0.62678971
0.01948673
-0.62735063
0.019993272
-0.62795676
0.020784024
-0.62862792
0.021866045
-0.62938899
0.023256169
-0.63027197
0.024974438
-0.63131837
0.027042684
-0.63258176
0.029481181
-0.63413066
0.03230302
-0.63604971
0.035502008
-0.63843585
0.039035072
-0.64139263
0.042810166
-0.64502507
0.046668506
-0.64940444
0.050306078
-0.65446826
0.05318171
-0.65994623
0.054657479
-0.66545348
0.054389881
-0.67067599
0.052524497
-0.67547984
0.049516532
-0.6798966
0.045816614
-0.68402043
0.041647809
-0.6879385
0.037037452
-0.69172939
0.031924256
-0.69545501
0.02612979
-0.69907761
0.019240634
-0.70237453
0.010663169
-0.70493035
-0.00017044088
-0.7061375
-0.013733752
-0.70503996
-0.030601718
-0.70017647
-0.050884355
-0.69050268
-0.071980577
-0.67723132
-0.087793159
-0.66352212
-0.093866456
-0.65128384
-0.092281703
-0.64134296
-0.085839463
-0.63367104
-0.077207417
-0.62791964
-0.067987802
-0.62366544
-0.05905947
-0.62052897
-0.050812253
-0.6182096
-0.043362916
-0.6164842
-0.036689755
-0.61519312
-0.030710077
-0.61422464
-0.025320542
-0.61350166
-0.020416267
-0.61297165
-0.015898925
-0.6125993
-0.011679689
-0.61236157
-0.0076780597
-0.0038141696
-0.62788246
0.019620728
-0.62829051
0.019894777
-0.62872687
0.020429634
-0.62920461
0.021261762
-0.62974088
0.022402311
-0.6303589
0.023874196
-0.63109024
0.025705779
-0.63197759
0.027930025
-0.63307831
0.030581901
-0.63446929
0.033694007
-0.63625113
0.037283848
-0.63854566
0.041329604
-0.64148921
0.045753712
-0.64523557
0.050414868
-0.64992839
0.054998897
-0.65554376
0.058797079
-0.66172004
0.060833759
-0.66789152
0.060561359
-0.67361221
0.058245194
-0.6787276
0.054631918
-0.68334867
0.050437685
-0.6876616
0.045960734
-0.69181144
0.041187294
-0.69592733
0.036040145
-0.7001579
0.030360362
-0.70454427
0.023627001
-0.7088697
0.014988606
-0.71262547
0.0035853215
-0.71509975
-0.01125947
-0.71514591
-0.030555556
-0.71054255
-0.055487713
-0.69906483
-0.083458298
-0.6820562
-0.10480179
-0.66501584
-0.11090682
-0.65053147
-0.10676607
-0.63946193
-0.096909003
-0.63141562
-0.085253728
-0.62572012
-0.073683296
-0.62172681
-0.063052779
-0.61892293
-0.053616134
-0.61693776
-0.04534809
-0.61551569
-0.038111821
-0.61448493
-0.031740836
-0.61373153
-0.026073945
-0.61318045
-0.02096735
-0.61278258
-0.016296795
-0.61250607
-0.011956194
-0.61233073
-0.0078534032
-0.0038999486
-0.62933612
0.019882603
-0.62961505
0.020173708
-0.62991724
0.020731825
-0.63025365
0.021598169
-0.63063808
0.02278674
-0.63109092
0.024327034
-0.63164179
0.026256651
-0.63233307
0.028621301
-0.63322452
0.03147335
-0.63440046
0.034869955
-0.63597883
0.038862215
-0.63811251
0.043463282
-0.64097956
0.048620761
-0.64479588
0.054231186
-0.64982093
0.060023955
-0.65613225
0.065108399
-0.66324976
0.067951263
-0.67030948
0.067621087
-0.67665905
0.064594762
-0.682114
0.060086871
-0.68692645
0.055250132
-0.69142548
0.050459769
-0.69581657
0.045578378
-0.70025336
0.040476933
-0.70499384
0.035100843
-0.71020126
0.028834421
-0.71569637
0.020483725
-0.72088179
0.0087707337
-0.72496898
-0.0071722801
-0.72679954
-0.028724988
-0.72323169
-0.059055568
-0.70979725
-0.096892741
-0.68723397
-0.12736506
-0.66565415
-0.13248664
-0.64844072
-0.12397951
-0.63630031
-0.10904941
-0.62813505
-0.093418985
-0.62277141
-0.079046938
-0.61926873
-0.066555461
-0.61696814
-0.055916721
-0.6154368
-0.046879429
-0.61439935
-0.039149273
-0.61368323
-0.032456957
-0.61318089
-0.026576284
-0.61282538
-0.021322857
-0.61257507
-0.016547103
-0.61240418
-0.012127083
-0.61229701
-0.0079605781
-0.0039521573
-0.63049042
0.019981263
-0.63061996
0.020303253
-0.63077096
0.020882821
-0.63094776
0.021774968
-0.63115937
0.022998355
-0.63142235
0.024590013
-0.63176315
0.026597445
-0.63222213
0.029080286
-0.63285915
0.032110365
-0.63376257
0.035773377
-0.63506449
0.040164138
-0.63695065
0.045349436
-0.63964601
0.051316129
-0.64343018
0.058015351
-0.64872248
0.065316261
-0.65582167
0.07220759
-0.66410917
0.07623876
-0.67220474
0.075716655
-0.67914501
0.071535027
-0.68470194
0.065643803
-0.68939203
0.059940228
-0.69377764
0.054845378
-0.6981373
0.049938038
-0.70259993
0.044939557
-0.70761178
0.040112697
-0.71359349
0.034816126
-0.72050239
0.027392625
-0.72773193
0.016000274
-0.7342792
-0.00062500711
-0.73920308
-0.023801107
-0.73833169
-0.059926962
-0.72349544
-0.11172899
-0.69248306
-0.15837744
-0.66469647
-0.16027324
-0.64430088
-0.14437509
-0.63139125
-0.12195904
-0.62358298
-0.10122726
-0.6189666
-0.08366332
-0.61625848
-0.069263577
-0.61466561
-0.057509594
-0.61371994
-0.047825094
-0.61315046
-0.039718754
-0.61280128
-0.032806135
-0.61258279
-0.026794782
-0.61244339
-0.021462255
-0.61235344
-0.016637052
-0.61229599
-0.012184532
-0.61226149
-0.0079950816
-0.003968694
-0.63007862
0.019880053
-0.63002807
0.02025271
-0.62999544
0.020850193
-0.62997637
0.021755894
-0.62997288
0.022994866
-0.62999491
0.024612039
-0.63006174
0.026664273
-0.63020631
0.029224862
-0.63048162
0.032385674
-0.63097121
0.036262962
-0.63181149
0.041004423
-0.63321973
0.046757671
-0.635482
0.053578396
-0.63894666
0.061480016
-0.64423987
0.070609471
-0.6521352
0.080102926
-0.66194764
0.086051193
-0.67134974
0.08511876
-0.67893495
0.079120238
-0.68436539
0.071074244
-0.68865591
0.064230748
-0.69275076
0.058940225
-0.69705103
0.054238306
-0.70151373
0.049402261
-0.70683785
0.045436817
-0.71385862
0.041836891
-0.72259591
0.036129912
-0.73261896
0.026023325
-0.74190438
0.0086604155
-0.7505298
-0.01517568
-0.75421867
-0.0562381
-0.74047661
-0.12547105
-0.6964205
-0.20243354
-0.66055567
-0.19613807
-0.63703493
-0.16789583
-0.6241536
-0.13484038
-0.61751698
-0.10786388
-0.61423901
-0.086941284
-0.61270458
-0.070798012
-0.61204775
-0.058166425
-0.61182142
-0.048051421
-0.61179737
-0.039742805
-0.61186
-0.032743506
-0.61195141
-0.026703371
-0.61204331
-0.021370353
-0.61212256
-0.016557804
-0.61218362
-0.012123476
-0.61222455
-0.007954143
-0.0039482978
-0.6261839
0.019548654
-0.62589623
0.019965043
-0.62560441
0.020558371
-0.62530185
0.021453336
-0.62498326
0.022676272
-0.62464991
0.02427869
-0.62431067
0.026325031
-0.62398687
0.028901066
-0.62372008
0.032118883
-0.62358371
0.036126591
-0.62371027
0.041130981
-0.62434512
0.047392528
-0.6258581
0.05509137
-0.62866643
0.064288347
-0.6335593
0.075502346
-0.64216233
0.088705953
-0.65403754
0.097926397
-0.66487379
0.095955019
-0.67275699
0.087003434
-0.67707065
0.0753879
-0.67991023
0.067070329
-0.68282174
0.06185174
-0.68642863
0.057845197
-0.69004491
0.053018537
-0.69450579
0.049897702
-0.70161385
0.048944947
-0.71115673
0.045672791
-0.72409844
0.038965041
-0.73556619
0.020128157
-0.74986061
-0.0008812583
-0.76244932
-0.043649385
-0.75916561
-0.12875477
-0.69459054
-0.26700861
-0.65073428
-0.23999432
-0.62530394
-0.19332617
-0.61396268
-0.14618164
-0.60976313
-0.11206343
-0.60860982
-0.088094603
-0.60868415
-0.070723678
-0.60919203
-0.057658539
-0.60980281
-0.04744065
-0.61038441
-0.039161199
-0.6108895
-0.032238417
-0.61130626
-0.026286613
-0.61163706
-0.021039555
-0.61188908
-0.01630578
-0.61207022
-0.01194234
-0.61218723
-0.0078371253
-0.0038907317
-0.6127665
0.018729485
-0.61203623
0.019234773
-0.61128978
0.01981192
-0.61050028
0.020663839
-0.60965003
0.021826017
-0.60872696
0.023355619
-0.60772277
0.025320843
-0.60663683
0.027815126
-0.60548364
0.030965689
-0.60430261
0.034945562
-0.6031806
0.040008974
-0.60232605
0.046537972
-0.60215347
0.054918792
-0.60313625
0.065271131
-0.60601266
0.07837875
-0.61372645
0.096419751
-0.62752706
0.111727
-0.63868971
0.10711767
-0.64545619
0.09376991
-0.64634377
0.076275485
-0.64573612
0.066462674
-0.64567301
0.06178863
-0.64727995
0.059452143
-0.6483116
0.054050176
-0.64944491
0.051031015
-0.65616976
0.055669799
-0.66607505
0.055578076
-0.68384055
0.056730549
-0.69888818
0.035175786
-0.72786015
0.028090707
-0.75027191
-0.021237622
-0.77323442
-0.10579226
-0.67715854
-0.36308449
-0.63076766
-0.2863852
-0.60622331
-0.21787052
-0.59992085
-0.1524841
-0.60026618
-0.11171809
-0.60224902
-0.086111768
-0.60437341
-0.068599283
-0.60623187
-0.05580008
-0.60775545
-0.045917074
-0.60897156
-0.037945091
-0.60992819
-0.031281785
-0.61067129
-0.02554351
-0.611239
-0.02047185
-0.61166107
-0.015883708
-0.61195982
-0.011643595
-0.61215113
-0.0076458128
-0.0037969095
-0.58477949
0.017486034
-0.5835101
0.017965384
-0.58214146
0.018443285
-0.58066936
0.019191733
-0.57906756
0.020224217
-0.57730519
0.021593249
-0.57534562
0.023361276
-0.57314901
0.025618515
-0.57067777
0.028494447
-0.56790471
0.032172503
-0.56482854
0.036932803
-0.56155654
0.043265973
-0.55853272
0.051894971
-0.55652766
0.063266077
-0.55614862
0.077999703
-0.56153142
0.10180256
-0.58049226
0.13068784
-0.59265599
0.1192814
-0.59890949
0.10002341
-0.59405177
0.071417765
-0.58776363
0.060174533
-0.58244257
0.056467582
-0.58157531
0.05858489
-0.57952811
0.05200297
-0.57387624
0.045379144
-0.58519471
0.032529502
-0.59561976
0.037439003
-0.60467995
0.040313255
-0.60342508
0.020480305
-0.6352511
0.039878424
-0.71434575
0.019774548
-0.66918681
-0.054713821
-0.60685824
-0.22710691
-0.57379935
-0.31944408
-0.57150802
-0.22016185
-0.58113688
-0.14285525
-0.58945237
-0.1034026
-0.59561862
-0.079945513
-0.60008654
-0.06413137
-0.60336088
-0.052525738
-0.60579623
-0.043481718
-0.60762935
-0.036111978
-0.60901858
-0.029892551
-0.61007177
-0.024490321
-0.61086356
-0.019680061
-0.61144608
-0.015301185
-0.61185565
-0.011234021
-0.61211694
-0.0073845275
-0.0036689438
-0.52686938
0.015076042
-0.52437264
0.015468648
-0.52172032
0.015790958
-0.51887018
0.0163416
-0.51576798
0.017122013
-0.51234589
0.018171164
-0.50851825
0.019533627
-0.50417989
0.021280162
-0.49920661
0.023521169
-0.4934605
0.026426383
-0.48679844
0.030270745
-0.47911593
0.03558346
-0.47060894
0.043387985
-0.46224549
0.054902627
-0.45437843
0.070132643
-0.44762946
0.095053587
-0.4708096
0.15386798
-0.47005065
0.11852244
-0.46091535
0.090888114
-0.42709518
0.037597601
-0.39543714
0.028516487
-0.36804318
0.02907361
-0.3034907
0.020770945
-0.16300126
0.01345509
-0.041147945
0.0077711464
0
0
0
0
0