/*--------------------------------*- C++ -*----------------------------------*\
| =========                 |                                                 |
| \\      /  F ield         | foam-extend: Open Source CFD                    |
|  \\    /   O peration     | Version:     4.1                                |
|   \\  /    A nd           | Web:         http://www.foam-extend.org         |
|    \\/     M anipulation  |                                                 |
\*---------------------------------------------------------------------------*/
FoamFile
{
    version     2.0;
    format      ascii;
    class       volScalarField;
    location    "1.85";
    object      rAU;
}
// * * * * * * * * * * * * * * * * * * * * * * * * * * * * * * * * * * * * * //

dimensions      [0 0 1 0 0 0 0];

internalField   nonuniform List<scalar> 
4393
(
0.00022764395
0.00022727015
0.00022690411
0.00022653023
0.0002261464
0.00022575119
0.00022534221
0.00022491829
0.00022447857
0.00022402286
0.00022355175
0.00022306675
0.00022257036
0.00022206612
0.0002215584
0.00022105335
0.00022055677
0.00022007564
0.0002196176
0.00021919023
0.00021880127
0.0002184584
0.00021816912
0.00021794062
0.00021777953
0.0002176918
0.00021768207
0.00021768207
0.00021775364
0.00021790762
0.00021814216
0.00021845229
0.0002188298
0.00021926366
0.00021974059
0.00022024607
0.00022076526
0.00022128399
0.00022178942
0.00022227054
0.00022271839
0.00022312602
0.00022348837
0.00022380199
0.00022406477
0.00022427574
0.00022443495
0.00022454295
0.00022458507
0.00022451154
0.00022419107
0.00022388552
0.00022357092
0.00022324451
0.00022290464
0.00022254908
0.00022217698
0.00022178791
0.00022138225
0.00022096127
0.00022052726
0.00022008357
0.00021963469
0.00021918593
0.00021874431
0.00021831644
0.00021790991
0.0002175328
0.00021719295
0.00021689823
0.00021665632
0.00021647463
0.00021636016
0.00021631923
0.00021635724
0.00021644391
0.00021641683
0.00021646004
0.00021658693
0.00021679903
0.00021709478
0.00021746904
0.00021791305
0.00021841482
0.00021896008
0.00021953334
0.0002201191
0.00022070278
0.00022127146
0.00022181423
0.00022232241
0.00022278938
0.00022321041
0.00022358224
0.00022390274
0.00022417103
0.00022438861
0.00022454271
0.00022400618
0.00022369753
0.0002233974
0.00022308572
0.00022275976
0.00022241801
0.00022205846
0.00022168055
0.00022128428
0.00022087052
0.0002204412
0.00021999936
0.00021954926
0.00021909633
0.00021864692
0.00021820904
0.00021779016
0.00021739864
0.00021704307
0.00021673164
0.00021647239
0.00021627306
0.00021614105
0.00021608327
0.00021610589
0.00021621396
0.00021630073
0.00021618164
0.00021614337
0.00021619293
0.00021633523
0.00021657196
0.00021690056
0.00021731386
0.00021780033
0.00021834507
0.00021893112
0.00021954099
0.00022015793
0.00022076683
0.00022135487
0.00022191169
0.00022242936
0.00022290214
0.00022332604
0.00022369842
0.00022401821
0.00022428551
0.00022448062
0.00022365084
0.00022334757
0.00022304737
0.00022273255
0.00022240066
0.0002220504
0.00022167991
0.00022128887
0.00022087761
0.00022044746
0.00022000093
0.00021954181
0.00021907525
0.00021860775
0.00021814676
0.00021770145
0.00021728038
0.00021689282
0.00021654806
0.00021625478
0.0002160213
0.00021585557
0.00021576512
0.000215757
0.00021583747
0.00021601158
0.00021609312
0.00021588797
0.00021576537
0.00021573586
0.00021580814
0.00021598743
0.00021627387
0.00021666172
0.00021713942
0.00021769086
0.00021829701
0.00021893785
0.00021959404
0.00022024812
0.00022088522
0.00022149338
0.00022206348
0.00022258895
0.00022306525
0.0002234896
0.00022386075
0.00022417775
0.00022442244
0.00022328895
0.00022298984
0.00022268996
0.00022237232
0.00022203465
0.00022167577
0.00022129396
0.00022088906
0.00022046167
0.00022001351
0.00021954761
0.0002190685
0.00021858221
0.00021809635
0.00021761961
0.00021716245
0.00021673468
0.00021634659
0.00021600829
0.00021572896
0.00021551726
0.00021538136
0.000215329
0.0002153675
0.00021550347
0.00021574227
0.00021582938
0.00021553374
0.00021532286
0.00021521129
0.00021521214
0.00021533471
0.00021558213
0.00021594994
0.00021642611
0.00021699256
0.00021762739
0.0002183074
0.00021901017
0.00021971556
0.0002204066
0.00022106976
0.00022169486
0.00022227467
0.00022280439
0.00022328117
0.00022370371
0.00022407086
0.00022436675
0.00022291127
0.00022261685
0.00022231833
0.00022199883
0.00022165616
0.00022128921
0.00022089629
0.00022047738
0.00022003322
0.00021956586
0.00021907879
0.00021857719
0.00021806803
0.00021756007
0.00021706337
0.00021658988
0.00021615083
0.00021575772
0.00021542153
0.00021515199
0.0002149581
0.00021484821
0.00021483035
0.00021491226
0.00021510116
0.00021540322
0.000215511
0.00021511906
0.00021481427
0.00021461584
0.00021454215
0.00021460744
0.00021481833
0.00021517161
0.00021565415
0.00021624495
0.00021691823
0.00021764672
0.00021840431
0.00021916787
0.00021991817
0.00022064023
0.00022132297
0.00022195879
0.00022254286
0.00022307255
0.00022354676
0.00022396478
0.00022431253
0.00022251827
0.00022222921
0.00022193309
0.00022161273
0.00022126591
0.00022089148
0.00022048775
0.00022005466
0.00021959308
0.00021910522
0.00021859497
0.00021806813
0.00021753258
0.00021699831
0.00021647695
0.00021598216
0.00021552684
0.00021512393
0.00021478535
0.00021452141
0.00021434132
0.00021425361
0.00021426656
0.00021438849
0.00021462756
0.00021499122
0.00021513999
0.00021464448
0.0002142383
0.00021394617
0.0002137929
0.00021379896
0.00021397531
0.00021431997
0.00021481793
0.00021544403
0.00021616725
0.00021695516
0.00021777717
0.00021860674
0.00021942235
0.00022020759
0.00022095078
0.0002216442
0.00022228331
0.00022286596
0.00022339158
0.00022386032
0.0002242595
0.00022211196
0.00022182962
0.00022153708
0.00022121687
0.00022086675
0.00022048543
0.00022007112
0.00021962365
0.00021914384
0.000218634
0.00021809827
0.00021754301
0.000216977
0.00021641155
0.00021586007
0.00021533826
0.00021486109
0.00021444311
0.00021409737
0.00021383464
0.00021366424
0.0002135947
0.00021363452
0.00021379268
0.00021407863
0.00021450169
0.00021471793
0.00021410991
0.00021359268
0.00021319744
0.00021295709
0.00021290019
0.00021304332
0.00021338589
0.00021390987
0.0002145842
0.00021537089
0.00021623089
0.00021712826
0.00021803264
0.00021892011
0.00021977311
0.00022057961
0.00022133218
0.00022202689
0.0002226624
0.000223239
0.00022375787
0.00022420764
0.00022169403
0.00022141926
0.00022113138
0.0002208124
0.0002204599
0.00022007239
0.00021964783
0.00021918586
0.00021868708
0.00021815374
0.00021759012
0.00021700298
0.000216402
0.00021579991
0.00021521216
0.00021465694
0.00021415171
0.00021371307
0.00021335525
0.00021308937
0.00021292459
0.00021286918
0.00021293169
0.00021312182
0.00021345065
0.00021393009
0.00021424773
0.00021351643
0.00021287592
0.00021236504
0.00021202697
0.00021190113
0.00021201174
0.00021235975
0.00021292257
0.00021366084
0.00021452719
0.00021547416
0.00021645941
0.00021744832
0.00021841467
0.00021934002
0.00022021248
0.00022102535
0.00022177576
0.00022246353
0.00022309014
0.00022365803
0.00022415708
0.00022126649
0.00022100117
0.00022071937
0.00022040281
0.00022004895
0.00021965601
0.00021922164
0.00021874508
0.00021822659
0.00021766815
0.00021707396
0.00021645108
0.00021580998
0.00021516492
0.0002145337
0.00021393758
0.00021339722
0.00021293173
0.00021255663
0.00021228321
0.00021212003
0.00021207463
0.00021215534
0.00021237252
0.00021273922
0.00021327074
0.00021373275
0.00021286544
0.0002120864
0.00021144347
0.00021099295
0.00021078911
0.00021086704
0.00021122955
0.00021184717
0.00021266873
0.00021363427
0.0002146857
0.00021577305
0.00021685718
0.00021790975
0.00021891197
0.0002198527
0.00022072656
0.00022153224
0.00022227115
0.00022294627
0.0002235615
0.00022410812
0.00022083198
0.00022057672
0.00022030209
0.00021998914
0.00021963501
0.00021923755
0.00021879395
0.00021830291
0.00021776413
0.00021717906
0.00021655162
0.00021588892
0.00021520208
0.00021450692
0.00021382402
0.00021317849
0.00021259509
0.00021209617
0.00021169872
0.00021141375
0.00021124854
0.00021120927
0.0002113035
0.0002115421
0.00021194038
0.00021251794
0.00021317832
0.00021216011
0.00021122379
0.00021042745
0.00020984421
0.00020954911
0.00020959307
0.00020998144
0.00021067418
0.00021160329
0.00021269185
0.00021386829
0.00021507385
0.00021626466
0.00021741084
0.00021849405
0.0002195047
0.00022043946
0.00022129921
0.00022208738
0.00022280884
0.00022346915
0.00022406111
0.00022039148
0.00022014882
0.00021988313
0.00021957531
0.00021922231
0.00021882156
0.00021836965
0.00021786458
0.00021730522
0.00021669222
0.00021602886
0.000215322
0.00021458316
0.00021382969
0.00021308536
0.00021238017
0.00021174439
0.00021120462
0.00021077951
0.00021047919
0.00021030863
0.00021027166
0.00021037437
0.00021062776
0.00021104956
0.00021166468
0.00021248482
0.00021140503
0.0002102889
0.00020931171
0.00020856797
0.00020816221
0.00020816938
0.0002085984
0.00020939281
0.00021046038
0.00021170116
0.00021302683
0.00021436857
0.00021567814
0.00021692504
0.00021809256
0.00021917379
0.00022016837
0.00022108001
0.00022191473
0.00022267958
0.00022338201
0.00022401652
0.00021995018
0.00021972021
0.00021946453
0.00021916317
0.00021881266
0.00021840989
0.00021795071
0.0002174322
0.00021685214
0.00021621001
0.00021550803
0.00021475238
0.00021395461
0.00021313339
0.00021231612
0.00021153909
0.00021084015
0.00021025168
0.00020979429
0.00020947617
0.00020929839
0.00020926099
0.00020936756
0.00020962852
0.00021006398
0.00021070519
0.00021159219
0.00021060822
0.00020928521
0.00020809197
0.00020714957
0.00020660473
0.0002065699
0.00020705962
0.0002079912
0.00020923709
0.00021066615
0.00021216933
0.00021366704
0.00021510756
0.00021646145
0.00021771533
0.00021886638
0.00021991831
0.00022087848
0.00022175597
0.00022256038
0.00022330124
0.0002239749
0.00021950678
0.00021929285
0.00021904938
0.00021875642
0.00021841038
0.00021800755
0.00021754298
0.00021701257
0.00021641269
0.00021574121
0.00021499874
0.0002141902
0.00021332652
0.00021242724
0.00021152361
0.0002106601
0.00020988504
0.00020923908
0.00020874506
0.00020840764
0.00020822161
0.00020818126
0.00020828639
0.00020854595
0.0002089821
0.00020963344
0.00021055295
0.00020978145
0.00020821968
0.00020676586
0.00020557234
0.00020484623
0.00020476033
0.00020533902
0.00020645626
0.0002079326
0.00020959448
0.000211308
0.00021298282
0.00021456589
0.00021603144
0.00021737175
0.00021858993
0.00021969504
0.0002206989
0.00022161419
0.00022245335
0.00022322814
0.00022393684
0.00021907205
0.00021887363
0.0002186434
0.00021836043
0.00021802064
0.00021761967
0.00021715152
0.00021661074
0.00021599191
0.00021529074
0.00021450555
0.00021363922
0.00021270122
0.000211711
0.00021070367
0.00020973421
0.00020886613
0.00020815218
0.00020761813
0.00020726256
0.00020707037
0.00020702735
0.00020712787
0.00020737795
0.00020780063
0.0002084423
0.00020937176
0.00020894128
0.00020710456
0.00020533476
0.00020381808
0.00020284714
0.00020269439
0.00020340359
0.00020477409
0.00020654979
0.00020849943
0.00021046066
0.00021233423
0.00021406968
0.00021564885
0.00021707283
0.0002183529
0.00021950488
0.0002205459
0.00022149269
0.00022236071
0.00022316407
0.000223903
0.00021863751
0.00021845858
0.00021824401
0.00021797327
0.00021764223
0.00021724589
0.0002167772
0.00021622912
0.00021559411
0.00021486511
0.00021403732
0.00021311055
0.00021209162
0.0002109983
0.00020986862
0.00020877083
0.00020779055
0.00020699878
0.0002064249
0.00020605715
0.00020586451
0.00020582043
0.00020591216
0.0002061413
0.00020652998
0.00020713277
0.00020803802
0.0002081134
0.0002059603
0.00020380696
0.00020186876
0.00020055568
0.00020030762
0.00020121095
0.00020293084
0.00020509781
0.0002074025
0.00020965276
0.00021174551
0.00021363956
0.0002153301
0.00021683111
0.00021816459
0.0002193546
0.00022042432
0.00022139483
0.00022228474
0.00022311044
0.00022387405
0.000218226
0.0002180654
0.00021786761
0.00021761117
0.00021729154
0.00021690298
0.00021643721
0.00021588538
0.00021523739
0.0002144827
0.00021361222
0.0002126213
0.0002115125
0.00021029943
0.00020902043
0.00020775987
0.00020663647
0.00020574994
0.00020513484
0.00020476261
0.00020457756
0.00020453604
0.00020461752
0.00020481795
0.00020515483
0.00020568905
0.00020653136
0.00020732641
0.00020481652
0.00020220294
0.00019971126
0.00019790469
0.00019750719
0.00019870641
0.00020091475
0.00020359651
0.00020633735
0.0002089199
0.00021124806
0.00021330068
0.00021509417
0.00021666039
0.00021803483
0.0002192511
0.00022033896
0.00022132393
0.00022222764
0.00022306861
0.00022385067
0.00021781697
0.00021767892
0.00021750028
0.00021726041
0.00021695497
0.00021657758
0.00021611876
0.00021556775
0.00021491161
0.00021413579
0.00021322573
0.00021217072
0.00021096729
0.00020962151
0.00020816667
0.00020670482
0.00020540477
0.00020441273
0.00020377012
0.00020342055
0.00020326814
0.00020324431
0.00020332046
0.00020348558
0.00020374502
0.00020416164
0.00020487334
0.00020604013
0.00020373315
0.00020057032
0.00019735031
0.0001948129
0.00019415677
0.0001958205
0.00019872078
0.00020208369
0.00020535544
0.00020831106
0.00021088178
0.00021308282
0.00021496218
0.00021657523
0.00021797349
0.00021920104
0.00022029431
0.00022128301
0.00022219143
0.00022303984
0.00022383347
0.00021746807
0.00021735086
0.00021719274
0.00021697238
0.00021668527
0.00021632444
0.00021587921
0.00021533686
0.00021468137
0.00021389343
0.00021295141
0.00021183591
0.00021053466
0.00020904165
0.00020737454
0.00020564948
0.00020411189
0.0002029865
0.00020232363
0.0002020224
0.00020192149
0.00020191788
0.00020198029
0.00020209632
0.00020224994
0.00020250004
0.00020301715
0.00020404789
0.00020277725
0.00019900134
0.00019484869
0.00019121048
0.00019006029
0.00019246952
0.00019635938
0.00020062693
0.0002045344
0.00020789253
0.00021069601
0.00021301998
0.00021495654
0.00021659001
0.00021798973
0.0002192103
0.00022029419
0.00022127459
0.00022217777
0.00022302518
0.000223823
0.00021720042
0.00021710846
0.00021697479
0.00021677845
0.00021651526
0.00021617771
0.00021575395
0.00021522925
0.00021458442
0.000213795
0.00021283101
0.00021166157
0.00021026304
0.00020861402
0.00020670104
0.00020463895
0.00020279065
0.00020152067
0.00020088661
0.00020071735
0.00020074099
0.00020080629
0.00020089051
0.00020099373
0.00020105261
0.00020109869
0.00020133229
0.00020206217
0.00020232367
0.00019782307
0.00019245208
0.00018712493
0.00018495933
0.00018857295
0.00019388291
0.00019934652
0.00020399076
0.0002077523
0.00021074973
0.00021314895
0.00021509926
0.00021671765
0.00021809112
0.00021928335
0.00022034134
0.00022130043
0.00022218782
0.00022302542
0.00022381969
0.00021725955
0.0002171957
0.0002170925
0.00021692797
0.0002166983
0.00021639569
0.0002160077
0.00021551823
0.00021490561
0.00021414088
0.00021318526
0.00021199281
0.00021052319
0.00020873589
0.0002065627
0.00020406865
0.00020178752
0.00020035083
0.00019980561
0.00019987925
0.00020010542
0.00020026578
0.00020036326
0.00020044937
0.00020036943
0.00020009282
0.00019988256
0.00020010172
0.00020118345
0.00019740094
0.00019066098
0.00018291677
0.00017861455
0.00018416422
0.00019146823
0.00019845307
0.00020389579
0.00020800297
0.00021110927
0.00021350607
0.00021540931
0.00021696773
0.00021828236
0.00021942252
0.00022043697
0.00022136122
0.00022222209
0.00022304092
0.00022382378
0.00021801692
0.00021798808
0.00021792997
0.00021781541
0.00021764061
0.00021739773
0.00021707424
0.00021665328
0.00021611105
0.00021541415
0.00021451399
0.00021334409
0.00021183692
0.00020993099
0.00020748664
0.00020441542
0.000201478
0.00019988188
0.00019958101
0.00020017772
0.00020082182
0.00020120649
0.00020138405
0.0002015822
0.00020150165
0.00020093328
0.00020031544
0.00019986123
0.000200808
0.00019976215
0.00019129702
0.00018002138
0.00017094795
0.00017965792
0.00018947936
0.00019827191
0.00020448878
0.00020878076
0.00021184205
0.00021412138
0.00021589861
0.00021734408
0.00021856404
0.00021962727
0.00022058035
0.00022145643
0.00022228028
0.00022307162
0.00022383532
0.00022066379
0.00022071197
0.00022074182
0.00022072126
0.00022064843
0.00022051635
0.00022031375
0.0002200247
0.00021962546
0.0002190812
0.00021833805
0.00021731144
0.00021589841
0.00021401617
0.00021146416
0.00020778643
0.00020388379
0.00020236618
0.0002027249
0.00020450469
0.00020600939
0.00020691031
0.00020732223
0.00020797704
0.00020832161
0.00020732402
0.00020618934
0.00020432512
0.00020496014
0.00020348416
0.00019650003
0.00018118222
0.00016222075
0.00017630858
0.00018869766
0.00019949696
0.00020614912
0.00021024639
0.00021300406
0.00021500914
0.00021656678
0.00021784221
0.00021893132
0.00021989363
0.00022076858
0.00022158412
0.00022236123
0.00022311694
0.00022385413
0.0002264232
0.00022656637
0.00022672907
0.00022685672
0.00022694709
0.00022699528
0.00022699411
0.00022693275
0.00022679284
0.00022654472
0.00022613733
0.00022547278
0.00022438821
0.00022271888
0.00022022043
0.00021576673
0.00020956615
0.00020824678
0.00020948523
0.00021348544
0.00021646289
0.00021835337
0.00021896634
0.00022040496
0.00022210353
9.3007798e-05
9.5433633e-05
9.7691769e-05
9.9882202e-05
0.00010288235
9.4463713e-05
8.6204567e-05
0.00010657293
0.00017933371
0.00019343358
0.00020412708
0.00020945441
0.00021253459
0.00021460551
0.00021615202
0.00021739471
0.00021844687
0.00021937313
0.00022021387
0.00022099646
0.00022174091
0.00022246292
0.00022317581
0.00022387979
0.00023924613
0.00023969378
0.00024019475
0.00024068094
0.00024116147
0.00024164044
0.00024212265
0.00024261184
0.00024310686
0.00024359695
0.00024404937
0.0002443714
0.00024434225
0.00024362579
0.00024200554
0.00023807385
0.00022682296
0.00022935546
0.00023549227
0.00025021168
0.00026144203
0.00027023492
0.00012828185
0.00016688282
0.00032275128
0.00046159651
0.00049956686
0.00049956686
0.00049956686
0.00049956686
0.00049956686
0.00045031241
0.00033649838
6.8075287e-05
0.00021297391
0.00021346096
0.00021437885
0.00021549443
0.00021653648
0.00021748114
0.00021833988
0.00021913133
0.00021987233
0.00022057687
0.00022125675
0.0002219222
0.00022258251
0.00022324666
0.00022391166
0.00026426973
0.00026527824
0.00026643193
0.0002676284
0.00026888823
0.00027023601
0.00027170586
0.00027334078
0.00027519393
0.00027733281
0.00027984382
0.00028282436
0.0002863757
0.00029054979
0.00029518255
0.00030234042
0.00027345945
0.00030501297
0.0003566001
0.00037255247
0.00027823175
0.00031973505
0.00049956686
0.00049956686
0.00049956686
0.00049956686
0.00049956686
0.00049956686
0.00049956686
0.00049956686
0.00041263389
0.00041826929
0.00010203818
0.00026659038
0.00023114006
0.00022209707
0.00021927533
0.00021853489
0.00021855431
0.00021888182
0.0002193415
0.00021986052
0.00022040745
0.00022096904
0.0002215407
0.00022212237
0.00022271655
0.00022332755
0.00022394887
0.00030195508
0.00030409754
0.00030622766
0.00030843012
0.00031077943
0.00031334841
0.00031622303
0.00031951656
0.00032338842
0.00032808225
0.00033399423
0.00034170009
0.00035173271
0.0003647474
0.00038492205
0.00040157933
0.00025703447
0.00025319354
0.00026338592
0.00048920794
0.00047849473
0.00048855104
0.00047869854
0.00047372164
0.00047746533
0.00045865802
0.00045171924
0.00045351615
0.00044093602
0.00043652041
0.00010691822
0.0001076707
0.00021977611
0.00025235681
0.00023694833
0.00022741069
0.00022311584
0.00022121907
0.00022044942
0.00022024474
0.00022033824
0.00022059796
0.00022095584
0.00022137585
0.00022183888
0.00022233532
0.00022286119
0.00022341625
0.00022399043
0.00028856424
0.00028908247
0.00028927234
0.00028945884
0.00028964403
0.00028985989
0.00029013239
0.00029049841
0.0002910109
0.00029174748
0.00029283029
0.00029387555
0.00029481461
0.0002955728
0.00029293081
0.00010292906
0.00037622811
0.0004708225
0.00047253782
0.00049383689
0.00048613824
0.0004824508
0.00012420996
0.00012127924
0.00010077007
0.00010005409
0.00010062896
0.00010197277
0.0001029272
0.00010452156
0.00020120881
0.00020767801
0.00021808273
0.00023901554
0.00023963013
0.00023076145
0.0002259578
0.00022341701
0.00022210834
0.00022149283
0.00022128034
0.00022131152
0.00022149646
0.00022178334
0.00022214194
0.00022255483
0.00022301243
0.00022351038
0.00022403524
0.00022327488
0.00022310712
0.00022281877
0.00022254008
0.00022227884
0.0002220522
0.00022187613
0.00022177397
0.00022177804
0.00022193322
0.00022230446
0.00022209427
0.00022116292
0.00021941657
0.00021672837
0.00021314636
9.5859251e-05
9.9101747e-05
9.9869024e-05
9.9773845e-05
0.00010014958
0.00010017635
0.00021253984
0.00021081366
0.00020892981
0.00020554377
0.00020443531
0.00020387893
0.00020210794
0.00020212612
0.00020330653
0.00020901266
0.00021823607
0.00023217528
0.00023802119
0.000232482
0.00022785744
0.00022508946
0.00022347613
0.00022257925
0.00022213282
0.00022197625
0.00022201178
0.00022217924
0.00022244134
0.00022277503
0.00022316638
0.00022360757
0.00022408215
0.00021926627
0.00021934615
0.00021947252
0.00021960788
0.00021976346
0.00021995139
0.00022018427
0.00022047816
0.00022085236
0.00022132969
0.00022186419
0.00022156872
0.00022081328
0.00021957731
0.00021780344
0.00021498941
0.00021250665
0.00021402889
0.00021587914
0.00021421455
0.00021238148
0.00021121566
0.00021005901
0.00020833716
0.00020730334
0.00020568589
0.0002047797
0.00020420528
0.00020347944
0.0002039482
0.00020593217
0.0002108884
0.00021854814
0.0002281078
0.00023383136
0.00023318211
0.00022902066
0.00022628603
0.00022454839
0.00022348498
0.00022287577
0.00022257535
0.00022248866
0.00022255366
0.00022272981
0.00022299071
0.00022331943
0.00022370554
0.00022413006
0.00021788942
0.00021796899
0.00021809433
0.00021823308
0.00021838811
0.00021856696
0.00021877818
0.00021903285
0.00021934348
0.0002197238
0.00021997923
0.00021948716
0.00021872903
0.00021765466
0.00021622737
0.00021439177
0.00021326095
0.00021411255
0.00021527033
0.00021349511
0.00021190179
0.00021068263
0.00020952601
0.00020831098
0.00020735617
0.00020629719
0.00020564681
0.0002052862
0.00020521184
0.00020608755
0.00020833107
0.00021262011
0.00021875893
0.0002256144
0.0002302998
0.00023231264
0.00022962741
0.00022708141
0.00022534764
0.00022421043
0.00022350168
0.00022309954
0.00022291849
0.00022289938
0.00022300161
0.00022319751
0.00022346846
0.00022380225
0.00022417792
0.00021721114
0.0002173321
0.00021747182
0.00021762286
0.00021779116
0.00021798314
0.00021820499
0.00021846422
0.00021876784
0.00021912125
0.00021921484
0.00021877171
0.00021812014
0.0002172301
0.00021608127
0.00021482202
0.00021419517
0.00021469882
0.00021503893
0.0002134115
0.00021201396
0.000210862
0.00020980446
0.00020882291
0.00020800282
0.00020726725
0.00020684865
0.00020673383
0.00020702992
0.00020812293
0.00021033515
0.00021399228
0.00021887054
0.0002240093
0.00022786289
0.00023021849
0.00022984666
0.00022755957
0.00022591091
0.00022476861
0.00022401227
0.00022354582
0.00022329669
0.00022321171
0.00022325258
0.00022339201
0.00022361086
0.00022389592
0.0002242248
0.00021692188
0.00021699496
0.00021711095
0.00021724611
0.00021739853
0.00021757173
0.00021776952
0.00021799679
0.00021825742
0.00021855289
0.00021852316
0.00021813367
0.00021760115
0.00021691399
0.00021608469
0.00021529054
0.00021497705
0.00021536532
0.00021499574
0.00021359462
0.00021236919
0.00021132265
0.00021038917
0.00020956874
0.00020889437
0.00020837619
0.00020813538
0.00020820832
0.00020871202
0.00020988757
0.00021195286
0.00021505052
0.00021895085
0.00022294331
0.00022613905
0.00022830365
0.00022930035
0.00022779416
0.00022627867
0.000225179
0.00022441529
0.00022391581
0.000223622
0.00022348825
0.00022348004
0.00022357174
0.0002237446
0.0002239851
0.00022426992
0.00021677923
0.00021689223
0.00021701777
0.00021715347
0.00021730331
0.00021747038
0.00021765637
0.00021786313
0.00021809073
0.00021833599
0.00021824901
0.00021790033
0.0002174481
0.00021689703
0.00021628715
0.00021577734
0.00021563488
0.0002159628
0.00021504854
0.00021385921
0.00021279599
0.00021186998
0.00021106079
0.00021037599
0.00020983847
0.00020948078
0.0002093782
0.00020958331
0.00021019747
0.00021137673
0.00021325697
0.0002158827
0.00021904243
0.00022223336
0.00022490805
0.00022685654
0.00022808998
0.00022785099
0.00022649051
0.00022546375
0.00022472196
0.00022421435
0.0002238957
0.00022372843
0.00022368264
0.00022373512
0.00022386822
0.00022406865
0.00022431265
0.00021670593
0.00021677605
0.00021688246
0.00021700572
0.00021714338
0.00021729653
0.00021746536
0.00021765007
0.00021784877
0.00021805598
0.00021796816
0.00021768298
0.00021732705
0.00021691348
0.00021649064
0.00021618342
0.00021615669
0.00021618164
0.00021514069
0.00021413965
0.00021322843
0.00021242681
0.00021173728
0.00021117319
0.00021075726
0.00021052505
0.00021053096
0.00021082761
0.00021149505
0.00021263495
0.00021432531
0.00021655982
0.00021915726
0.00022176445
0.00022402353
0.00022576022
0.00022694896
0.00022750551
0.00022658065
0.00022564459
0.00022494494
0.00022444814
0.00022412081
0.00022393315
0.00022386012
0.00022388137
0.00022398079
0.00022414578
0.00022435249
0.00021665266
0.00021674419
0.000216851
0.00021696712
0.00021709411
0.00021723295
0.00021738276
0.00021754235
0.00021770836
0.00021787404
0.0002177968
0.00021755889
0.00021727648
0.0002169685
0.00021668266
0.00021651258
0.00021656359
0.00021610929
0.00021525405
0.00021441756
0.00021364665
0.00021296631
0.00021239038
0.00021193618
0.00021162715
0.0002114965
0.00021158713
0.00021194533
0.00021263121
0.0002137099
0.00021522091
0.00021713369
0.00021929932
0.00022146734
0.00022339224
0.0002249337
0.00022605186
0.00022677673
0.00022657921
0.00022574182
0.00022509711
0.00022462482
0.00022430148
0.00022410434
0.00022401306
0.00022401032
0.00022408185
0.00022421598
0.00022438912
0.00021662052
0.00021668719
0.00021678215
0.0002168895
0.00021700706
0.00021713452
0.00021727002
0.00021741135
0.00021755418
0.00021769103
0.00021764803
0.00021746001
0.00021724612
0.00021702747
0.00021684684
0.00021677385
0.00021670985
0.0002160885
0.00021538618
0.00021469262
0.00021404932
0.00021348311
0.00021301304
0.00021265863
0.00021244314
0.00021239612
0.00021255245
0.00021295025
0.00021363306
0.00021464107
0.00021598941
0.00021763799
0.00021946698
0.00022129568
0.00022294914
0.00022431566
0.00022535199
0.00022606775
0.00022637968
0.00022577298
0.00022519062
0.00022475224
0.00022444245
0.00022424459
0.00022414267
0.00022412236
0.00022417131
0.000224279
0.00022442233
0.00021659671
0.00021666913
0.00021675954
0.00021685809
0.00021696441
0.00021707815
0.00021719699
0.00021731827
0.00021743731
0.00021754675
0.00021753781
0.00021739144
0.00021723368
0.0002170855
0.0002169832
0.00021695149
0.00021664406
0.00021610974
0.00021553544
0.00021496624
0.00021443801
0.00021397712
0.00021360445
0.00021334011
0.00021320626
0.00021322862
0.00021343567
0.00021385746
0.00021452447
0.00021545989
0.00021666413
0.00021809536
0.0002196579
0.00022121877
0.00022264955
0.00022386148
0.00022481304
0.00022550245
0.00022595402
0.00022575334
0.00022523654
0.00022483802
0.00022454868
0.00022435692
0.00022425063
0.00022421827
0.00022424943
0.00022433483
0.00022445205
0.00021658582
0.00021664595
0.00021672856
0.00021681968
0.00021691734
0.00021702059
0.00021712668
0.00021723261
0.00021733363
0.00021742275
0.00021744897
0.00021733985
0.00021722934
0.00021713708
0.00021709322
0.00021696835
0.00021660055
0.0002161657
0.00021570011
0.00021523947
0.0002148144
0.00021444955
0.00021416563
0.0002139822
0.00021391963
0.00021399995
0.00021424618
0.00021468122
0.00021532558
0.00021619096
0.00021726939
0.00021852107
0.00021986965
0.00022121531
0.00022246152
0.0002235376
0.00022440593
0.00022505879
0.0002255099
0.00022566434
0.00022524461
0.00022488926
0.00022462506
0.00022444453
0.00022433887
0.0002242991
0.00022431668
0.00022438362
0.00022447828
0.00021658215
0.00021664083
0.00021671784
0.00021680118
0.00021688947
0.00021698173
0.0002170751
0.00021716656
0.00021725156
0.00021732378
0.00021736693
0.00021730087
0.00021722868
0.00021717974
0.00021711422
0.00021689994
0.00021659951
0.00021624938
0.00021587734
0.00021551195
0.0002151792
0.00021490134
0.00021469786
0.00021458697
0.00021458682
0.00021471599
0.00021499276
0.00021543401
0.00021605277
0.00021685311
0.00021782266
0.00021892527
0.00022009976
0.00022126979
0.00022236145
0.00022331823
0.00022410713
0.00022471774
0.00022515705
0.00022544319
0.0002252232
0.0002249124
0.00022467627
0.00022451063
0.00022440948
0.00022436611
0.00022437374
0.00022442567
0.00022450113
0.00021658699
0.0002166392
0.0002167104
0.00021678722
0.00021686782
0.00021695103
0.00021703394
0.00021711367
0.00021718604
0.0002172455
0.00021728497
0.000217269
0.00021722798
0.00021717785
0.00021706203
0.00021687263
0.00021663158
0.00021635484
0.00021606425
0.00021578292
0.00021553281
0.00021533359
0.00021520289
0.00021515711
0.00021521199
0.00021538289
0.00021568398
0.00021612721
0.00021672005
0.00021746158
0.00021833746
0.00021931566
0.0002203468
0.00022137157
0.00022233251
0.00022318425
0.00022389847
0.00022446398
0.00022488364
0.00022517001
0.00022517963
0.00022491324
0.00022470671
0.0002245584
0.00022446464
0.00022442069
0.0002244214
0.00022446136
0.00022452074
0.00021659775
0.0002166467
0.00021671292
0.00021678348
0.0002168567
0.00021693146
0.00021700497
0.00021707455
0.00021713653
0.00021718617
0.00021721772
0.0002172245
0.00021719933
0.00021713539
0.00021702774
0.00021687686
0.00021668874
0.00021647643
0.0002162575
0.00021605084
0.00021587494
0.00021574686
0.00021568212
0.00021569504
0.00021579891
0.0002160061
0.00021632722
0.00021677022
0.00021733847
0.00021802785
0.00021882344
0.00021969721
0.00022060901
0.00022151213
0.00022236134
0.00022312014
0.00022376459
0.00022428388
0.0002246785
0.00022495721
0.00022509778
0.00022489673
0.00022472031
0.0002245908
0.00022450645
0.00022446423
0.00022446049
0.00022449112
0.00022453727
0.00021661391
0.00021665888
0.00021672062
0.00021678581
0.00021685271
0.00021692026
0.00021698581
0.00021704704
0.00021710079
0.00021714319
0.00021716971
0.00021717531
0.00021715488
0.00021710402
0.00021702011
0.00021690506
0.00021676452
0.00021660941
0.00021645416
0.0002163143
0.00021620536
0.0002161419
0.00021613725
0.00021620352
0.00021635162
0.00021659113
0.0002169296
0.00021737174
0.00021791783
0.00021856175
0.00021928877
0.00022007448
0.00022088596
0.00022168599
0.0002224387
0.00022311468
0.000223694
0.0002241669