/*--------------------------------*- C++ -*----------------------------------*\
| =========                 |                                                 |
| \\      /  F ield         | foam-extend: Open Source CFD                    |
|  \\    /   O peration     | Version:     4.1                                |
|   \\  /    A nd           | Web:         http://www.foam-extend.org         |
|    \\/     M anipulation  |                                                 |
\*---------------------------------------------------------------------------*/
FoamFile
{
    version     2.0;
    format      ascii;
    class       volScalarField;
    location    "0.75";
    object      p;
}
// * * * * * * * * * * * * * * * * * * * * * * * * * * * * * * * * * * * * * //

dimensions      [0 2 -2 0 0 0 0];

internalField   nonuniform List<scalar> 
16796
(
-10.482731
-18.583011
-27.592477
-36.634037
-45.650026
-54.618338
-63.531951
-72.38786
-81.183581
-89.915802
-98.579899
-107.16971
-115.67755
-124.09435
-132.40985
-140.61299
-148.69232
-156.63652
-164.43503
-172.07875
-179.56074
-186.87709
-194.0277
-201.01712
-207.85531
-214.55848
-221.14964
-227.65927
-234.12561
-240.59497
-247.12172
-253.76817
-260.60404
-267.70583
-275.15593
-283.04131
-291.45212
-300.48002
-310.21638
-320.75045
-332.16713
-344.54504
-357.95462
-372.45595
-388.0962
-404.90807
-422.90828
-442.09606
-462.4514
-483.93362
-506.4806
-530.00787
-554.40786
-579.54938
-605.27747
-631.41344
-657.75525
-684.07824
-710.13615
-735.66248
-760.37228
-783.96435
-806.12387
-826.52544
-844.8367
-860.72221
-873.84794
-883.88594
-890.51943
-893.44809
-892.39336
-887.10381
-877.36022
-862.98053
-843.82413
-819.79549
-790.84781
-756.98481
-718.25979
-674.77392
-626.67848
-574.19704
-517.60701
-457.19816
-393.28972
-326.24121
-256.4396
-184.29186
-110.21801
-34.644442
42.002489
119.30244
196.84653
274.24226
351.11764
427.12455
501.94144
575.27513
646.86193
716.46811
783.88968
848.95175
911.50731
971.43579
1028.6412
1083.0501
1134.6097
1183.2855
1229.0593
1271.9269
1311.8968
1348.9877
1383.2282
1414.6545
1443.3098
1469.2447
1492.5224
1513.2409
1531.5032
1547.2812
1560.4178
1571.9381
1585.5813
1603.5464
-8.909994
-18.378687
-27.573285
-36.667998
-45.699479
-54.67377
-63.590774
-72.449541
-81.248251
-89.983794
-98.651567
-107.24533
-115.75727
-124.17812
-132.49744
-140.70391
-148.78581
-156.73156
-164.5303
-172.17263
-179.65135
-186.96227
-194.10501
-201.0839
-207.90872
-214.59551
-221.16719
-227.65417
-234.0947
-240.53522
-247.03022
-253.64226
-260.44139
-267.50452
-274.91457
-282.75904
-291.1287
-300.11594
-309.81292
-320.30981
-331.69234
-344.04002
-357.4243
-371.90597
-387.53272
-404.33805
-422.33963
-441.53759
-461.91247
-483.42401
-506.01058
-529.58811
-554.0493
-579.26308
-605.07445
-631.3045
-657.75082
-684.18819
-710.36958
-736.02755
-760.87603
-784.61247
-806.92054
-827.47314
-845.93604
-861.97182
-875.24434
-885.42346
-892.19023
-895.24212
-894.29847
-889.10588
-879.44332
-865.12726
-846.01583
-822.01272
-793.07091
-759.1947
-720.44158
-676.92285
-628.79875
-576.26716
-519.57205
-459.01717
-394.94379
-327.71758
-257.72921
-185.38867
-111.11877
-35.348588
41.492982
118.98324
196.71119
274.28246
351.32345
427.48476
502.44383
575.90676
647.60945
717.31797
784.82841
849.96611
912.5845
972.56354
1029.8079
1084.2448
1135.8222
1184.5062
1230.2793
1273.138
1313.0907
1350.1566
1384.3635
1415.7469
1444.347
1470.212
1493.406
1514.0128
1532.0976
1547.6287
1560.5635
1571.8052
1583.136
1593.3031
-8.4727146
-17.845056
-27.117975
-36.263517
-45.330945
-54.338286
-63.291245
-72.191097
-81.036628
-89.824588
-98.549819
-107.20528
-115.78219
-124.27015
-132.6575
-140.9316
-149.0794
-157.08793
-164.94494
-172.63969
-180.16368
-187.51149
-194.68163
-201.67744
-208.50784
-215.1882
-221.74092
-228.19615
-234.59203
-240.97515
-247.4004
-253.93095
-260.63775
-267.59887
-274.89859
-282.62602
-290.87388
-299.73702
-309.31013
-319.68517
-330.95018
-343.18725
-356.46978
-370.86092
-386.41182
-403.15909
-421.12273
-440.30444
-460.68665
-482.23103
-504.87723
-528.54228
-553.11957
-578.47832
-604.46333
-630.895
-657.56972
-684.2606
-710.71842
-736.67306
-761.83527
-785.8989
-808.54357
-829.43782
-848.24268
-864.61581
-878.21596
-888.70784
-895.76734
-899.08694
-898.38118
-893.39221
-883.89495
-869.7024
-850.66981
-826.69828
-797.73943
-763.79769
-724.9324
-681.25557
-632.93132
-580.16904
-523.22058
-462.38592
-398.00476
-330.44742
-260.10981
-187.40726
-112.76785
-36.625758
40.585264
118.43801
196.51741
274.42551
351.78571
428.24617
503.48247
577.19945
649.13229
719.04685
786.73948
852.03618
914.79137
974.8863
1032.2271
1086.7428
1138.3831
1187.1158
1232.9255
1275.8103
1315.7807
1352.8575
1387.0701
1418.455
1447.0536
1472.9153
1496.1022
1516.6848
1534.7056
1550.1626
1563.1532
1574.3734
1583.976
1589.6916
-8.4675168
-17.703341
-26.966853
-36.119372
-45.195801
-54.21385
-63.180955
-72.099587
-80.969043
-89.786086
-98.545213
-107.23878
-115.85716
-124.38897
-132.82139
-141.14052
-149.33193
-157.38125
-165.27483
-173.00048
-180.54834
-187.9117
-195.08788
-202.07917
-208.89361
-215.54587
-222.05786
-228.45945
-234.78879
-241.09269
-247.42655
-253.8543
-260.44797
-267.28695
-274.45712
-282.04979
-290.16062
-298.88655
-308.32398
-318.56734
-329.70754
-341.82942
-355.00943
-369.31387
-384.79671
-401.49746
-419.43903
-438.62608
-459.0436
-480.65542
-503.40316
-527.20518
-551.95593
-577.52514
-603.75757
-630.473
-657.46659
-684.50955
-711.3501
-737.7149
-763.3108
-787.82712
-810.93834
-832.30731
-851.58889
-868.43421
-882.49517
-893.42952
-900.90615
-904.61063
-904.2509
-899.56293
-890.31594
-876.31816
-857.42065
-833.5207
-804.56832
-770.5687
-731.58146
-687.71661
-639.13835
-586.06033
-528.74321
-467.49322
-402.65573
-334.60815
-263.754
-190.51642
-115.33132
-38.640514
39.114961
117.50112
196.09677
274.49857
352.32536
429.22159
504.86003
578.94355
651.20619
721.4134
789.3618
854.87825
917.81851
978.06555
1035.5275
1090.1357
1141.8419
1190.6167
1236.4465
1279.3318
1319.2851
1356.3287
1390.4932
1421.8158
1450.3385
1476.1112
1499.1918
1519.6367
1537.4752
1552.7393
1565.5885
1576.4881
1584.9112
1589.0212
-8.3164653
-17.449386
-26.689126
-35.8475
-44.942213
-53.986685
-62.987653
-71.947583
-80.865641
-89.738168
-98.558939
-107.31932
-116.00845
-124.61352
-133.12007
-141.5125
-149.7745
-157.8898
-165.84278
-173.61937
-181.2078
-188.5996
-195.79046
-202.78118
-209.57857
-216.19625
-222.65543
-228.98553
-235.22461
-241.41974
-247.62697
-253.91125
-260.34602
-267.01251
-273.99921
-281.40116
-289.3168
-297.84519
-307.08602
-317.13809
-328.09629
-340.04969
-353.0792
-367.25549
-382.63674
-399.26652
-417.17167
-436.36058
-456.82162
-478.52138
-501.40392
-525.38944
-550.37366
-576.22689
-602.79361
-629.89257
-657.31702
-684.83538
-712.19222
-739.10966
-765.28914
-790.41372
-814.15084
-836.15559
-856.07449
-873.54977
-888.22414
-899.74594
-907.77461
-911.98649
-912.08063
-907.78473
-898.86031
-885.10941
-866.3773
-842.55669
-813.5957
-779.50063
-740.33216
-696.20223
-647.27768
-593.77683
-535.96708
-474.16169
-408.71398
-340.01065
-268.46524
-194.51125
-118.59501
-41.168519
37.31746
116.41991
195.70945
274.7756
353.23115
430.71569
506.89829
581.47932
654.19135
724.79944
793.10071
858.92328
922.12485
982.59084
1040.2323
1094.9835
1146.7996
1195.6545
1241.5377
1284.4528
1324.4149
1361.4485
1395.586
1426.865
1455.3279
1481.0228
1504.0013
1524.3059
1541.9573
1557.0026
1569.5745
1579.9155
1587.3215
1590.6196
-8.3050292
-17.380056
-26.586007
-35.73206
-44.827615
-53.882602
-62.90258
-71.889655
-80.842741
-89.757759
-98.627819
-107.44334
-116.19228
-124.86038
-133.43155
-141.88834
-150.21249
-158.38566
-166.39013
-174.20966
-181.83042
-189.24191
-196.43793
-203.41758
-210.18616
-216.75607
-223.14759
-229.38955
-235.5198
-241.58561
-247.64368
-253.76002
-260.00954
-266.47579
-273.25076
-280.43304
-288.12286
-296.42307
-305.43802
-315.27069
-326.02074
-337.78225
-350.64123
-364.6735
-379.94236
-396.49637
-414.3672
-433.56767
-454.09042
-475.90556
-498.96008
-523.17674
-548.45284
-574.65967
-601.64158
-629.21619
-657.17462
-685.28209
-713.2789
-740.88175
-767.78564
-793.66607
-818.18195
-840.97892
-861.69323
-879.95622
-895.39919
-907.65877
-916.38267
-921.2356
-921.90544
-918.10939
-909.5992
-896.16881
-877.65597
-853.94733
-824.9881
-790.78484
-751.39819
-706.94228
-657.58826
-603.56102
-545.13633
-482.63683
-416.42636
-346.90341
-274.49415
-199.64517
-122.81595
-44.471385
34.925457
114.92012
195.07291
274.96431
354.19949
432.41194
509.26611
584.45923
657.72215
728.81947
797.54898
863.7405
927.25424
987.97879
1045.8288
1100.7428
1152.68
1201.6185
1247.5523
1290.4891
1330.4478
1367.4565
1401.5504
1432.7698
1461.1587
1486.7658
1509.6388
1529.8139
1547.3132
1562.1916
1574.5329
1584.4297
1591.1794
1594.0554
-8.2192923
-17.247054
-26.426514
-35.567182
-44.67198
-53.748035
-62.799597
-71.828109
-80.831939
-89.80633
-98.743471
-107.63259
-116.46016
-125.21019
-133.86461
-142.40379
-150.80714
-159.05385
-167.12367
-174.99783
-182.65997
-190.09718
-197.30097
-204.26835
-211.0028
-217.51519
-223.82464
-229.95924
-235.95653
-241.86398
-247.73909
-253.64899
-259.67052
-265.89038
-272.40485
-279.31513
-286.72498
-294.74254
-303.47721
-313.03741
-323.52873
-335.05134
-347.69747
-361.54928
-376.67629
-393.13312
-410.95731
-430.16706
-450.76006
-472.71077
-495.96965
-520.46239
-546.08786
-572.71876
-600.19918
-628.34535
-656.9458
-685.76186
-714.52862
-742.95631
-770.73208
-797.52236
-822.97576
-846.72651
-868.39851
-887.60992
-903.97828
-917.12613
-926.68695
-932.31144
-933.67397
-930.47907
-922.46669
-909.42101
-891.17066
-867.59528
-838.63658
-804.30071
-764.64872
-719.79726
-669.92247
-615.25678
-556.08566
-492.7432
-425.60627
-355.08774
-281.62918
-205.69312
-127.75509
-48.295696
32.206988
113.28459
194.48487
275.37734
355.55799
434.65291
512.32108
588.25597
662.18643
733.87658
803.12515
869.76404
933.65655
994.69514
1052.7989
1107.911
1159.996
1209.0367
1255.0323
1297.9951
1337.9483
1374.924
1408.9603
1440.1002
1468.3896
1493.8771
1516.6079
1536.6154
1553.9256
1568.5955
1580.6703
1590.1757
1596.477
1599.1067
-8.2064753
-17.20253
-26.353445
-35.480956
-44.58606
-53.674686
-62.750315
-71.813904
-80.863335
-89.893192
-98.894733
-107.85594
-116.76172
-125.59421
-134.3332
-142.95666
-151.44141
-159.76389
-167.90103
-175.83115
-183.53505
-190.99702
-198.20595
-205.15641
-211.84971
-218.29492
-224.50973
-230.52128
-236.36663
-242.09342
-247.75988
-253.43429
-259.19584
-265.13509
-271.35225
-277.9512
-285.0409
-292.73492
-301.1484
-310.39615
-320.59052
-331.8387
-344.24023
-357.8846
-372.84864
-389.1941
-406.96539
-426.18711
-446.86279
-468.97226
-492.47004
-517.28532
-543.31935
-570.44621
-598.50992
-627.32525
-656.67786
-686.32465
-715.99479
-745.39101
-774.19141
-802.05187
-828.60899
-853.48365
-876.28526
-896.61648
-914.07862
-928.27752
-938.82984
-945.36964
-947.55517
-945.07583
-937.65753
-925.07257
-907.13872
-883.72725
-854.77551
-820.28835
-780.32748
-735.01304
-684.5271
-629.1109
-569.06131
-504.72606
-436.49759
-364.80597
-290.11113
-212.8946
-133.65104
-52.879781
28.923259
111.27317
193.70281
275.76879
357.05624
437.18267
515.80066
592.59948
667.30579
739.68341
809.53237
876.68733
941.01547
1002.4141
1060.8078
1116.1456
1168.3983
1217.5552
1263.6213
1306.6149
1346.5648
1383.5077
1417.4863
1448.5469
1476.7379
1502.1088
1524.7032
1544.554
1561.6892
1576.1618
1587.9895
1597.1776
1603.1666
1605.6404
-8.1597281
-17.128366
-26.256938
-35.377157
-44.488444
-53.596305
-62.703832
-71.811608
-80.917018
-90.013894
-99.092423
-108.13916
-117.13724
-126.06667
-134.90478
-143.62685
-152.20673
-160.61775
-168.83358
-176.82926
-184.58227
-192.07372
-199.28941
-206.22112
-212.86761
-219.23581
-225.3417
-231.21126
-236.88093
-242.39851
-247.82293
-253.22382
-258.68325
-264.29609
-270.16616
-276.40147
-283.11697
-290.43229
-298.46934
-307.35037
-317.19556
-328.12031
-340.23258
-353.63041
-368.39909
-384.60868
-402.31154
-421.53977
-442.30356
-464.58904
-488.35555
-513.53634
-540.03555
-567.7284
-596.45924
-626.0412
-656.25669
-686.85764
-717.56643
-748.07727
-778.05787
-807.15202
-834.98249
-861.15482
-885.26166
-906.88776
-925.61564
-941.03178
-952.7333
-960.33485
-963.47598
-961.82836
-955.10157
-943.05388
-925.49054
-902.27284
-873.33248
-838.67256
-798.35586
-752.50613
-701.31231
-645.02583
-583.9568
-518.46888
-448.97278
-375.91878
-299.78833
-221.08527
-140.32669
-58.03391
25.276266
109.09957
192.95151
276.37362
358.93849
440.25372
519.96459
597.75564
673.35116
746.51477
817.04822
884.7895
949.61046
1011.4141
1070.1314
1125.7186
1178.1534
1227.4325
1273.5682
1316.5855
1356.5196
1393.4132
1427.3142
1458.2735
1486.3431
1511.5747
1534.0131
1553.6929
1570.6448
1584.9181
1596.5152
1605.4433
1611.2043
1613.5713
-8.1482757
-17.095559
-26.200438
-35.309681
-44.423025
-53.546557
-62.683533
-71.834464
-80.996376
-90.162391
-99.321594
-108.45902
-117.55586
-126.5898
-135.53547
-144.36512
-153.04933
-161.55791
-169.86089
-177.92959
-185.73777
-193.26286
-200.4872
-207.39929
-213.99496
-220.27864
-226.26429
-231.97647
-237.45075
-242.73507
-247.88894
-252.98355
-258.10413
-263.34995
-268.82884
-274.65389
-280.94636
-287.83277
-295.4427
-303.90682
-313.35421
-323.90957
-335.69052
-348.80481
-363.34747
-379.39803
-397.018
-416.2481
-437.10621
-459.58571
-483.65158
-509.24183
-536.26407
-564.59496
-594.07938
-624.52878
-655.72204
-687.40559
-719.29429
-751.07275
-782.39704
-812.89724
-842.18048
-869.83483
-895.43382
-918.54174
-938.71957
-955.53156
-968.55232
-977.37417
-981.615
-980.92601
-974.99783
-963.57242
-946.44058
-923.45183
-894.53071
-859.67841
-818.95903
-772.50032
-720.4991
-663.21845
-600.9837
-534.1769
-463.22995
-388.6165
-310.84301
-230.43917
-147.94809
-63.916517
21.114552
106.61853
192.09096
277.05611
361.07233
443.736
524.68429
603.5966
680.19485
754.24277
825.54443
893.94198
959.31293
1021.5671
1080.6432
1136.5055
1189.1403
1238.5527
1284.7632
1327.8049
1367.7203
1404.559
1438.3747
1469.2239
1497.1626
1522.2457
1544.5207
1564.025
1580.7922
1594.8698
1606.2547
1614.966
1620.5518
1622.8403
-8.1204274
-17.047683
-26.131315
-35.232326
-44.350751
-53.493772
-62.665193
-71.865677
-81.091987
-90.336535
-99.587222
-108.82742
-118.03618
-127.1886
-136.2563
-145.20818
-154.01113
-162.63104
-171.03385
-179.18667
-187.05906
-194.62431
-201.86078
-208.75324
-215.29417
-221.48507
-227.33753
-232.87441
-238.13022
-243.15293
-248.00255
-252.75203
-257.4901
-262.3207
-267.35638
-272.71582
-278.52731
-284.92523
-292.04783
-300.03524
-309.02662
-319.15726
-330.55565
-343.34063
-357.61822
-373.47876
-390.99414
-410.21492
-431.16775
-453.85427
-478.2461
-504.28665
-531.88763
-560.9273
-591.25136
-622.66953
-654.95687
-687.8538
-721.06688
-754.27007
-787.10647
-819.19081
-850.11268
-879.44047
-906.72616
-931.51087
-953.33116
-971.72601
-986.2444
-996.4532
-1001.9455
-1002.3492
-997.33301
-986.62024
-969.98516
-947.26365
-918.37143
-883.30733
-842.13681
-794.99208
-742.07878
-683.67321
-620.11804
-551.81639
-479.22444
-402.84274
-323.20646
-240.87509
-156.42166
-70.422149
16.554695
103.95672
191.25669
277.95926
363.60666
447.78275
530.11575
610.27952
687.99362
763.02232
835.17265
904.29185
970.26421
1033.0076
1092.4696
1148.6241
1201.4671
1251.0135
1297.2935
1340.3493
1380.2319
1416.9989
1450.7112
1481.4315
1509.2213
1534.1398
1556.2383
1575.5582
1592.1362
1606.0205
1617.2082
1625.7331
1631.177
1633.4036
-8.1084951
-17.017015
-26.077062
-35.167072
-44.288262
-53.449529
-62.655657
-71.907739
-81.202429
-90.531472
-99.881539
-109.23421
-118.56621
-127.84978
-137.05323
-146.14172
-155.07805
-163.82375
-172.34015
-180.58969
-188.53719
-196.15126
-203.40575
-210.28121
-216.76625
-222.859
-228.56829
-233.91491
-238.93209
-243.6676
-248.18179
-252.54958
-256.86369
-261.23291
-265.77452
-270.61375
-275.88669
-281.73639
-288.31077
-295.76058
-304.23626
-313.88496
-324.84745
-337.25499
-351.22602
-366.8631
-384.24981
-403.44787
-424.49391
-447.39889
-472.14214
-498.67319
-526.90863
-556.72869
-587.98022
-620.47125
-653.97277
-688.21878
-722.90677
-757.69904
-792.22436
-826.08046
-858.83738
-890.04156
-919.2208
-945.8902
-969.55879
-989.73702
-1005.9449
-1017.7203
-1024.6283
-1026.2699
-1022.2893
-1012.3881
-996.32177
-973.9105
-945.0593
-909.76422
-868.09222
-820.18046
-766.24447
-706.57543
-641.53562
-571.55209
-497.1087
-418.73669
-337.00411
-252.50444
-165.84494
-77.634963
11.52512
101.05412
190.39899
279.04234
366.50839
452.36714
536.23709
617.7863
696.73217
772.84004
845.92081
915.82791
982.45365
1045.7253
1105.6009
1162.0652
1215.1255
1264.8078
1311.1531
1354.2139
1394.0512
1430.7313
1464.3235
1494.8975
1522.5213
1547.2595
1569.1684
1588.2941
1604.6775
1618.3694
1629.3707
1637.7291
1643.0519
1645.2268
-8.0862988
-16.97431
-26.009421
-35.087982
-44.212393
-53.393666
-62.6379
-71.946856
-81.317203
-90.740043
-100.20076
-109.67898
-119.14889
-128.57959
-137.93574
-147.17834
-156.26567
-165.1544
-173.80076
-182.16193
-190.19742
-197.87061
-205.15027
-212.01214
-218.44045
-224.42945
-229.98476
-235.12472
-239.88103
-244.30098
-248.44516
-252.39074
-256.23513
-260.09118
-264.08161
-268.33962
-273.0096
-278.24416
-284.20199
-291.04561
-298.93805
-308.03975
-318.50516
-330.47947
-344.09506
-359.46816
-376.69555
-395.85148
-416.98392
-440.1142
-465.23074
-492.28984
-521.2138
-551.88542
-584.15292
-617.82262
-652.66133
-688.39616
-724.71485
-761.26696
-797.66558
-833.48975
-868.2879
-901.58208
-932.87322
-961.64735
-987.38268
-1009.5576
-1027.6595
-1041.1938
-1049.6935
-1052.7298
-1049.9182
-1040.9364
-1025.5181
-1003.4657
-974.67164
-939.12821
-896.90362
-848.14076
-793.0661
-731.98743
-665.2891
-593.42521
-516.91099
-436.31259
-352.23543
-265.31176
-176.18775
-85.510744
6.0830191
97.979491
189.59656
280.39216
369.87047
457.58633
543.14777
626.2169
706.50929
783.79207
857.88109
928.63727
995.96244
1059.7949
1120.1047
1176.8891
1230.1683
1279.981
1326.3804
1369.4307
1409.2039
1445.7765
1479.2269
1509.6331
1537.0704
1561.6098
1583.3135
1602.2332
1618.4145
1631.9124
1642.7331
1650.9374
1656.1516
1658.2809
-8.0693969
-16.934453
-25.940167
-35.003532
-44.128661
-53.32916
-62.612804
-71.982274
-81.434394
-90.959658
-100.54209
-110.15923
-119.78248
-129.37747
-138.90485
-148.32104
-157.57929
-166.63088
-175.42638
-183.91711
-192.05666
-199.80254
-207.1178
-213.97275
-220.34663
-226.22926
-231.62255
-236.5419
-241.01719
-245.0949
-248.83578
-252.31931
-255.64733
-258.93738
-262.31869
-265.93249
-269.93234
-274.48141
-279.75036
-285.91473
-293.15156
-301.63601
-311.53781
-323.01769
-336.22357
-351.28697
-368.31944
-387.40922
-408.6172
-431.97613
-457.48494
-485.10756
-514.77285
-546.36729
-579.74028
-614.69672
-650.99917
-688.36753
-726.47905
-764.9696
-803.43518
-841.4344
-878.49195
-914.10298
-947.73864
-978.85262
-1006.8888
-1031.2897
-1051.5061
-1067.0068
-1077.2892
-1081.8901
-1080.3933
-1072.4487
-1057.7655
-1036.1261
-1007.4086
-971.59964
-928.76843
-879.06505
-822.72779
-760.08292
-691.53944
-617.5819
-538.761
-455.68237
-368.99386
-279.37169
-187.50624
-94.087849
0.20665534
94.726205
188.85611
282.02679
373.72035
463.47512
550.88802
635.61519
717.37088
795.92497
871.09954
942.76454
1010.833
1075.256
1136.0175
1193.1291
1246.6254
1296.5595
1342.9983
1386.0192
1425.7065
1462.1478
1495.4318
1525.6461
1552.8738
1577.1936
1598.6742
1617.3736
1633.3429
1646.6425
1657.2843
1665.3408
1670.4531
1672.5401
-8.0429313
-16.879813
-25.851016
-34.895587
-44.019461
-53.239231
-62.564678
-71.999634
-81.541206
-91.179304
-100.89651
-110.66811
-120.46244
-130.24136
-139.96107
-149.57294
-159.0247
-168.26165
-177.22806
-185.86876
-194.13075
-201.96498
-209.32809
-216.18429
-222.50716
-228.28147
-233.50486
-238.18927
-242.3624
-246.06958
-249.37159
-252.35019
-255.11162
-257.77893
-260.48818
-263.38924
-266.6457
-270.43239
-274.93312
-280.3378
-286.83893
-294.62802
-303.89174
-314.80806
-327.54221
-342.24276
-359.0377
-378.03091
-399.2978
-422.88391
-448.80002
-477.01883
-507.47687
-540.06512
-574.63411
-610.98779
-648.88441
-688.03631
-728.10964
-768.72557
-809.46165
-849.85426
-889.40214
-927.57091
-963.79885
-997.50388
-1028.0917
-1054.9649
-1077.5335
-1095.2251
-1107.497
-1113.8477
-1113.8251
-1107.0476
-1093.1966
-1072.0322
-1043.4156
-1007.3262
-963.83361
-913.0965
-855.36591
-790.98847
-720.40073
-644.12135
-562.74098
-476.9099
-387.32395
-294.7092
-199.80608
-103.35359
-6.0743396
91.338998
188.23531
284.01448
378.13441
470.11557
559.54328
646.06783
729.4029
809.32234
885.65603
958.28478
1027.1348
1092.172
1153.3962
1210.8354
1264.5405
1314.5806
1361.0382
1404.0052
1443.5793
1479.861
1512.9501
1542.9443
1569.9362
1594.0125
1615.2494
1633.7116
1649.4565
1662.5503
1673.0109
1680.9212
1685.9344
1687.9805
-8.0145323
-16.816862
-25.745953
-34.76571
-43.884331
-53.12186
-62.490437
-71.995293
-81.633952
-91.395752
-101.26175
-111.20476
-121.18979
-131.17456
-141.11036
-150.94302
-160.61415
-170.06244
-179.22523
-188.04013
-196.44683
-204.38894
-211.81594
-218.6852
-224.96388
-230.63101
-235.67931
-240.11665
-243.96813
-247.27748
-250.10526
-252.53541
-254.67867
-256.66415
-258.6352
-260.75095
-263.18595
-266.12781
-269.77473
-274.33245
-280.01055
-287.0186
-295.562
-305.83787
-318.03062
-332.30772
-348.81551
-367.67525
-388.9786
-412.78535
-439.11964
-467.96421
-499.26437
-532.91654
-568.77272
-606.63624
-646.26113
-687.35196
-729.5632
-772.50035
-815.72117
-858.73799
-901.02131
-942.00443
-981.08952
-1017.655
-1051.0643
-1080.6757
-1105.8535
-1125.9795
-1140.4661
-1148.7687
-1150.3949
-1144.9273
-1132.0162
-1111.3961
-1082.9089
-1046.5244
-1002.3135
-950.44354
-891.1795
-824.89049
-752.0436
-673.19572
-588.98237
-500.10419
-407.31129
-311.38614
-213.12579
-113.32421
-12.755597
87.840698
187.77295
286.4073
383.17518
477.57796
569.18892
657.65292
742.68405
824.06166
901.62532
975.26881
1044.9338
1110.6034
1172.2954
1230.0565
1283.9559
1334.0808
1380.5307
1423.4138
1462.8427
1498.9314
1531.7926
1561.535
1588.2612
1612.0669
1633.0364
1651.2417
1666.7469
1679.6245
1689.898
1697.66
1702.5739
1704.5792
-7.9745882
-16.733143
-25.610896
-34.598798
-43.707556
-52.961114
-62.374329
-71.954074
-81.698415
-91.596125
-101.62662
-111.76003
-121.95772
-132.17285
-142.35133
-152.43289
-162.35239
-172.04127
-181.42918
-190.44577
-199.0226
-207.09514
-214.60488
-221.5015
-227.74496
-233.30776
-238.17698
-242.35576
-245.86607
-248.74959
-251.06632
-252.90227
-254.37279
-255.6135
-256.77552
-258.02791
-259.55716
-261.56475
-264.26466
-267.87999
-272.63912
-278.77153
-286.50332
-296.05276
-307.62548
-321.40992
-337.57275
-356.25455
-377.56511
-401.58013
-428.33876
-457.83515
-490.02464
-524.81033
-562.04588
-601.5345
-643.02619
-686.21757
-730.75088
-776.21509
-822.1468
-868.03247
-913.312
-957.38348
-999.60951
-1039.3251
-1075.8468
-1108.4838
-1136.5496
-1159.3751
-1176.3222
-1186.7979
-1190.265
-1186.2655
-1174.4147
-1154.4184
-1126.0952
-1089.4039
-1044.4164
-991.3095
-930.36301
-861.97065
-786.63342
-704.95081
-617.60874
-525.36461
-429.02981
-329.45062
-227.48814
-123.99842
-19.813722
84.274299
187.52871
289.27847
388.92623
485.95303
579.91992
670.46695
757.30999
840.23579
919.09584
993.79944
1064.3063
1130.6193
1192.7769
1250.8466
1304.9186
1355.0998
1401.5088
1444.2716
1483.5172
1519.3746
1551.97
1581.4244
1607.8511
1631.3555
1652.0307
1669.9563
1685.2036
1697.8514
1707.929
1715.5375
1720.3494
1722.313
-7.926428
-16.630161
-25.444813
-34.391511
-43.483932
-52.750453
-62.209036
-71.868461
-81.727457
-91.774228
-101.98641
-112.33122
-122.76601
-133.23894
-143.69001
-154.05225
-164.25309
-174.21599
-183.86213
-193.11237
-201.88926
-210.11926
-217.73493
-224.67736
-230.8984
-236.36315
-241.05221
-244.96325
-248.11446
-250.54493
-252.31366
-253.50852
-254.24958
-254.67932
-254.95717
-255.26281
-255.79568
-256.77234
-258.42399
-260.9928
-264.7278
-269.88037
-276.69942
-285.42656
-296.29089
-309.50403
-325.25514
-343.70624
-364.98727
-389.19168
-416.37531
-446.54533
-479.66848
-515.65594
-554.36342
-595.59455
-639.09558
-684.55508
-731.60274
-779.81014
-828.69142
-877.70534
-926.25877
-973.71153
-1019.383
-1062.5605
-1102.5089
-1138.4831
-1169.74
-1195.5538
-1215.2299
-1228.1216
-1233.6409
-1231.2844
-1220.628
-1201.3449
-1173.2269
-1136.2191
-1090.3947
-1035.9401
-973.15121
-902.44855
-824.3705
-739.56401
-648.77149
-552.81425
-452.57295
-348.96606
-242.92711
-135.38229
-27.229196
80.681936
187.56394
292.70486
395.47623
495.33765
591.83794
684.61336
773.38329
857.94419
938.1622
1013.965
1085.3335
1152.293
1214.9058
1273.2629
1327.4776
1377.6789
1424.0065
1466.6057
1505.6236
1541.2055
1573.4921
1602.6175
1628.7067
1651.8754
1672.2258
1689.8459
1704.8141
1717.2158
1727.0857
1734.5329
1739.2382
1741.1584
-7.8631564
-16.497859
-25.235292
-34.12964
-43.197944
-52.473565
-61.977984
-71.722158
-81.705607
-91.915936
-102.32885
-112.90837
-123.60742
-134.3687
-145.12572
-155.80413
-166.32325
-176.59772
-186.53943
-196.05954
-205.07066
-213.48925
-221.23797
-228.24829
-234.46298
-239.83876
-244.34886
-247.98459
-250.75964
-252.70989
-253.89283
-254.39791
-254.34996
-253.89866
-253.21225
-252.48178
-251.92064
-251.76177
-252.25513
-253.66376
-256.25932
-260.31728
-266.11166
-273.90978
-283.96662
-296.51939
-311.78214
-329.94059
-351.14702
-375.51474
-403.11802
-433.97897
-468.07708
-505.33334
-545.60591
-588.69952
-634.35705
-682.25906
-732.0224
-783.20055
-835.28395
-887.70182
-939.82553
-990.97347
-1040.4179
-1087.3938
-1131.1094
-1170.7591
-1205.5375
-1234.6551
-1257.3549
-1272.9296
-1280.7345
-1280.2151
-1270.9033
-1252.4354
-1224.5719
-1187.2416
-1140.5183
-1084.5992
-1019.7969
-946.56081
-865.47057
-777.22586
-682.63237
-582.58339
-478.0379
-369.99605
-259.47344
-147.47547
-34.973348
77.117128
187.95302
296.7775
402.92854
505.84338
605.05897
700.20914
791.01905
877.29767
958.92904
1035.8627
1108.1038
1175.7042
1238.7525
1297.3663
1351.6847
1401.8614
1448.0589
1490.4439
1529.1828
1564.4386
1596.3677
1625.1181
1650.8273
1673.6219
1693.6136
1710.8988
1725.5638
1737.7003
1747.3481
1754.6238
1759.2165
1761.0908
-7.785316
-16.334158
-24.977284
-33.805532
-42.839867
-52.119275
-61.669215
-71.503109
-81.621385
-92.011015
-102.64558
-113.48557
-124.47909
-135.56278
-146.66306
-157.6975
-168.57648
-179.20503
-189.48479
-199.31625
-208.60109
-217.24467
-225.15868
-232.26388
-238.49283
-243.79279
-248.12859
-251.48421
-253.868
-255.31185
-255.8711
-255.63644
-254.73742
-253.33119
-251.59535
-249.73305
-247.97272
-246.56503
-245.78041
-245.90466
-247.23427
-250.07118
-254.71698
-261.46731
-270.60567
-282.39749
-297.08425
-314.87788
-335.95535
-360.45215
-388.46285
-420.0266
-455.13716
-493.72722
-535.6579
-580.73604
-628.70152
-679.2271
-731.91662
-786.30488
-841.8575
-897.97237
-953.98283
-1009.1626
-1062.7326
-1113.8706
-1161.7225
-1205.4159
-1244.076
-1276.8431
-1302.8898
-1321.4414
-1331.79
-1333.3233
-1325.5239
-1307.9867
-1280.4361
-1242.7808
-1195.0953
-1137.5878
-1070.5882
-994.57735
-910.17978
-818.15381
-719.37595
-614.82058
-505.53526
-392.61279
-277.16177
-160.27726
-43.013375
73.640657
188.78003
301.5988
411.399
517.59473
619.71183
717.38362
810.34386
898.41751
981.51026
1059.5974
1132.7128
1200.9378
1264.3914
1323.221
1377.5943
1427.692
1473.7019
1515.8138
1554.2151
1589.0876
1620.6045
1648.9287
1674.2106
1696.5882
1716.1834
1733.1014
1747.4359
1759.2853
1768.6941
1775.7863
1780.2588
1782.0842
-7.687423
-16.129924
-24.658562
-33.404457
-42.393064
-51.669692
-61.264277
-71.193012
-81.457349
-92.043552
-102.92286
-114.05185
-125.37332
-136.81728
-148.30235
-159.73724
-171.02259
-182.05284
-192.71843
-202.90815
-212.51159
-221.42193
-229.53865
-236.7706
-243.03893
-248.28025
-252.44982
-255.5232
-257.50241
-258.41451
-258.31196
-257.28616
-255.47128
-253.03218
-250.15633
-247.05975
-243.987
-241.20796
-239.01527
-237.71965
-237.64474
-239.12149
-242.48183
-248.05254
-256.14848
-267.06615
-281.0773
-298.42275
-319.30672
-343.88947
-372.28772
-404.56051
-440.71695
-480.70327
-524.38474
-571.57191
-622.00148
-675.33884
-731.17492
-789.02544
-848.33018
-908.454
-968.68969
-1028.2628
-1086.3387
-1142.0327
-1194.4218
-1242.5602
-1285.4963
-1322.2916
-1352.0409
-1373.8938
-1387.0718
-1390.8977
-1384.7991
-1368.3241
-1341.1554
-1303.1777
-1254.4657
-1195.2388
-1125.8447
-1046.7977
-958.77146
-862.58917
-759.20658
-649.68951
-535.18584
-416.8936
-296.02699
-173.78267
-51.308322
70.324584
190.14266
307.28632
421.01927
530.73213
635.94079
736.28068
831.49766
921.43686
1006.0302
1085.2833
1159.2629
1228.0847
1291.9017
1350.8946
1405.2629
1455.217
1500.9722
1542.7432
1580.7402
1615.165
1646.2085
1674.0495
1698.8519
1720.7655
1739.9226
1756.4374
1770.4113
1781.949
1791.0997
1797.9944
1802.338
1804.111
-7.5681586
-15.880201
-24.270494
-32.914629
-41.843253
-51.108813
-60.746267
-70.774898
-81.197283
-91.998882
-103.14831
-114.59782
-126.28435
-138.13063
-150.04672
-161.93166
-173.6754
-185.16083
-196.26614
-206.86726
-216.84055
-226.0657
-234.42873
-241.82525
-248.16364
-253.36854
-257.38434
-260.17694
-261.74092
-262.09749
-261.29532
-259.4259
-256.62781
-253.07377
-248.96167
-244.52112
-240.01399
-235.73092
-231.98871
-229.12524
-227.49391
-227.45746
-229.38115
-233.62594
-240.54121
-250.45766
-263.68031
-280.48187
-301.09646
-325.71203
-354.46938
-387.45061
-424.68111
-466.12212
-511.64698
-561.07004
-614.12421
-670.46864
-729.68171
-791.25989
-854.6163
-919.08115
-983.90418
-1048.2593
-1111.2517
-1171.9284
-1229.291
-1282.3126
-1329.9561
-1371.1957
-1405.0392
-1430.5518
-1446.8758
-1453.2614
-1449.0746
-1433.8107
-1407.1052
-1368.8136
-1319.0103
-1257.9256
-1185.9254
-1103.5588
-1011.5533
-910.80359
-802.35403
-687.37363
-567.12415
-442.92334
-316.10563
-187.98304
-59.80898
67.252903
192.1532
313.97394
431.93826
545.41324
653.9068
757.05977
854.63453
946.50138
1032.6237
1113.0431
1187.8641
1257.2415
1321.3667
1380.4576
1434.7488
1484.4832
1529.9061
1571.2592
1608.7767
1642.6817
1673.1842
1700.479
1724.7443
1746.1424
1764.8159
1780.8881
1794.4682
1805.6671
1814.5386
1821.2201
1825.4248
1827.1415
-7.422712
-15.575719
-23.79986
-32.319537
-41.171373
-50.415864
-60.093587
-70.227253
-80.820648
-91.858283
-103.30582
-115.11071
-127.20339