/*--------------------------------*- C++ -*----------------------------------*\
| =========                 |                                                 |
| \\      /  F ield         | foam-extend: Open Source CFD                    |
|  \\    /   O peration     | Version:     4.1                                |
|   \\  /    A nd           | Web:         http://www.foam-extend.org         |
|    \\/     M anipulation  |                                                 |
\*---------------------------------------------------------------------------*/
FoamFile
{
    version     2.0;
    format      ascii;
    class       volScalarField;
    location    "0.75";
    object      rAU;
}
// * * * * * * * * * * * * * * * * * * * * * * * * * * * * * * * * * * * * * //

dimensions      [0 0 1 0 0 0 0];

internalField   nonuniform List<scalar> 
16796
(
0.00012990991
0.00012976746
0.00012963988
0.00012950121
0.0001293502
0.00012918857
0.00012901491
0.00012883114
0.00012863611
0.000128432
0.00012821796
0.00012799642
0.00012776678
0.0001275317
0.0001272908
0.0001270469
0.00012679976
0.00012655232
0.00012630439
0.00012605895
0.00012581581
0.00012557789
0.00012534491
0.00012511966
0.00012490172
0.00012469368
0.00012449488
0.00012430766
0.00012413109
0.00012396719
0.00012381472
0.00012367498
0.00012354791
0.00012343216
0.00012332886
0.0001232359
0.00012315409
0.00012308098
0.00012301706
0.00012295961
0.00012290885
0.00012286195
0.00012281843
0.0001227763
0.00012273408
0.00012269017
0.00012264299
0.00012259115
0.00012253312
0.00012246765
0.00012239356
0.00012230989
0.00012221578
0.00012211076
0.00012199437
0.00012186652
0.00012172733
0.00012157718
0.00012141665
0.0001212467
0.0001210683
0.00012088277
0.00012069159
0.00012049638
0.0001202989
0.00012010099
0.00011990467
0.00011971181
0.0001195244
0.00011934439
0.00011917364
0.00011901388
0.00011886689
0.00011873406
0.00011861674
0.0001185161
0.00011843308
0.00011836837
0.0001183226
0.00011829589
0.00011828839
0.0001182884
0.00011830001
0.00011833067
0.00011838003
0.00011844737
0.00011853171
0.00011863191
0.00011874666
0.00011887452
0.00011901409
0.00011916366
0.00011932164
0.00011948637
0.00011965617
0.0001198294
0.0001200044
0.00012017972
0.00012035374
0.00012052508
0.00012069239
0.00012085444
0.00012101005
0.0001211583
0.00012129812
0.00012142874
0.00012154941
0.00012165952
0.0001217585
0.000121846
0.00012192158
0.00012198499
0.00012203604
0.00012207462
0.00012210064
0.00012211424
0.00012210445
0.0001220816
0.00012204731
0.00012200234
0.00012194796
0.00012188618
0.00012181306
0.000121704
0.00011740954
0.00011735331
0.00011732224
0.00011728498
0.00011723892
0.00011718528
0.00011712263
0.00011705267
0.00011697423
0.00011688925
0.00011679679
0.00011669899
0.00011659511
0.00011648746
0.0001163755
0.00011626165
0.00011614549
0.00011602955
0.00011591344
0.00011579974
0.00011568805
0.00011558092
0.00011547789
0.0001153814
0.00011529088
0.00011520859
0.00011513379
0.00011506853
0.00011501183
0.00011496548
0.00011492825
0.00011490127
0.00011488446
0.00011487648
0.00011487839
0.00011488818
0.00011490663
0.00011493145
0.00011496313
0.00011499915
0.00011503978
0.00011508243
0.00011512341
0.00011516502
0.00011520793
0.0001152508
0.00011528926
0.00011531967
0.00011534345
0.00011535957
0.00011536711
0.0001153653
0.00011535353
0.00011533153
0.00011529903
0.00011525613
0.00011520311
0.00011514049
0.00011506896
0.0001149896
0.00011490343
0.00011481182
0.00011471627
0.00011461839
0.00011451992
0.00011442261
0.00011432844
0.00011423915
0.00011415662
0.00011408266
0.000114019
0.0001139672
0.00011392887
0.00011390525
0.00011389753
0.0001139067
0.00011393357
0.00011397865
0.00011403867
0.00011408499
0.00011414979
0.00011422237
0.00011430645
0.00011440868
0.00011452868
0.00011466601
0.00011482003
0.00011498991
0.00011517469
0.00011537324
0.00011558444
0.00011580689
0.00011603924
0.00011628005
0.00011652785
0.00011678116
0.00011703847
0.00011729844
0.00011755955
0.00011782046
0.00011807987
0.00011833655
0.0001185893
0.00011883716
0.00011907904
0.00011931406
0.00011954142
0.00011976038
0.00011997026
0.00012017061
0.00012036082
0.00012054053
0.00012070939
0.00012086712
0.00012101346
0.00012114837
0.00012126077
0.00012136053
0.0001214489
0.00012152612
0.0001215926
0.00012163437
0.00012166322
0.00012167728
0.00011621821
0.00011615089
0.00011609923
0.00011604231
0.00011597855
0.00011590955
0.00011583421
0.00011575447
0.00011566944
0.00011558125
0.00011548916
0.0001153954
0.00011529936
0.00011520336
0.00011510687
0.00011501227
0.00011491903
0.00011482955
0.00011474329
0.00011466258
0.00011458683
0.00011451827
0.00011445619
0.00011440268
0.00011435684
0.00011432059
0.00011429283
0.00011427524
0.00011426647
0.00011426794
0.00011427805
0.00011429759
0.00011432611
0.00011436196
0.00011440588
0.00011445558
0.00011451156
0.00011457131
0.00011461776
0.00011466667
0.00011472034
0.00011477635
0.00011483121
0.00011488737
0.00011494562
0.00011500473
0.00011506044
0.00011510916
0.00011515232
0.0001151826
0.0001151878
0.00011518198
0.00011516485
0.00011513649
0.00011509698
0.00011504678
0.00011498652
0.00011491705
0.00011483938
0.00011475487
0.00011466482
0.00011457081
0.00011447454
0.00011437777
0.00011428235
0.00011419011
0.00011410305
0.00011402291
0.00011395153
0.00011389063
0.00011384182
0.00011380654
0.00011378622
0.0001137819
0.00011379457
0.00011382501
0.00011387376
0.00011393975
0.00011396907
0.00011398361
0.00011401589
0.00011406639
0.00011413546
0.00011422322
0.00011432952
0.00011445407
0.00011459633
0.00011475562
0.00011493104
0.00011512154
0.00011532607
0.00011554324
0.00011577172
0.00011601006
0.00011625678
0.00011651037
0.00011676926
0.00011703205
0.00011729715
0.00011756316
0.0001178287
0.00011809244
0.00011835312
0.00011860968
0.00011886094
0.00011910595
0.00011934383
0.00011957376
0.00011979499
0.00012000701
0.00012020913
0.00012040094
0.00012058201
0.00012075203
0.00012091066
0.00012105779
0.00012119317
0.00012131668
0.00012142818
0.00012152729
0.00012161371
0.00012167164
0.00012171794
0.00012172737
0.00011609471
0.00011601891
0.00011595796
0.00011589138
0.00011581811
0.00011574004
0.00011565623
0.00011556877
0.00011547689
0.00011538284
0.00011528598
0.00011518863
0.00011509025
0.00011499322
0.00011489704
0.0001148041
0.00011471388
0.00011462876
0.00011454814
0.00011447433
0.00011440665
0.00011434725
0.00011429531
0.00011425281
0.00011421876
0.00011419493
0.00011418009
0.00011417578
0.00011418052
0.00011419559
0.00011421924
0.00011425211
0.00011429364
0.00011434202
0.00011439787
0.00011445878
0.00011450665
0.00011454834
0.00011457911
0.00011461508
0.00011465887
0.00011470833
0.0001147635
0.00011482291
0.00011488551
0.00011495005
0.00011501519
0.00011507969
0.00011514205
0.00011519466
0.00011521655
0.00011520242
0.00011517618
0.00011513808
0.00011508838
0.00011502774
0.00011495699
0.00011487721
0.0001147896
0.00011469575
0.00011459714
0.00011449557
0.00011439289
0.00011429104
0.00011419198
0.00011409768
0.00011401023
0.00011393142
0.00011386315
0.00011380713
0.00011376497
0.00011373805
0.00011372776
0.00011373502
0.00011376073
0.00011380552
0.00011386978
0.00011391847
0.00011389793
0.00011389428
0.00011390856
0.00011394148
0.00011399355
0.00011406506
0.00011415602
0.00011426628
0.00011439542
0.00011454285
0.00011470776
0.00011488916
0.00011508601
0.00011529696
0.00011552067
0.00011575569
0.00011600048
0.0001162535
0.00011651312
0.00011677788
0.00011704611
0.00011731633
0.00011758708
0.00011785696
0.0001181246
0.00011838889
0.00011864854
0.00011890255
0.00011914993
0.00011938981
0.00011962137
0.00011984402
0.00012005704
0.00012025992
0.00012045222
0.00012063352
0.00012080347
0.00012096189
0.00012110844
0.00012124295
0.00012136514
0.00012147461
0.00012157112
0.0001216518
0.0001217227
0.00012173914
0.00011606657
0.00011598503
0.00011591826
0.00011584557
0.00011576608
0.00011568184
0.00011559203
0.0001154988
0.0001154015
0.00011530241
0.00011520098
0.00011509961
0.00011499781
0.00011489801
0.00011479975
0.00011470548
0.00011461471
0.00011452982
0.00011445026
0.00011437831
0.0001143133
0.00011425737
0.00011420968
0.00011417217
0.00011414381
0.00011412632
0.00011411841
0.00011412155
0.00011413419
0.00011415751
0.00011418969
0.00011423125
0.00011428153
0.0001143386
0.00011440296
0.00011444732
0.00011446592
0.0001144815
0.00011450717
0.00011454103
0.00011458394
0.00011463381
0.00011469069
0.00011475315
0.0001148201
0.00011489026
0.00011496223
0.00011503467
0.00011510598
0.00011517466
0.00011523079
0.00011522325
0.00011518797
0.00011514011
0.00011508011
0.00011500881
0.00011492726
0.00011483672
0.00011473863
0.00011463477
0.00011452685
0.00011441687
0.00011430685
0.00011419892
0.0001140952
0.00011399779
0.00011390888
0.00011383036
0.00011376418
0.00011371209
0.0001136757
0.00011365637
0.00011365541
0.0001136737
0.00011371201
0.00011377086
0.00011385047
0.00011385166
0.0001138125
0.00011379031
0.00011378636
0.00011380156
0.00011383659
0.00011389192
0.00011396772
0.00011406395
0.00011418034
0.00011431635
0.00011447126
0.0001146441
0.00011483389
0.00011503926
0.00011525886
0.00011549122
0.00011573476
0.00011598786
0.00011624886
0.0001165162
0.00011678814
0.00011706313
0.00011733961
0.0001176161
0.00011789115
0.00011816354
0.00011843195
0.00011869525
0.00011895242
0.0001192025
0.00011944461
0.0001196781
0.00011990218
0.00012011631
0.00012031997
0.00012051271
0.00012069411
0.00012086395
0.00012102181
0.00012116743
0.00012130046
0.00012142045
0.00012152716
0.00012161594
0.00012169452
0.00012172538
0.00011604505
0.00011595749
0.00011588489
0.00011580626
0.00011572077
0.00011563053
0.0001155348
0.00011543583
0.00011533302
0.00011522874
0.0001151225
0.00011501676
0.00011491109
0.00011480798
0.00011470703
0.00011461072
0.00011451861
0.00011443313
0.00011435373
0.00011428273
0.00011421947
0.00011416609
0.00011412174
0.00011408836
0.00011406488
0.00011405299
0.00011405135
0.00011406138
0.00011408145
0.00011411269
0.00011415315
0.00011420328
0.00011426229
0.00011432814
0.00011438634
0.00011439146
0.00011439267
0.00011440386
0.00011442629
0.00011445815
0.00011450037
0.00011455091
0.00011460983
0.00011467572
0.00011474745
0.00011482371
0.00011490303
0.00011498395
0.00011506477
0.00011514383
0.00011521945
0.0001152435
0.00011519904
0.00011514119
0.00011507056
0.00011498819
0.00011489531
0.00011479342
0.00011468418
0.00011456959
0.00011445158
0.00011433235
0.00011421415
0.00011409926
0.00011399001
0.00011388861
0.00011379739
0.00011371835
0.0001136535
0.00011360464
0.00011357338
0.00011356108
0.00011356902
0.00011359799
0.00011364866
0.00011372142
0.00011381636
0.00011377219
0.00011371385
0.00011367269
0.00011365018
0.00011364744
0.00011366534
0.0001137045
0.00011376526
0.00011384771
0.00011395165
0.00011407665
0.00011422204
0.00011438688
0.00011457019
0.00011477061
0.00011498676
0.00011521711
0.00011546005
0.0001157139
0.00011597689
0.00011624742
0.00011652364
0.0001168039
0.00011708658
0.00011737009
0.00011765291
0.00011793374
0.00011821115
0.00011848397
0.00011875109
0.00011901149
0.00011926423
0.0001195086
0.00011974377
0.00011996914
0.00012018414
0.00012038829
0.00012058112
0.00012076237
0.00012093157
0.00012108842
0.00012123252
0.00012136345
0.00012148086
0.00012157857
0.00012166687
0.00012170966
0.00011602279
0.00011592954
0.00011585105
0.00011576635
0.00011567467
0.00011557821
0.0001154763
0.00011537127
0.00011526259
0.00011515271
0.0001150412
0.00011493059
0.00011482053
0.00011471356
0.00011460935
0.00011451043
0.00011441641
0.00011432974
0.00011424995
0.00011417935
0.00011411733
0.00011406601
0.00011402457
0.00011399493
0.00011397601
0.00011396946
0.0001139739
0.00011399072
0.0001140182
0.0001140574
0.00011410628
0.0001141652
0.00011423324
0.00011430826
0.00011432955
0.00011431277
0.00011430848
0.00011431531
0.00011433463
0.0001143647
0.00011440652
0.00011445809
0.00011451951
0.00011458933
0.00011466643
0.00011474942
0.00011483675
0.00011492687
0.00011501792
0.00011510811
0.00011519556
0.00011526265
0.00011521001
0.00011514193
0.00011506032
0.0001149664
0.00011486164
0.00011474775
0.00011462662
0.00011450048
0.00011437151
0.00011424213
0.0001141148
0.00011399202
0.00011387627
0.00011376997
0.00011367556
0.00011359515
0.00011353085
0.00011348451
0.00011345778
0.00011345201
0.00011346844
0.0001135078
0.00011357066
0.0001136573
0.00011376599
0.00011368085
0.00011360272
0.00011354209
0.00011350065
0.0001134797
0.00011348033
0.00011350332
0.00011354915
0.00011361802
0.00011370985
0.00011382427
0.00011396064
0.00011411805
0.00011429553
0.00011449169
0.00011470511
0.0001149342
0.0001151773
0.00011543263
0.00011569835
0.00011597276
0.00011625393
0.00011654011
0.00011682958
0.00011712066
0.00011741175
0.00011770145
0.00011798827
0.00011827095
0.00011854832
0.0001188193
0.00011908287
0.00011933829
0.00011958467
0.00011982136
0.00012004776
0.00012026334
0.00012046759
0.00012066022
0.00012084072
0.00012100874
0.00012116389
0.00012130577
0.00012143395
0.00012154101
0.00012164008
0.00012169517
0.00011599948
0.0001159001
0.00011581538
0.0001157243
0.00011562612
0.0001155231
0.00011541465
0.00011530318
0.00011518822
0.0001150723
0.00011495508
0.00011483915
0.00011472423
0.00011461293
0.00011450499
0.000114403
0.00011430661
0.00011421834
0.00011413775
0.00011406719
0.00011400606
0.00011395653
0.00011391776
0.00011389168
0.00011387719
0.00011387592
0.00011388646
0.00011391014
0.00011394518
0.00011399257
0.00011405018
0.00011411826
0.0001141958
0.00011427007
0.00011424791
0.00011422444
0.00011421457
0.00011421704
0.00011423331
0.00011426175
0.0001143034
0.0001143563
0.00011442058
0.0001144948
0.00011457778
0.00011466809
0.00011476408
0.00011486409
0.00011496612
0.00011506819
0.00011516823
0.00011526416
0.00011522216
0.0001151435
0.00011505044
0.0001149444
0.00011482707
0.0001147004
0.00011456653
0.00011442794
0.00011428704
0.0001141465
0.00011400901
0.0001138773
0.00011375406
0.00011364185
0.0001135433
0.00011346065
0.00011339609
0.00011335155
0.00011332872
0.00011332896
0.00011335349
0.00011340296
0.00011347788
0.0001135784
0.0001136927
0.00011357809
0.00011347947
0.00011339876
0.00011333788
0.00011329839
0.00011328152
0.00011328825
0.00011331918
0.00011337465
0.00011345464
0.00011355885
0.00011368668
0.00011383723
0.0001140095
0.00011420206
0.00011441346
0.00011464203
0.00011488602
0.00011514357
0.00011541275
0.00011569174
0.00011597851
0.00011627123
0.00011656807
0.00011686725
0.00011716707
0.00011746607
0.00011776267
0.00011805553
0.00011834342
0.00011862519
0.00011889979
0.00011916641
0.00011942413
0.00011967224
0.00011991012
0.00012013721
0.00012035296
0.00012055705
0.00012074894
0.00012092827
0.00012109463
0.00012124764
0.00012138682
0.00012150365
0.00012161407
0.00012168147
0.00011597562
0.00011587011
0.00011577896
0.00011568122
0.00011557622
0.00011546629
0.0001153509
0.00011523254
0.00011511083
0.00011498838
0.00011486491
0.00011474311
0.00011462278
0.0001145066
0.00011439437
0.00011428875
0.00011418946
0.00011409908
0.0001140172
0.00011394622
0.00011388558
0.00011383747
0.00011380106
0.00011377829
0.00011376804
0.00011377194
0.00011378855
0.00011381913
0.00011386186
0.00011391765
0.00011398429
0.00011406192
0.00011414941
0.00011419908
0.00011415591
0.00011412555
0.00011410998
0.00011410805
0.00011412133
0.00011414826
0.00011418997
0.00011424454
0.00011431211
0.00011439122
0.00011448068
0.00011457897
0.00011468436
0.00011479505
0.00011490889
0.00011502372
0.00011513726
0.00011524718
0.00011523603
0.0001151464
0.00011504135
0.00011492254
0.00011479189
0.00011465158
0.00011450402
0.00011435195
0.00011419806
0.00011404526
0.00011389651
0.00011375477
0.00011362293
0.00011350378
0.0001134001
0.00011331427
0.00011324862
0.00011320516
0.00011318562
0.00011319138
0.00011322364
0.00011328302
0.00011336992
0.0001134844
0.00011360048
0.00011346429
0.00011334435
0.00011324288
0.00011316203
0.00011310357
0.00011306894
0.00011305927
0.00011307532
0.00011311753
0.00011318597
0.00011328037
0.00011340015
0.00011354442
0.00011371215
0.00011390185
0.000114112
0.00011434085
0.00011458654
0.00011484713
0.00011512056
0.0001154049
0.00011569803
0.00011599798
0.00011630283
0.00011661071
0.00011691981
0.00011722859
0.00011753538
0.00011783879
0.00011813751
0.00011843033
0.00011871616
0.00011899414
0.0001192633
0.00011952291
0.00011977232
0.00012001093
0.00012023818
0.00012045372
0.000120657
0.00012084765
0.00012102527
0.00012118948
0.0001213398
0.00012146667
0.00012158871
0.00012166831
0.0001159516
0.00011583961
0.00011574172
0.000115637
0.00011552482
0.00011540757
0.00011528481
0.0001151591
0.00011503015
0.00011490065
0.00011477042
0.00011464221
0.00011451591
0.00011439429
0.00011427723
0.00011416745
0.00011406475
0.00011397175
0.00011388812
0.00011381631
0.00011375578
0.00011370875
0.00011367444
0.00011365477
0.00011364864
0.00011365765
0.00011368034
0.00011371792
0.00011376854
0.000113833
0.00011390903
0.00011399667
0.00011409466
0.00011410539
0.00011405392
0.00011401641
0.00011399494
0.00011398851
0.00011399879
0.00011402431
0.00011406627
0.00011412279
0.00011419403
0.00011427852
0.00011437504
0.00011448199
0.00011459753
0.00011471973
0.00011484628
0.0001149748
0.00011510281
0.0001152277
0.00011525255
0.00011515145
0.00011503379
0.00011490146
0.0001147566
0.00011460167
0.00011443937
0.0001142727
0.00011410463
0.00011393838
0.00011377715
0.00011362416
0.00011348255
0.00011335533
0.00011324545
0.00011315548
0.00011308786
0.00011304471
0.00011302781
0.0001130386
0.00011307825
0.00011314734
0.00011324619
0.00011337474
0.00011349832
0.00011333951
0.00011319735
0.00011307432
0.00011297285
0.00011289491
0.00011284217
0.00011281591
0.00011281705
0.0001128461
0.00011290323
0.00011298819
0.00011310043
0.00011323901
0.00011340287
0.00011359045
0.00011380014
0.00011403008
0.00011427833
0.00011454278
0.00011482129
0.00011511179
0.00011541204
0.00011571995
0.00011603348
0.00011635067
0.00011666962
0.00011698868
0.00011730612
0.00011762046
0.00011793034
0.0001182345
0.00011853179
0.00011882131
0.00011910207
0.00011937331
0.00011963434
0.00011988454
0.00012012334
0.00012035037
0.00012056508
0.0001207671
0.00012095603
0.00012113151
0.00012129309
0.00012143016
0.00012156391
0.00012165554
0.00011592782
0.00011580922
0.00011570432
0.00011559228
0.00011547252
0.00011534753
0.00011521692
0.00011508336
0.00011494663
0.0001148095
0.00011467191
0.00011453669
0.00011440381
0.00011427613
0.00011415362
0.00011403908
0.00011393239
0.00011383623
0.00011375034
0.00011367722
0.00011361638
0.00011357008
0.00011353755
0.00011352076
0.00011351859
0.00011353263
0.00011356141
0.0001136061
0.0001136648
0.00011373824
0.00011382406
0.00011392219
0.00011403125
0.00011400157
0.00011394141
0.00011389641
0.0001138688
0.00011385773
0.00011386497
0.00011388915
0.00011393153
0.0001139903
0.00011406561
0.00011415601
0.0001142602
0.00011437654
0.00011450306
0.00011463769
0.00011477791
0.00011492118
0.00011506474
0.00011520572
0.00011527242
0.0001151593
0.00011502832
0.0001148816
0.00011472156
0.00011455094
0.00011437271
0.0001141902
0.00011400667
0.00011382564
0.00011365061
0.00011348508
0.00011333244
0.00011319593
0.00011307875
0.0001129836
0.0001129131
0.00011286947
0.00011285459
0.00011286991
0.00011291663
0.00011299529
0.0001131061
0.00011324892
0.00011338652
0.00011320394
0.00011303853
0.00011289306
0.00011277022
0.00011267224
0.00011260098
0.0001125579
0.00011254405
0.00011256004
0.0001126061
0.00011268201
0.00011278721
0.00011292073
0.00011308143
0.00011326768
0.00011347775
0.00011370968
0.00011396136
0.00011423059
0.00011451506
0.00011481259
0.00011512077
0.00011543742
0.00011576037
0.00011608753
0.00011641691
0.00011674679
0.00011707533
0.00011740101
0.00011772239
0.00011803817
0.00011834715
0.0001186484
0.00011894089
0.00011922385
0.00011949656
0.00011975839
0.00012000876
0.0001202473
0.00012047345
0.00012068684
0.00012088711
0.00012107389
0.00012124678
0.00012139412
0.00012153958
0.00012164308
0.00011590471
0.00011577916
0.00011566693
0.00011554719
0.00011541944
0.00011528624
0.00011514729
0.00011500532
0.00011486024
0.0001147149
0.00011456933
0.00011442646
0.00011428637
0.000114152
0.00011402342
0.00011390351
0.00011379223
0.00011369235
0.00011360367
0.00011352876
0.00011346718
0.00011342124
0.00011339021
0.00011337606
0.0001133777
0.00011339673
0.00011343163
0.00011348357
0.00011355057
0.00011363332
0.00011372936
0.00011383853
0.00011395842
0.00011388759
0.00011381826
0.00011376537
0.00011373133
0.00011371541
0.00011371951
0.00011374236
0.00011378531
0.00011384658
0.00011392637
0.00011402318
0.0001141357
0.00011426218
0.00011440055
0.00011454858
0.00011470356
0.0001148627
0.00011502299
0.00011518128
0.00011529652
0.00011517072
0.00011502561
0.00011486355
0.00011468724
0.00011449971
0.00011430425
0.00011410452
0.00011390412
0.00011370687
0.0001135166
0.00011333711
0.00011317208
0.000113025
0.00011289929
0.00011279788
0.00011272353
0.0001126786
0.00011266507
0.00011268443
0.0001127379
0.00011282599
0.00011294883
0.00011310618
0.00011326513
0.00011305751
0.0001128677
0.0001126988
0.00011255376
0.00011243508
0.00011234482
0.00011228462
0.00011225566
0.00011225866
0.00011229388
0.00011236113
0.00011245982
0.00011258892
0.00011274721
0.00011293296
0.0001131443
0.00011337913
0.00011363522
0.00011391018
0.00011420156
0.00011450701
0.00011482401
0.00011515022
0.00011548333
0.00011582117
0.00011616163
0.00011650289
0.00011684304
0.00011718049
0.00011751373
0.00011784144
0.00011816236
0.00011847553
0.00011877991
0.00011907469
0.00011935916
0.00011963267
0.00011989465
0.0001201447
0.00012038229
0.00012060706
0.00012081865
0.00012101674
0.00012120097
0.00012135857
0.00012151567
0.00012163088
0.00011588268
0.00011574995
0.00011563005
0.00011550221
0.00011536602
0.0001152241
0.00011507625
0.00011492529
0.00011477123
0.00011461702
0.0001144628
0.0001143116
0.0001141636
0.00011402186
0.00011388652
0.00011376057
0.00011364407
0.00011353987
0.00011344784
0.00011337062
0.00011330785
0.00011326187
0.00011323201
0.00011322027
0.00011322557
0.00011324951
0.00011329059
0.00011334991
0.00011342548
0.00011351791
0.00011362466
0.00011374545
0.00011386011
0.00011376311
0.00011368405
0.00011362282
0.00011358198
0.00011356095
0.00011356178
0.0001135833
0.00011362693
0.00011369097
0.00011377562
0.00011387939
0.00011400091
0.00011413835
0.0001142895
0.00011445197
0.00011462286
0.00011479912
0.00011497747
0.00011515443
0.00011531596
0.00011518654
0.00011502639
0.00011484791
0.00011465411
0.00011444833
0.00011423421
0.00011401576
0.00011379692
0.00011358188
0.00011337481
0.00011317983
0.00011300093
0.00011284189
0.00011270638
0.00011259754
0.00011251833
0.00011247125
0.00011245839
0.00011248131
0.00011254123
0.00011263866
0.00011277365
0.00011294583
0.00011313433
0.00011290026
0.00011268478
0.00011249133
0.00011232317
0.00011218304
0.00011207323
0.00011199558
0.00011195137
0.00011194142
0.00011196603
0.00011202502
0.00011211774
0.00011224311
0.00011239979
0.00011258591
0.00011279948
0.00011303822
0.00011329971
0.00011358142
0.00011388071
0.00011419507
0.00011452181
0.00011485844
0.00011520254
0.00011555179
0.00011590399
0.00011625722
0.00011660949
0.00011695915
0.00011730464
0.00011764457
0.00011797768
0.00011830297
0.00011861938
0.00011892609
0.00011922238
0.00011950761
0.00011978119
0.00012004276
0.00012029177
0.00012052789
0.00012075079
0.00012096017
0.0001211557
0.0001213235
0.00012149216
0.0001216189
0.00011586218
0.00011572193
0.00011559399
0.00011545762
0.0001153125
0.00011516132
0.00011500399
0.00011484342
0.00011467971
0.00011451595
0.00011435237
0.00011419211
0.00011403548
0.00011388562
0.00011374281
0.00011361013
0.00011348774
0.00011337858
0.00011328261
0.00011320255
0.0001131381
0.00011309168
0.00011306266
0.00011305307
0.00011306188
0.00011309069
0.00011313798
0.00011320485
0.00011328926
0.00011339176
0.00011350974
0.00011364281
0.00011373656
0.00011362791
0.00011353849
0.00011346837
0.00011342029
0.00011339384
0.0001133912
0.00011341133
0.00011345573
0.00011352277
0.00011361267
0.00011372395
0.00011385517
0.00011400441
0.00011416935
0.00011434741
0.00011453545
0.00011473019
0.00011492802
0.00011512515
0.00011531759
0.00011520763
0.00011503142
0.00011483534
0.00011462269
0.00011439719
0.00011416283
0.000113924
0.00011368502
0.00011345048
0.00011322491
0.00011301278
0.00011281843
0.00011264592
0.00011249922
0.00011238172
0.00011229657
0.00011224644
0.00011223353
0.00011225949
0.00011232558
0.00011243229
0.00011257958
0.00011276698
0.00011298751
0.00011273204
0.00011248949
0.00011227026
0.00011207793
0.00011191553
0.00011178557
0.00011169006
0.00011163042
0.00011160756
0.00011162179
0.00011167293
0.00011176028
0.00011188264
0.00011203856
0.00011222601
0.00011244281
0.00011268653
0.00011295452
0.00011324406
0.00011355233
0.00011387663
0.00011421409
0.00011456208
0.00011491801
0.00011527946
0.0001156441
0.00011600991
0.00011637485
0.00011673718
0.0001170953
0.00011744779
0.00011779334
0.00011813095
0.00011845952
0.00011877826
0.00011908644
0.00011938341
0.0001196686
0.00011994165
0.00012020205
0.00012044949
0.00012068364
0.00012090424
0.00012111102
0.00012128894
0.00012146903
0.00012160712
0.00011584371
0.00011569564
0.00011555926
0.0001154139
0.00011525932
0.0001150983
0.00011493084
0.00011475997
0.00011458591
0.00011441184
0.00011423813
0.00011406804
0.00011390198
0.00011374324
0.00011359219
0.00011345203
0.00011332303
0.00011320822
0.00011310768
0.0001130242
0.00011295757
0.00011291027
0.00011288173
0.00011287403
0.00011288619
0.00011291979
0.00011297336
0.00011304796
0.00011314152
0.00011325452
0.00011338429
0.00011353032
0.00011360277
0.00011348168
0.00011338117
0.00011330154
0.00011324572
0.00011321347
0.00011320711
0.00011322575
0.00011327098
0.00011334124
0.00011343679
0.00011355613
0.00011369778
0.00011385974
0.00011403953
0.00011423439
0.00011444096
0.00011465565
0.00011487455
0.00011509349
0.00011530809
0.00011523501
0.00011504161
0.00011482659
0.00011459361
0.00011434675
0.00011409041
0.00011382938
0.00011356842
0.0001133125
0.00011306658
0.0001128355
0.00011262397
0.0001124364
0.00011227703
0.00011214954
0.0001120573
0.00011200316
0.00011198946
0.00011201796
0.00011208994
0.00011220589
0.00011236569
0.00011256877
0.00011281392
0.00011255276
0.00011228159
0.00011203523
0.00011181759
0.00011163198
0.00011148118
0.00011136737
0.0001112921
0.00011125634
0.00011126044
0.00011130418
0.00011138677
0.0001115069
0.00011166297
0.00011185277
0.00011207391
0.00011232373
0.00011259939
0.00011289794
0.00011321633
0.00011355167
0.0001139009
0.00011426122
0.00011462989
0.00011500435
0.00011538216
0.00011576121
0.00011613937
0.00011651485
0.000116886
0.00011725136
0.00011760961
0.00011795971
0.0001183006
0.00011863146
0.00011895156
0.00011926028
0.00011955706
0.00011984157
0.00012011331
0.00012037198
0.00012061731
0.00012084906
0.00012106698
0.00012125489
0.00012144627
0.00012159554
0.00011582782
0.00011567154
0.00011552628
0.00011537143
0.00011520682
0.00011503533
0.00011485708
0.00011467519
0.00011449001
0.00011430484
0.00011412018
0.00011393942
0.0001137631
0.00011359464
0.00011343454
0.0001132861
0.00011314974
0.00011302857
0.00011292279
0.00011283528
0.00011276592
0.00011271727
0.00011268884
0.00011268276
0.00011269807
0.00011273642
0.00011279632
0.00011287883
0.00011298185
0.00011310583
0.00011324799
0.00011340773
0.00011345855
0.0001133241
0.00011321171
0.00011312186
0.00011305771
0.00011301919
0.00011300881
0.0001130258
0.00011307188
0.00011314556
0.00011324714
0.00011337512
0.00011352798
0.00011370361
0.00011389939
0.00011411236
0.00011433892
0.00011457518
0.00011481687
0.00011505943
0.00011529807
0.00011526975
0.0001150579
0.00011482248
0.00011456751
0.0001142975
0.00011401727
0.00011373206
0.00011344707
0.00011316775
0.00011289946
0.00011264749
0.00011241692
0.00011221253
0.00011203891
0.0001119
0.00011179944
0.00011174029
0.00011172503
0.00011175553
0.00011183312
0.0001119583
0.00011213089
0.00011235016
0.0001126148
0.00011236222
0.00011206073
0.00011178573
0.00011154151
0.0001113317
0.0001111593
0.00011102668
0.00011093554
0.0001108869
0.00011088113
0.00011091794
0.00011099645
0.00011111521
0.00011127242
0.00011146566
0.00011169232
0.00011194949
0.00011223407
0.00011254286
0.0001128726
0.00011322015
0.00011358227
0.00011395596
0.00011433832
0.00011472665
0.0001151184
0.00011551136
0.00011590332
0.00011629243
0.00011667701
0.00011705557
0.00011742676
0.00011778956
0.00011814288
0.00011848592
0.00011881798
0.00011913845
0.00011944679
0.00011974269
0.00012002568
0.0001202955
0.00012055191
0.00012079469
0.00012102364
0.00012122139
0.00012142389
0.00012158415
0.00011581507
0.00011565022
0.00011549563
0.00011533075
0.0001151555
0.00011497287
0.00011478307
0.00011458938
0.00011439225
0.00011419513
0.00011399864
0.00011380632
0.00011361886
0.00011343979
0.00011326975
0.0001131122
0.00011296765
0.00011283936
0.00011272762
0.00011263542
0.00011256277
0.00011251227
0.00011248354
0.00011247877
0.00011249706
0.00011254008
0.00011260637
0.00011269698
0.00011280982
0.00011294525
0.00011310045
0.0001132747
0.00011330366
0.00011315487
0.00011302968
0.00011292882
0.00011285566
0.00011281035
0.00011279557
0.00011281072
0.00011285763
0.0001129349
0.00011304289
0.0001131801
0.00011334496
0.00011353527
0.00011374826
0.00011398076
0.0001142289
0.00011448848
0.00011475485
0.00011502303
0.00011528775
0.00011531311
0.00011508141
0.00011482396
0.0001145452
0.00011425006
0.00011394384
0.00011363227
0.00011332104
0.00011301609
0.00011272325
0.00011244826
0.00011219665
0.00011197357
0.00011178398
0.00011163215
0.00011152196
0.00011145672
0.00011143908
0.00011147103
0.00011155396
0.00011168839
0.00011187406
0.00011211013
0.00011239514
0.0001121602
0.00011182652
0.00011152125
0.00011124907
0.00011101392
0.00011081908
0.00011066712
0.00011055984
0.00011049834
0.00011048297
0.00011051337
0.00011058853
0.00011070684
0.00011086626
0.00011106415
0.0001112976
0.00011156344
0.0001118583
0.00011217869
0.00011252108
0.0001128821
0.00011325829
0.00011364644
0.0001140435
0.0001144466
0.00011485308
0.00011526065
0.000115667
0.00011607025
0.00011646867
0.00011686074
0.00011724512
0.00011762078
0.00011798665
0.00011834194
0.00011868597