/*--------------------------------*- C++ -*----------------------------------*\
| =========                 |                                                 |
| \\      /  F ield         | foam-extend: Open Source CFD                    |
|  \\    /   O peration     | Version:     4.1                                |
|   \\  /    A nd           | Web:         http://www.foam-extend.org         |
|    \\/     M anipulation  |                                                 |
\*---------------------------------------------------------------------------*/
FoamFile
{
    version     2.0;
    format      ascii;
    class       volVectorField;
    location    "0.75";
    object      U;
}
// * * * * * * * * * * * * * * * * * * * * * * * * * * * * * * * * * * * * * //

dimensions      [0 1 -1 0 0 0 0];

internalField   nonuniform List<vector> 
16796
(
(137.33502 -0.10073055 0)
(137.57578 -0.11509231 0)
(137.79407 -0.12208458 0)
(138.03205 -0.1280197 0)
(138.28648 -0.1335468 0)
(138.55673 -0.13880149 0)
(138.84215 -0.14376972 0)
(139.14197 -0.148402 0)
(139.45526 -0.15264027 0)
(139.78088 -0.15642606 0)
(140.11755 -0.1597039 0)
(140.46379 -0.16242296 0)
(140.81798 -0.16453852 0)
(141.17837 -0.16601285 0)
(141.54309 -0.1668162 0)
(141.91017 -0.16692745 0)
(142.27758 -0.16633482 0)
(142.64326 -0.16503624 0)
(143.00513 -0.16303968 0)
(143.36114 -0.16036336 0)
(143.70928 -0.15703562 0)
(144.04763 -0.15309485 0)
(144.37438 -0.14858905 0)
(144.68787 -0.1435754 0)
(144.98659 -0.1381195 0)
(145.26924 -0.13229476 0)
(145.53474 -0.12618124 0)
(145.78224 -0.11986482 0)
(146.01115 -0.11343587 0)
(146.22116 -0.1069882 0)
(146.41225 -0.10061751 0)
(146.58466 -0.094420165 0)
(146.73895 -0.088491795 0)
(146.87596 -0.082925611 0)
(146.99681 -0.077811451 0)
(147.10289 -0.073233794 0)
(147.19586 -0.069270761 0)
(147.27759 -0.065992901 0)
(147.35018 -0.063461661 0)
(147.4159 -0.061727783 0)
(147.47716 -0.060829816 0)
(147.53648 -0.060793727 0)
(147.59646 -0.061631577 0)
(147.65971 -0.063340461 0)
(147.72882 -0.065903482 0)
(147.80633 -0.069290713 0)
(147.89464 -0.073458214 0)
(147.99602 -0.078347164 0)
(148.11254 -0.083884218 0)
(148.24602 -0.089983295 0)
(148.39801 -0.096547613 0)
(148.56975 -0.10347031 0)
(148.76212 -0.11063571 0)
(148.97567 -0.11792108 0)
(149.21054 -0.12519842 0)
(149.4665 -0.13233651 0)
(149.74289 -0.13920307 0)
(150.03867 -0.14566702 0)
(150.35242 -0.15160068 0)
(150.68233 -0.15688212 0)
(151.02622 -0.16139736 0)
(151.38162 -0.1650425 0)
(151.74573 -0.16772582 0)
(152.11554 -0.16936958 0)
(152.4878 -0.16991172 0)
(152.85912 -0.16930721 0)
(153.226 -0.16752915 0)
(153.5849 -0.16456945 0)
(153.93229 -0.16043913 0)
(154.2647 -0.15516826 0)
(154.57878 -0.14880539 0)
(154.87136 -0.14141661 0)
(155.13952 -0.13308413 0)
(155.38059 -0.12390492 0)
(155.59224 -0.11398717 0)
(155.77247 -0.1034481 0)
(155.91967 -0.092410219 0)
(156.03264 -0.081003735 0)
(156.1106 -0.069350433 0)
(156.15319 -0.057552029 0)
(156.16046 -0.045664854 0)
(156.13293 -0.033687167 0)
(156.07075 -0.021745936 0)
(155.97454 -0.010154932 0)
(155.84592 0.00083072684 0)
(155.68687 0.011073073 0)
(155.49966 0.020468667 0)
(155.28687 0.02893605 0)
(155.05124 0.036412613 0)
(154.79568 0.042853725 0)
(154.5232 0.048232126 0)
(154.23687 0.052537159 0)
(153.93977 0.055773696 0)
(153.63495 0.057960809 0)
(153.3254 0.059130245 0)
(153.01399 0.059324733 0)
(152.70348 0.058596226 0)
(152.39647 0.057004098 0)
(152.09539 0.054613402 0)
(151.8025 0.051493211 0)
(151.51985 0.047715061 0)
(151.24928 0.043351578 0)
(150.99248 0.038475284 0)
(150.75089 0.03315758 0)
(150.52578 0.027467955 0)
(150.31825 0.021473415 0)
(150.12919 0.015238081 0)
(149.95936 0.0088230293 0)
(149.80933 0.0022863467 0)
(149.67956 -0.0043166019 0)
(149.57033 -0.010932619 0)
(149.48183 -0.017509728 0)
(149.41412 -0.02399607 0)
(149.36715 -0.030337139 0)
(149.34076 -0.036472351 0)
(149.3347 -0.042328709 0)
(149.34859 -0.047819225 0)
(149.38167 -0.05286901 0)
(149.4332 -0.057323282 0)
(149.50268 -0.060837347 0)
(149.59121 -0.063048941 0)
(149.69382 -0.063510593 0)
(149.7943 -0.063135969 0)
(149.87432 -0.051030933 0)
(157.19827 -0.14095298 0)
(157.27435 -0.16434391 0)
(157.34291 -0.18204939 0)
(157.42482 -0.19859233 0)
(157.52063 -0.214552 0)
(157.63022 -0.23000834 0)
(157.75323 -0.2448544 0)
(157.88912 -0.25892445 0)
(158.03719 -0.27203577 0)
(158.19653 -0.28400404 0)
(158.3661 -0.29465171 0)
(158.54466 -0.30381253 0)
(158.73085 -0.31133582 0)
(158.92312 -0.31708935 0)
(159.11986 -0.32096258 0)
(159.31931 -0.32286889 0)
(159.51965 -0.32274799 0)
(159.71901 -0.32056751 0)
(159.91548 -0.31632449 0)
(160.10716 -0.31004622 0)
(160.29217 -0.30179069 0)
(160.4687 -0.29164666 0)
(160.63501 -0.27973294 0)
(160.7895 -0.26619769 0)
(160.9307 -0.25121661 0)
(161.0573 -0.23499137 0)
(161.16823 -0.21774676 0)
(161.26258 -0.1997284 0)
(161.33974 -0.1811989 0)
(161.3993 -0.16243488 0)
(161.44115 -0.14372239 0)
(161.46546 -0.12535302 0)
(161.47267 -0.10761932 0)
(161.46348 -0.09080997 0)
(161.43892 -0.075206819 0)
(161.40024 -0.061077472 0)
(161.34897 -0.048672424 0)
(161.28687 -0.038220439 0)
(161.21591 -0.029920522 0)
(161.13824 -0.023937805 0)
(161.05616 -0.020403077 0)
(160.97211 -0.019408551 0)
(160.88858 -0.021004254 0)
(160.80808 -0.025201495 0)
(160.73313 -0.031965753 0)
(160.66622 -0.041214172 0)
(160.60971 -0.052816297 0)
(160.56584 -0.06659662 0)
(160.53662 -0.082338547 0)
(160.52386 -0.099784563 0)
(160.52909 -0.11864075 0)
(160.55352 -0.13858199 0)
(160.59805 -0.15925582 0)
(160.6632 -0.18028825 0)
(160.74914 -0.20128952 0)
(160.85561 -0.22186051 0)
(160.98197 -0.24159962 0)
(161.12717 -0.26010965 0)
(161.28979 -0.27700481 0)
(161.468 -0.29191774 0)
(161.65963 -0.30450623 0)
(161.86218 -0.31445961 0)
(162.07286 -0.32150484 0)
(162.28861 -0.3254118 0)
(162.50618 -0.3259981 0)
(162.72214 -0.32313288 0)
(162.93298 -0.31673979 0)
(163.13511 -0.30679903 0)
(163.32497 -0.29334812 0)
(163.49905 -0.27648182 0)
(163.65397 -0.25635073 0)
(163.78651 -0.23315882 0)
(163.89371 -0.20715958 0)
(163.97286 -0.17865288 0)
(164.02157 -0.14797629 0)
(164.03781 -0.11549096 0)
(164.01991 -0.081594028 0)
(163.96666 -0.04670764 0)
(163.87724 -0.011255763 0)
(163.7513 0.024356864 0)
(163.58885 0.059736046 0)
(163.39036 0.094576831 0)
(163.15754 0.12853674 0)
(162.89233 0.16115089 0)
(162.59637 0.19198203 0)
(162.2716 0.22069869 0)
(161.92017 0.24702865 0)
(161.54448 0.27075051 0)
(161.14711 0.2916914 0)
(160.73075 0.30972612 0)
(160.29823 0.32477597 0)
(159.8524 0.33680685 0)
(159.39613 0.34582658 0)
(158.93228 0.35188138 0)
(158.46363 0.35505188 0)
(157.99288 0.3554486 0)
(157.52259 0.35320725 0)
(157.05522 0.34848388 0)
(156.59304 0.3414501 0)
(156.13817 0.33228858 0)
(155.69255 0.32118874 0)
(155.25794 0.30834295 0)
(154.83591 0.29394309 0)
(154.42786 0.27817767 0)
(154.03501 0.2612294 0)
(153.65841 0.24327339 0)
(153.29896 0.22447571 0)
(152.9574 0.2049925 0)
(152.63431 0.18496953 0)
(152.33018 0.1645422 0)
(152.04533 0.14383599 0)
(151.78 0.12296749 0)
(151.53431 0.10204561 0)
(151.30829 0.081175665 0)
(151.10186 0.060464231 0)
(150.91487 0.040025853 0)
(150.74706 0.019983256 0)
(150.5981 0.00047422036 0)
(150.4675 -0.018238495 0)
(150.35489 -0.035592931 0)
(150.26097 -0.051157195 0)
(150.18083 -0.06378881 0)
(150.10518 -0.076634473 0)
(150.03377 -0.068854998 0)
(159.42656 -0.17849168 0)
(159.52409 -0.201721 0)
(159.61108 -0.22636491 0)
(159.70743 -0.25070919 0)
(159.81294 -0.27454666 0)
(159.92727 -0.29768726 0)
(160.04984 -0.31988842 0)
(160.17992 -0.34087389 0)
(160.31664 -0.36035608 0)
(160.45901 -0.37804875 0)
(160.60594 -0.39367692 0)
(160.75624 -0.40698292 0)
(160.90862 -0.4177329 0)
(161.06174 -0.42572127 0)
(161.21416 -0.43077587 0)
(161.36443 -0.43276161 0)
(161.51107 -0.43158444 0)
(161.65256 -0.42719402 0)
(161.78742 -0.41958624 0)
(161.91422 -0.40880482 0)
(162.03156 -0.39494211 0)
(162.13813 -0.3781394 0)
(162.23274 -0.35858595 0)
(162.31429 -0.33651799 0)
(162.38187 -0.31221585 0)
(162.43472 -0.28600164 0)
(162.47225 -0.25823473 0)
(162.49411 -0.22930801 0)
(162.50012 -0.19964189 0)
(162.49038 -0.16967936 0)
(162.46518 -0.13987875 0)
(162.42507 -0.11070727 0)
(162.37084 -0.082633668 0)
(162.3035 -0.056120455 0)
(162.2243 -0.031618561 0)
(162.1347 -0.0095580738 0)
(162.03637 0.0096610134 0)
(161.93116 0.025679361 0)
(161.82108 0.038184384 0)
(161.70824 0.046899275 0)
(161.59489 0.051614748 0)
(161.48332 0.052186287 0)
(161.37586 0.048535894 0)
(161.27484 0.040658027 0)
(161.18253 0.028617725 0)
(161.10111 0.012554765 0)
(161.03263 -0.0073150046 0)
(160.97896 -0.030700763 0)
(160.94183 -0.05724061 0)
(160.92268 -0.08650892 0)
(160.9227 -0.11802476 0)
(160.94277 -0.1512532 0)
(160.98347 -0.18561393 0)
(161.04502 -0.22049114 0)
(161.1273 -0.25524266 0)
(161.22981 -0.28921112 0)
(161.35171 -0.32173484 0)
(161.49177 -0.35215944 0)
(161.64841 -0.37984936 0)
(161.81972 -0.40419936 0)
(162.00346 -0.42464573 0)
(162.1971 -0.44067684 0)
(162.39785 -0.45184317 0)
(162.60271 -0.45776618 0)
(162.80848 -0.45814613 0)
(163.01185 -0.45276851 0)
(163.2094 -0.44150897 0)
(163.3977 -0.42433658 0)
(163.57333 -0.40131526 0)
(163.73295 -0.3726036 0)
(163.87334 -0.33845249 0)
(163.99146 -0.29920124 0)
(164.08451 -0.25527092 0)
(164.14993 -0.20716164 0)
(164.18552 -0.15543079 0)
(164.18935 -0.10067717 0)
(164.15993 -0.043574118 0)
(164.09612 0.015170373 0)
(163.99723 0.074844754 0)
(163.86297 0.1346978 0)
(163.69351 0.19402244 0)
(163.48937 0.25210625 0)
(163.25146 0.30830891 0)
(162.98104 0.36207999 0)
(162.67972 0.41289465 0)
(162.34945 0.46025472 0)
(161.99242 0.50372912 0)
(161.61106 0.54296093 0)
(161.20797 0.57766975 0)
(160.78591 0.6076521 0)
(160.34772 0.63278003 0)
(159.89628 0.65299827 0)
(159.43452 0.66831987 0)
(158.96529 0.67882055 0)
(158.49142 0.68463215 0)
(158.01562 0.68593522 0)
(157.54048 0.68295131 0)
(157.06846 0.67593504 0)
(156.60185 0.66516629 0)
(156.14277 0.65094275 0)
(155.69318 0.63357296 0)
(155.25482 0.61337002 0)
(154.82927 0.59064607 0)
(154.41792 0.56570754 0)
(154.022 0.53885124 0)
(153.64254 0.51036141 0)
(153.28044 0.48050736 0)
(152.93642 0.44954203 0)
(152.61107 0.41770117 0)
(152.30484 0.38520324 0)
(152.01809 0.35224973 0)
(151.75101 0.3190263 0)
(151.50373 0.28570412 0)
(151.27626 0.25244366 0)
(151.06853 0.21939809 0)
(150.88039 0.18671401 0)
(150.71155 0.1545309 0)
(150.56161 0.12302014 0)
(150.4302 0.092490162 0)
(150.31698 0.063429662 0)
(150.22214 0.036008064 0)
(150.14103 0.012686519 0)
(150.07052 -0.011745684 0)
(150.0192 -0.02088144 0)
(159.6358 -0.24268397 0)
(159.74007 -0.27091545 0)
(159.83325 -0.30016712 0)
(159.93561 -0.32919128 0)
(160.04643 -0.35747036 0)
(160.16521 -0.38463243 0)
(160.29127 -0.41032887 0)
(160.42379 -0.43421 0)
(160.56186 -0.45592861 0)
(160.70443 -0.47514653 0)
(160.8504 -0.49154313 0)
(160.99855 -0.50482146 0)
(161.14763 -0.51471553 0)
(161.29632 -0.52099565 0)
(161.44324 -0.52347456 0)
(161.58702 -0.52201194 0)
(161.72624 -0.51651923 0)
(161.85953 -0.50696307 0)
(161.98549 -0.49336831 0)
(162.10282 -0.47582012 0)
(162.21023 -0.45446492 0)
(162.30656 -0.42951091 0)
(162.39071 -0.40122661 0)
(162.46172 -0.36993975 0)
(162.51879 -0.3360334 0)
(162.56123 -0.2999431 0)
(162.58856 -0.26215074 0)
(162.60048 -0.22317989 0)
(162.5969 -0.18358774 0)
(162.57792 -0.14395873 0)
(162.54389 -0.10489497 0)
(162.49537 -0.067007842 0)
(162.43316 -0.030906576 0)
(162.35826 0.0028087802 0)
(162.27191 0.033556042 0)
(162.17556 0.060782903 0)
(162.07088 0.083984145 0)
(161.95968 0.10269654 0)
(161.84395 0.11651372 0)
(161.72582 0.12511853 0)
(161.60751 0.12826079 0)
(161.4913 0.12577436 0)
(161.37952 0.11758613 0)
(161.2745 0.10371784 0)
(161.17851 0.084288385 0)
(161.09375 0.059515476 0)
(161.02228 0.02971474 0)
(160.96603 -0.0047053594 0)
(160.9267 -0.043238812 0)
(160.90576 -0.08528766 0)
(160.90442 -0.13018209 0)
(160.92356 -0.17718856 0)
(160.96377 -0.22551529 0)
(161.02528 -0.27432373 0)
(161.10795 -0.32274286 0)
(161.21129 -0.36988248 0)
(161.33444 -0.41484844 0)
(161.47615 -0.45675782 0)
(161.63483 -0.49475438 0)
(161.80852 -0.52802382 0)
(161.99497 -0.55580876 0)
(162.1916 -0.57742288 0)
(162.3956 -0.59226431 0)
(162.6039 -0.59982761 0)
(162.81327 -0.59971432 0)
(163.02033 -0.59164165 0)
(163.22164 -0.57544919 0)
(163.41369 -0.55110341 0)
(163.59301 -0.5186996 0)
(163.75621 -0.47846176 0)
(163.90001 -0.43073933 0)
(164.02131 -0.37600211 0)
(164.11726 -0.31483038 0)
(164.18527 -0.24791538 0)
(164.22306 -0.17601428 0)
(164.22869 -0.099955115 0)
(164.20063 -0.020666512 0)
(164.13774 0.060898437 0)
(164.0393 0.14376086 0)
(163.90498 0.22693971 0)
(163.73492 0.30945348 0)
(163.52965 0.39033222 0)
(163.29011 0.46864935 0)
(163.01761 0.5435603 0)
(162.71382 0.61429687 0)
(162.38072 0.68016859 0)
(162.02057 0.74057883 0)
(161.63585 0.79503291 0)
(161.22922 0.84314213 0)
(160.80349 0.88462491 0)
(160.36157 0.91930518 0)
(159.90639 0.94710848 0)
(159.44093 0.96805584 0)
(158.9681 0.98225593 0)
(158.49075 0.98989577 0)
(158.01163 0.99123042 0)
(157.53337 0.9865721 0)
(157.05844 0.97627909 0)
(156.58915 0.96074479 0)
(156.12764 0.94038732 0)
(155.67585 0.91563981 0)
(155.23555 0.88694165 0)
(154.8083 0.85473084 0)
(154.39549 0.8194375 0)
(153.99833 0.7814785 0)
(153.61786 0.74125348 0)
(153.25494 0.69914185 0)
(152.91029 0.65550098 0)
(152.58449 0.61066544 0)
(152.27797 0.56494728 0)
(151.99106 0.51863717 0)
(151.72398 0.47200672 0)
(151.47681 0.42531186 0)
(151.24957 0.3787987 0)
(151.0422 0.33270905 0)
(150.85451 0.2872834 0)
(150.68625 0.24276904 0)
(150.53707 0.19946809 0)
(150.40668 0.15782229 0)
(150.29468 0.11838245 0)
(150.20095 0.081452905 0)
(150.12137 0.051784387 0)
(150.05586 0.022567046 0)
(150.01384 0.0054052849 0)
(159.64432 -0.28810283 0)
(159.74814 -0.32366065 0)
(159.84194 -0.35964067 0)
(159.94539 -0.39521653 0)
(160.05757 -0.42978051 0)
(160.17789 -0.46283887 0)
(160.30563 -0.49393678 0)
(160.43996 -0.52263461 0)
(160.57994 -0.54850671 0)
(160.7245 -0.57114483 0)
(160.87252 -0.59016596 0)
(161.02276 -0.60521848 0)
(161.17396 -0.61599012 0)
(161.32477 -0.62221389 0)
(161.4738 -0.62367512 0)
(161.61965 -0.62021659 0)
(161.76091 -0.61174406 0)
(161.89615 -0.59823032 0)
(162.02399 -0.57971872 0)
(162.14308 -0.55632575 0)
(162.25214 -0.52824216 0)
(162.34996 -0.49573382 0)
(162.43543 -0.45914015 0)
(162.50757 -0.41887301 0)
(162.56553 -0.37541236 0)
(162.60862 -0.32930304 0)
(162.63633 -0.28114767 0)
(162.64832 -0.23160124 0)
(162.64448 -0.18136149 0)
(162.6249 -0.13116132 0)
(162.5899 -0.081757429 0)
(162.54002 -0.033918392 0)
(162.47605 0.011589961 0)
(162.399 0.054006919 0)
(162.31012 0.092592564 0)
(162.21088 0.12665181 0)
(162.10295 0.15552705 0)
(161.98818 0.17863655 0)
(161.8686 0.1954788 0)
(161.74639 0.20563456 0)
(161.62381 0.20878477 0)
(161.50323 0.20472124 0)
(161.38702 0.19335009 0)
(161.27759 0.17470045 0)
(161.1773 0.14892844 0)
(161.0884 0.11631707 0)
(161.01306 0.077276151 0)
(160.95325 0.03233683 0)
(160.91076 -0.017851895 0)
(160.88712 -0.072519016 0)
(160.88359 -0.13079867 0)
(160.90112 -0.19174359 0)
(160.94033 -0.25432942 0)
(161.00148 -0.31747295 0)
(161.08446 -0.3800496 0)
(161.18879 -0.44091094 0)
(161.3136 -0.49890474 0)
(161.45763 -0.55289413 0)
(161.61927 -0.60177749 0)
(161.79653 -0.64450813 0)
(161.98709 -0.68011336 0)
(162.18834 -0.70771261 0)
(162.39738 -0.72653452 0)
(162.61109 -0.73593233 0)
(162.82613 -0.7353973 0)
(163.03905 -0.72456991 0)
(163.2463 -0.70324847 0)
(163.44428 -0.67139496 0)
(163.62943 -0.62913759 0)
(163.79826 -0.57677079 0)
(163.94739 -0.51475112 0)
(164.07365 -0.44369088 0)
(164.17408 -0.36434538 0)
(164.24604 -0.27761452 0)
(164.28718 -0.18448515 0)
(164.29553 -0.086037968 0)
(164.26949 0.016516724 0)
(164.20793 0.12194763 0)
(164.11007 0.22898587 0)
(163.97563 0.33636489 0)
(163.80474 0.4428246 0)
(163.59797 0.54713744 0)
(163.35628 0.64813402 0)
(163.08105 0.74472771 0)
(162.77399 0.83592563 0)
(162.43715 0.92084106 0)
(162.07286 0.99870856 0)
(161.68368 1.0688938 0)
(161.27235 1.1308991 0)
(160.84176 1.1843649 0)
(160.39489 1.2290679 0)
(159.93476 1.2649159 0)
(159.46439 1.2919399 0)
(158.98677 1.3102838 0)
(158.5048 1.3201921 0)
(158.02127 1.3219966 0)
(157.53886 1.316102 0)
(157.06005 1.3029718 0)
(156.58719 1.2831134 0)
(156.12242 1.2570653 0)
(155.66769 1.2253839 0)
(155.22476 1.1886326 0)
(154.79521 1.1473716 0)
(154.38039 1.1021497 0)
(153.98151 1.0534973 0)
(153.59959 1.0019211 0)
(153.23546 0.94790015 0)
(152.88985 0.89188371 0)
(152.56329 0.83428971 0)
(152.25621 0.77550505 0)
(151.96891 0.71588657 0)
(151.70159 0.65576365 0)
(151.45433 0.59544189 0)
(151.22714 0.53520903 0)
(151.01995 0.4753408 0)
(150.83258 0.41610651 0)
(150.66481 0.35778361 0)
(150.51634 0.30070335 0)
(150.38697 0.24529912 0)
(150.27627 0.19204 0)
(150.18415 0.14127943 0)
(150.10734 0.099698756 0)
(150.04706 0.058055596 0)
(150.01113 0.026154038 0)
(159.63882 -0.34625186 0)
(159.74256 -0.3882372 0)
(159.83655 -0.43008717 0)
(159.94061 -0.47118003 0)
(160.05376 -0.51088531 0)
(160.1754 -0.54863716 0)
(160.30479 -0.58390353 0)
(160.44108 -0.61617298 0)
(160.58332 -0.64495491 0)
(160.73042 -0.66978248 0)
(160.88124 -0.69022065 0)
(161.03453 -0.70587251 0)
(161.18899 -0.71638805 0)
(161.34322 -0.72147082 0)
(161.49582 -0.72088577 0)
(161.64534 -0.71446519 0)
(161.79032 -0.70211497 0)
(161.92929 -0.68381941 0)
(162.06082 -0.65964517 0)
(162.18351 -0.6297445 0)
(162.29602 -0.59435652 0)
(162.39709 -0.55380845 0)
(162.48557 -0.50851384 0)
(162.56041 -0.4589715 0)
(162.62072 -0.40576051 0)
(162.66576 -0.34953663 0)
(162.69498 -0.29102403 0)
(162.70801 -0.2310091 0)
(162.70469 -0.17032897 0)
(162.68509 -0.10986283 0)
(162.64951 -0.050518894 0)
(162.5985 0.0067854068 0)
(162.53283 0.061130457 0)
(162.45352 0.11159934 0)
(162.36185 0.15730847 0)
(162.25931 0.1974204 0)
(162.14759 0.23115452 0)
(162.02863 0.25781804 0)
(161.90448 0.27680444 0)
(161.7774 0.28761465 0)
(161.64972 0.28987211 0)
(161.52389 0.28333034 0)
(161.40237 0.26788475 0)
(161.28766 0.24357958 0)
(161.1822 0.21061204 0)
(161.08835 0.16933481 0)
(161.00837 0.12025479 0)
(160.94432 0.064031053 0)
(160.89806 0.0014587494 0)
(160.87122 -0.066515831 0)
(160.86513 -0.13882571 0)
(160.88079 -0.21430973 0)
(160.91889 -0.2917168 0)
(160.97971 -0.36972578 0)
(161.06319 -0.44696355 0)
(161.16885 -0.52202874 0)
(161.29582 -0.59351482 0)
(161.44283 -0.660034 0)
(161.60823 -0.72024146 0)
(161.79 -0.77285919 0)
(161.98577 -0.81669937 0)
(162.19284 -0.85068645 0)
(162.40823 -0.87387799 0)
(162.62873 -0.88548353 0)
(162.8509 -0.88488112 0)
(163.07118 -0.87163105 0)
(163.2859 -0.84548653 0)
(163.49134 -0.80640092 0)
(163.68382 -0.75453106 0)
(163.85973 -0.69023735 0)
(164.01557 -0.61407886 0)
(164.14807 -0.52680552 0)
(164.25416 -0.42934331 0)
(164.33111 -0.32279314 0)
(164.37648 -0.20837588 0)
(164.38828 -0.08741269 0)
(164.36482 0.038615507 0)
(164.30495 0.16819906 0)
(164.20787 0.29975772 0)
(164.07329 0.43171696 0)
(163.90138 0.56251656 0)
(163.69272 0.69064042 0)
(163.44835 0.81464628 0)
(163.16968 0.9331915 0)
(162.85852 1.0450515 0)
(162.517 1.1491369 0)
(162.14753 1.2445093 0)
(161.75278 1.330393 0)
(161.33558 1.4061812 0)
(160.89893 1.4714384 0)
(160.4459 1.5258978 0)
(159.9796 1.5694549 0)
(159.50314 1.6021572 0)
(159.01958 1.6241917 0)
(158.53189 1.6358695 0)
(158.04293 1.6376087 0)
(157.55541 1.6299169 0)
(157.07186 1.6133731 0)
(156.59464 1.5886101 0)
(156.12591 1.5562975 0)
(155.66763 1.5171265 0)
(155.22155 1.4717956 0)
(154.78925 1.4209987 0)
(154.37207 1.3654147 0)
(153.9712 1.3056994 0)
(153.58761 1.2424786 0)
(153.22216 1.1763441 0)
(152.87549 1.1078503 0)
(152.54815 1.037513 0)
(152.24053 0.96580967 0)
(151.95289 0.89318016 0)
(151.68542 0.8200298 0)
(151.43818 0.74673312 0)
(151.21115 0.67363911 0)
(151.00424 0.60107615 0)
(150.81728 0.52935813 0)
(150.65004 0.45879972 0)
(150.50227 0.38974997 0)
(150.37377 0.32260407 0)
(150.2641 0.25773047 0)
(150.17327 0.19544569 0)
(150.09869 0.14378539 0)
(150.04207 0.090106962 0)
(150.00973 0.043637484 0)
(159.63537 -0.39491315 0)
(159.73842 -0.44436102 0)
(159.83262 -0.49333365 0)
(159.93735 -0.54122224 0)
(160.05165 -0.58734674 0)
(160.17486 -0.63106539 0)
(160.30626 -0.67176271 0)
(160.44496 -0.70884554 0)
(160.58998 -0.74174674 0)
(160.74025 -0.769929 0)
(160.89458 -0.79289382 0)
(161.05168 -0.8101883 0)
(161.21022 -0.82141492 0)
(161.36877 -0.82623876 0)
(161.52588 -0.8243963 0)
(161.68003 -0.81570209 0)
(161.82971 -0.80005577 0)
(161.9734 -0.77744754 0)
(162.10961 -0.74796274 0)
(162.23685 -0.71178558 0)
(162.35374 -0.66920081 0)
(162.45894 -0.62059526 0)
(162.55124 -0.56645606 0)
(162.62953 -0.50736971 0)
(162.69285 -0.44401654 0)
(162.7404 -0.3771669 0)
(162.77158 -0.30767182 0)
(162.78597 -0.23645613 0)
(162.78339 -0.16450512 0)
(162.76386 -0.092855527 0)
(162.72767 -0.022577983 0)
(162.67533 0.045246674 0)
(162.60763 0.10952519 0)
(162.52562 0.16916932 0)
(162.43058 0.22313907 0)
(162.32402 0.27042766 0)
(162.20772 0.31012136 0)
(162.08363 0.34138878 0)
(161.95392 0.36350876 0)
(161.82089 0.37588988 0)
(161.68699 0.37808094 0)
(161.55475 0.3697889 0)
(161.42675 0.35088878 0)
(161.30559 0.32143285 0)
(161.19383 0.28165629 0)
(161.09395 0.23197942 0)
(161.0083 0.17300638 0)
(160.93908 0.1055234 0)
(160.88825 0.030480552 0)
(160.85752 -0.050996873 0)
(160.84832 -0.13763779 0)
(160.86173 -0.22805513 0)
(160.89848 -0.32075608 0)
(160.95893 -0.41415732 0)
(161.04303 -0.50661906 0)
(161.15031 -0.59646689 0)
(161.27992 -0.68202112 0)
(161.43057 -0.76162493 0)
(161.60056 -0.83367309 0)
(161.78782 -0.89664049 0)
(161.9899 -0.94910992 0)
(162.20403 -0.98979839 0)
(162.42714 -1.017582 0)
(162.65587 -1.0315183 0)
(162.88668 -1.0308663 0)
(163.11587 -1.0151027 0)
(163.33963 -0.98393491 0)
(163.55409 -0.93730972 0)
(163.75543 -0.87541738 0)
(163.93989 -0.79869179 0)
(164.10383 -0.70780482 0)
(164.24385 -0.60365677 0)
(164.35676 -0.48736018 0)
(164.43972 -0.36023194 0)
(164.49018 -0.22375156 0)
(164.50609 -0.079496101 0)
(164.4857 0.070765676 0)
(164.42783 0.22522536 0)
(164.33164 0.38201379 0)
(164.19686 0.53925028 0)
(164.02366 0.69507166 0)
(163.81268 0.84766782 0)
(163.565 0.99531569 0)
(163.28213 1.1364095 0)
(162.96596 1.2694858 0)
(162.61872 1.3932455 0)
(162.24294 1.5065715 0)
(161.8414 1.608543 0)
(161.41706 1.6984421 0)
(160.97304 1.775757 0)
(160.51252 1.8401781 0)
(160.03872 1.8915908 0)
(159.55487 1.9300624 0)
(159.06411 1.9558268 0)
(158.5695 1.9692656 0)
(158.07396 1.9708875 0)
(157.58025 1.9613068 0)
(157.09095 1.9412215 0)
(156.60845 1.9113921 0)
(156.13493 1.872621 0)
(155.67235 1.8257345 0)
(155.22247 1.7715656 0)
(154.78684 1.7109396 0)
(154.3668 1.6446625 0)
(153.96349 1.5735105 0)
(153.57789 1.4982233 0)
(153.2108 1.4194983 0)
(152.86286 1.3379877 0)
(152.53455 1.2542967 0)
(152.22626 1.1689846 0)
(151.93821 1.0825656 0)
(151.67056 0.99551314 0)
(151.42335 0.90826389 0)
(151.19654 0.82122399 0)
(150.99003 0.73477488 0)
(150.80362 0.64928168 0)
(150.63712 0.56510893 0)
(150.49027 0.48264453 0)
(150.36288 0.40229488 0)
(150.25447 0.32443549 0)
(150.16519 0.24944904 0)
(150.09278 0.18666878 0)
(150.03894 0.12010982 0)
(150.00891 0.059348302 0)
(159.63578 -0.44982452 0)
(159.73882 -0.50637398 0)
(159.83347 -0.56210369 0)
(159.9391 -0.61639999 0)
(160.0548 -0.66853704 0)
(160.17989 -0.71780722 0)
(160.31363 -0.76352108 0)
(160.45512 -0.80501037 0)
(160.60338 -0.84163543 0)
(160.75728 -0.87279077 0)
(160.91563 -0.89791544 0)
(161.0771 -0.91650081 0)
(161.24031 -0.92810143 0)
(161.4038 -0.93234321 0)
(161.56603 -0.92893325 0)
(161.72546 -0.91766743 0)
(161.88049 -0.89843827 0)
(162.02954 -0.87124125 0)
(162.17105 -0.83617999 0)
(162.30346 -0.79347069 0)
(162.4253 -0.74344405 0)
(162.53517 -0.68654729 0)
(162.63177 -0.62334227 0)
(162.71392 -0.55450463 0)
(162.7806 -0.48081769 0)
(162.83094 -0.40316834 0)
(162.86428 -0.32253654 0)
(162.88014 -0.23998766 0)
(162.87829 -0.15665697 0)
(162.85874 -0.07374174 0)
(162.82173 0.0075272615 0)
(162.76776 0.085899414 0)
(162.69764 0.16010597 0)
(162.6124 0.22889417 0)
(162.51337 0.29105567 0)
(162.4021 0.34543176 0)
(162.28041 0.39095476 0)
(162.15034 0.42666142 0)
(162.01411 0.45171123 0)
(161.87413 0.46541438 0)
(161.73296 0.46724538 0)
(161.59323 0.45686108 0)
(161.45767 0.43411438 0)
(161.32898 0.39906427 0)
(161.20987 0.35198331 0)
(161.10295 0.29336034 0)
(161.01071 0.22389944 0)
(160.93547 0.14451586 0)
(160.87931 0.056323937 0)
(160.84406 -0.039368288 0)
(160.83125 -0.14107738 0)
(160.84206 -0.24717884 0)
(160.87728 -0.35592859 0)
(160.93733 -0.46548875 0)
(161.0222 -0.57394588 0)
(161.13144 -0.6793475 0)
(161.2642 -0.77973444 0)
(161.41915 -0.87317296 0)
(161.59458 -0.95778897 0)
(161.78834 -1.0318011 0)
(161.9979 -1.0935532 0)
(162.22039 -1.1415451 0)
(162.4526 -1.1744619 0)
(162.69107 -1.1912 0)
(162.9321 -1.1908907 0)
(163.17182 -1.1729195 0)
(163.40626 -1.1369412 0)
(163.6314 -1.0828907 0)
(163.84322 -1.0109877 0)
(164.03779 -0.92173697 0)
(164.21132 -0.81592237 0)
(164.36023 -0.69459526 0)
(164.4812 -0.55905748 0)
(164.57128 -0.41084617 0)
(164.62776 -0.25170737 0)
(164.64855 -0.08347922 0)
(164.63179 0.091774978 0)
(164.57627 0.27193208 0)
(164.48113 0.454781 0)
(164.34609 0.63811249 0)
(164.17136 0.81974261 0)
(163.95762 0.99755104 0)
(163.70603 1.16952 0)
(163.41819 1.3337698 0)
(163.09609 1.4885891 0)
(162.7421 1.6324616 0)
(162.35886 1.764087 0)
(161.94931 1.8823968 0)
(161.51656 1.9865627 0)
(161.06385 2.0759992 0)
(160.59452 2.1503597 0)
(160.11193 2.2095269 0)
(159.61941 2.2535973 0)
(159.12022 2.2828625 0)
(158.61752 2.2977868 0)
(158.1143 2.2989821 0)
(157.61339 2.2871826 0)
(157.11742 2.2632185 0)
(156.62881 2.2279908 0)
(156.14975 2.1824474 0)
(155.68222 2.1275613 0)
(155.22797 2.0643106 0)
(154.78853 1.9936624 0)
(154.36523 1.9165581 0)
(153.95917 1.8339026 0)
(153.5713 1.7465552 0)
(153.20237 1.6553244 0)
(152.853 1.5609632 0)
(152.52363 1.4641685 0)
(152.21458 1.3655807 0)
(151.92608 1.265786 0)
(151.65822 1.1653197 0)
(151.41102 1.0646711 0)
(151.18442 0.96428965 0)
(150.97828 0.86459052 0)
(150.79241 0.76596436 0)
(150.62661 0.66879086 0)
(150.48062 0.57345462 0)
(150.35425 0.4803363 0)
(150.24701 0.38979187 0)
(150.15918 0.30221338 0)
(150.08863 0.22817322 0)
(150.03687 0.14856896 0)
(150.00839 0.073970135 0)
(159.63882 -0.50004949 0)
(159.74166 -0.56445142 0)
(159.83692 -0.62776673 0)
(159.94368 -0.68932067 0)
(160.06105 -0.74831678 0)
(160.18836 -0.80396982 0)
(160.32484 -0.85550814 0)
(160.46961 -0.90218066 0)
(160.62163 -0.94326766 0)
(160.77976 -0.97808798 0)
(160.94278 -1.0060111 0)
(161.10931 -1.0264659 0)
(161.27792 -1.0389528 0)
(161.44709 -1.0430529 0)
(161.61524 -1.0384388 0)
(161.78075 -1.0248832 0)
(161.94194 -1.0022674 0)
(162.09717 -0.97058908 0)
(162.24477 -0.92996745 0)
(162.38313 -0.88064891 0)
(162.51067 -0.82300916 0)
(162.6259 -0.75755581 0)
(162.72746 -0.68492646 0)
(162.81406 -0.60588808 0)
(162.88461 -0.52133044 0)
(162.93817 -0.43226179 0)
(162.97399 -0.33979725 0)
(162.99154 -0.24515048 0)
(162.99055 -0.14961599 0)
(162.97096 -0.054562641 0)
(162.933 0.038607091 0)
(162.87715 0.12845765 0)
(162.80422 0.21353069 0)
(162.71525 0.29239614 0)
(162.61159 0.36365241 0)
(162.49485 0.42598194 0)
(162.3669 0.47815037 0)
(162.22986 0.5190464 0)
(162.08606 0.54770205 0)
(161.93802 0.56331756 0)
(161.7884 0.56528335 0)
(161.63998 0.55319873 0)
(161.49562 0.52688854 0)
(161.35818 0.48641477 0)
(161.23053 0.43208511 0)
(161.11543 0.36445652 0)
(161.01552 0.28433422 0)
(160.93327 0.19276574 0)
(160.87092 0.091033371 0)
(160.83042 -0.019366197 0)
(160.81342 -0.13672596 0)
(160.82119 -0.25917895 0)
(160.85463 -0.38472158 0)
(160.91421 -0.51123207 0)
(160.99997 -0.63650536 0)
(161.11148 -0.75829191 0)
(161.24788 -0.87433306 0)
(161.40784 -0.98239997 0)
(161.58957 -1.0803321 0)
(161.79086 -1.1660754 0)
(162.00908 -1.2377197 0)
(162.24126 -1.2935342 0)
(162.48404 -1.3320011 0)
(162.73379 -1.3518461 0)
(162.98667 -1.3520652 0)
(163.23861 -1.3319478 0)
(163.48544 -1.2910937 0)
(163.72294 -1.2294262 0)
(163.94691 -1.1471975 0)
(164.1532 -1.0449899 0)
(164.33783 -0.92370776 0)
(164.49706 -0.78456553 0)
(164.62737 -0.62906749 0)
(164.72566 -0.45899105 0)
(164.78911 -0.27636599 0)
(164.81552 -0.083306538 0)
(164.80295 0.11780777 0)
(164.75012 0.32452193 0)
(164.65616 0.53429992 0)
(164.52079 0.74459186 0)
(164.34424 0.95287615 0)
(164.12725 1.1567058 0)
(163.87107 1.3537531 0)
(163.57741 1.5418506 0)
(163.24838 1.7190275 0)
(162.8865 1.8835407 0)
(162.49457 2.0338989 0)
(162.07569 2.1688811 0)
(161.63315 2.2875462 0)
(161.17034 2.3892354 0)
(160.69079 2.4735677 0)
(160.19799 2.5404277 0)
(159.69543 2.5899474 0)
(159.1865 2.6224838 0)
(158.67444 2.6385922 0)
(158.16237 2.6389967 0)
(157.65317 2.6245602 0)
(157.14952 2.5962535 0)
(156.6539 2.5551261 0)
(156.1685 2.5022782 0)
(155.69532 2.4388357 0)
(155.23609 2.3659271 0)
(154.79233 2.2846652 0)
(154.36532 2.1961303 0)
(153.95616 2.1013584 0)
(153.56575 2.0013309 0)
(153.19479 1.8969689 0)
(152.84384 1.7891288 0)
(152.51331 1.6786009 0)
(152.20349 1.5661103 0)
(151.91454 1.4523187 0)
(151.64652 1.3378289 0)
(151.39941 1.2231895 0)
(151.17311 1.1089009 0)
(150.96748 0.99542184 0)
(150.78227 0.8831782 0)
(150.61729 0.77257344 0)
(150.47226 0.66399756 0)
(150.34697 0.5578177 0)
(150.24094 0.4543728 0)
(150.1545 0.35402553 0)
(150.08556 0.2685644 0)
(150.0354 0.17590279 0)
(150.00803 0.087873478 0)
(159.64422 -0.55344381 0)
(159.74721 -0.62571275 0)
(159.84326 -0.6966304 0)
(159.95136 -0.76546796 0)
(160.07066 -0.83135678 0)
(160.2005 -0.89343318 0)
(160.34011 -0.95084294 0)
(160.48856 -1.0027514 0)
(160.64482 -1.0483568 0)
(160.80773 -1.0868998 0)
(160.97598 -1.1176767 0)
(161.1482 -1.1400501 0)
(161.32288 -1.1534622 0)
(161.49844 -1.1574451 0)
(161.67323 -1.1516328 0)
(161.84555 -1.1357711 0)
(162.01367 -1.1097269 0)
(162.17582 -1.073497 0)
(162.33026 -1.0272139 0)
(162.47528 -0.97115265 0)
(162.60921 -0.90573287 0)
(162.73047 -0.8315223 0)
(162.83758 -0.74923473 0)
(162.92917 -0.65972968 0)
(163.00406 -0.56400525 0)
(163.06121 -0.46319362 0)
(163.0998 -0.35854831 0)
(163.11925 -0.25143503 0)
(163.11918 -0.1433121 0)
(163.09953 -0.035723622 0)
(163.06046 0.069747419 0)
(163.00246 0.17147689 0)