/*--------------------------------*- C++ -*----------------------------------*\
| =========                 |                                                 |
| \\      /  F ield         | foam-extend: Open Source CFD                    |
|  \\    /   O peration     | Version:     4.1                                |
|   \\  /    A nd           | Web:         http://www.foam-extend.org         |
|    \\/     M anipulation  |                                                 |
\*---------------------------------------------------------------------------*/
FoamFile
{
    version     2.0;
    format      ascii;
    class       surfaceScalarField;
    location    "0.1";
    object      phi;
}
// * * * * * * * * * * * * * * * * * * * * * * * * * * * * * * * * * * * * * //

dimensions      [0 3 -1 0 0 0 0];

internalField   nonuniform List<scalar> 
8438
(
-0.60177529
0.00052837514
-0.60239562
0.00062033037
-0.60302721
0.00063159175
-0.60369416
0.00066695462
-0.60439588
0.0007017124
-0.60514284
0.0007469656
-0.60594277
0.00079993116
-0.60680452
0.00086174835
-0.607736
0.00093147765
-0.60874428
0.0010082756
-0.60983471
0.0010904396
-0.61101033
0.001175611
-0.61227087
0.0012605435
-0.61361198
0.0013411082
-0.61502429
0.0014123132
-0.61649278
0.0014684908
-0.61799636
0.0015035801
-0.61950793
0.0015115647
-0.62099495
0.0014870254
-0.62242054
0.0014255915
-0.62374498
0.0013244357
-0.62492756
0.0011825811
-0.62592877
0.0010012122
-0.62671256
0.0007837862
-0.62724876
0.00053620124
-0.62751541
0.00026664775
-0.6275009
-1.4510052e-05
-0.62720482
-0.00029607552
-0.62664009
-0.00056473441
-0.62583376
-0.00080633114
-0.62482484
-0.0010089151
-0.62366142
-0.0011634261
-0.62239665
-0.0012647656
-0.62108419
-0.001312456
-0.6197738
-0.0013103965
-0.6185085
-0.0012652975
-0.61732245
-0.0011860469
-0.61624076
-0.0010816913
-0.61527969
-0.00096107591
-0.614448
-0.00083168058
-0.61374835
-0.00069965756
-0.61317882
-0.00056952956
-0.61273435
-0.00044446701
-0.6124079
-0.00032644668
-0.61219123
-0.00021667032
-0.61207557
-0.00011566543
-0.61205012
-2.5446573e-05
-0.61209807
4.794547e-05
0.00014688271
-0.61563561
0.00087378101
-0.61596951
0.00095423817
-0.61632027
0.00098234836
-0.61669755
0.0010442305
-0.61710959
0.001113752
-0.61756587
0.001203249
-0.61807499
0.0013090554
-0.61864583
0.0014325842
-0.61928655
0.0015722021
-0.62000446
0.0017261856
-0.62080524
0.0018912159
-0.62169224
0.0020626144
-0.62266562
0.0022339198
-0.62372137
0.0023968615
-0.62485045
0.0025413936
-0.62603802
0.0026560547
-0.62726298
0.0027285467
-0.62849803
0.0027466143
-0.62971021
0.0026992019
-0.63086198
0.0025773605
-0.63191282
0.002375272
-0.63282109
0.0020908513
-0.63354627
0.0017263916
-0.63405125
0.0012887696
-0.6343049
0.00078984981
-0.63428443
0.00024618083
-0.63397775
-0.00032119497
-0.63338609
-0.00088772659
-0.63252413
-0.0014266996
-0.63141901
-0.0019114518
-0.63011015
-0.0023177791
-0.62864623
-0.0026273405
-0.6270813
-0.0028297
-0.62546983
-0.0029239237
-0.6238621
-0.0029181255
-0.62230141
-0.0028259918
-0.62082175
-0.0026656995
-0.61944792
-0.0024555274
-0.61819566
-0.0022133366
-0.61707325
-0.0019540869
-0.61608286
-0.0016900435
-0.61522226
-0.0014301303
-0.61448619
-0.0011805377
-0.61386764
-0.00094499879
-0.61335876
-0.00072555008
-0.61295149
-0.00052293243
-0.61263838
-0.00033856099
-0.61241443
-0.00017600476
-2.2746096e-05
-0.61616887
0.0012009853
-0.61648435
0.0012697128
-0.61681292
0.0013109247
-0.61716577
0.0013970816
-0.61755199
0.0014999677
-0.61798137
0.0016326295
-0.61846292
0.0017906044
-0.61900584
0.0019755073
-0.61961877
0.0021851307
-0.62030957
0.0024169801
-0.62108461
0.0026662608
-0.62194809
0.0029260934
-0.62290105
0.0031868793
-0.6239404
0.003436209
-0.62505789
0.0036588834
-0.62623926
0.0038374315
-0.62746371
0.0039529968
-0.62870377
0.0039866761
-0.62992595
0.0039213817
-0.6310918
0.003743201
-0.63215953
0.0034430116
-0.63308602
0.0030173374
-0.633829
0.0024693698
-0.63434944
0.0018092116
-0.63461423
0.001054636
-0.63459865
0.00023060103
-0.63428892
-0.00063091743
-0.63368418
-0.0014924722
-0.63279789
-0.0023129846
-0.63165821
-0.003051139
-0.63030688
-0.0036691073
-0.628796
-0.0041382238
-0.62718351
-0.0044421824
-0.62552762
-0.0045798131
-0.62388126
-0.0045644861
-0.62228944
-0.0044178118
-0.6207866
-0.0041685404
-0.61939719
-0.0038449372
-0.61813597
-0.0034745637
-0.61700995
-0.0030801067
-0.61601993
-0.0026800569
-0.61516242
-0.0022876395
-0.61443106
-0.0019119024
-0.61381795
-0.0015581076
-0.61331464
-0.001228856
-0.61291279
-0.00092478205
-0.61260508
-0.00064627092
-0.61238684
-0.00039425326
-0.00016463154
-0.61622782
0.0014996893
-0.61652737
0.0015692615
-0.6168442
0.0016277533
-0.61718594
0.0017388201
-0.61756195
0.001875977
-0.61798153
0.0020522126
-0.61845395
0.0022630239
-0.61898866
0.0025102122
-0.61959478
0.002791257
-0.62028087
0.0031030637
-0.62105417
0.0034395641
-0.62191991
0.0037918369
-0.62288027
0.0041472399
-0.62393326
0.004489199
-0.62507155
0.0047971729
-0.62628142
0.005047299
-0.62754203
0.0052136085
-0.6288252
0.005269844
-0.63009605
0.0051922302
-0.63131412
0.0049612723
-0.6324352
0.0045640863
-0.63341329
0.0039954358
-0.63420313
0.0032592095
-0.6347625
0.0023685803
-0.6350552
0.0013473367
-0.63505369
0.00022909101
-0.63474184
-0.00094276833
-0.63411726
-0.0021170568
-0.6331934
-0.0032368383
-0.63200022
-0.0042443225
-0.63058327
-0.0050860621
-0.62899994
-0.0057215495
-0.6273144
-0.0061277229
-0.6255907
-0.0063035158
-0.62388585
-0.0062693317
-0.6222475
-0.0060561614
-0.62071062
-0.0057054228
-0.61929907
-0.0052564862
-0.61802597
-0.0047476689
-0.61689637
-0.0042097019
-0.615909
-0.0036674281
-0.61505848
-0.0031381557
-0.61433691
-0.0026334768
-0.61373526
-0.0021597558
-0.61324442
-0.001719693
-0.61285595
-0.0013132598
-0.61256294
-0.0009392738
-0.61236117
-0.00059602678
-0.00028085043
-0.61636006
0.0017900769
-0.61665257
0.0018617693
-0.61695578
0.0019309624
-0.61728151
0.0020645555
-0.61763938
0.0022338473
-0.61803964
0.002452468
-0.61849225
0.0027156346
-0.6190075
0.0030254684
-0.61959557
0.003379325
-0.62026626
0.0037737509
-0.62102836
0.004201663
-0.62188883
0.0046523128
-0.62285172
0.0051101256
-0.62391682
0.0055542984
-0.62507828
0.0059586397
-0.62632329
0.0062923034
-0.62763105
0.0065213719
-0.62897238
0.006611168
-0.63031043
0.0065302852
-0.63160192
0.006252764
-0.63279917
0.0057613343
-0.6338522
0.005048469
-0.63471145
0.0041184503
-0.63533006
0.0029871995
-0.63566732
0.0016845949
-0.63569141
0.00025318019
-0.63538262
-0.0012515555
-0.63473616
-0.0027635169
-0.63376517
-0.0042078376
-0.63250179
-0.0055077012
-0.63099693
-0.006590918
-0.62931566
-0.007402824
-0.62753117
-0.0079122134
-0.62571606
-0.0081186203
-0.623933
-0.0080523952
-0.62223321
-0.0077559455
-0.62065211
-0.0072865293
-0.6192125
-0.0066960884
-0.617925
-0.0060351754
-0.6167918
-0.0053429049
-0.61580862
-0.0046506083
-0.61496743
-0.0039793399
-0.61425809
-0.0033428198
-0.61366986
-0.0027479855
-0.61319244
-0.0021971136
-0.61281676
-0.0016889408
-0.61253586
-0.0012201726
-0.61234584
-0.00078604132
-0.00038189386
-0.61649265
0.0020438226
-0.61675529
0.0021244103
-0.61703634
0.0022120088
-0.61734276
0.0023709779
-0.61768333
0.002574423
-0.61806751
0.0028366455
-0.61850529
0.0031534179
-0.61900732
0.0035274964
-0.61958453
0.0039565284
-0.62024784
0.0044370619
-0.62100755
0.0049613735
-0.62187245
0.0055172133
-0.62284862
0.0060862948
-0.62393792
0.006643606
-0.62513631
0.0071570209
-0.62643204
0.0075880405
-0.62780446
0.0078937843
-0.62922304
0.0080297524
-0.63064848
0.0079557216
-0.63203385
0.0076381354
-0.63332711
0.0070545983
-0.63447329
0.00619465
-0.63541752
0.0050626742
-0.63610724
0.0036769206
-0.63649618
0.0020735383
-0.63654733
0.00030433399
-0.63623664
-0.0015622456
-0.63555636
-0.0034438052
-0.63451905
-0.0052451441
-0.63315952
-0.0068672357
-0.6315356
-0.0082148357
-0.62972256
-0.0092158648
-0.62780598
-0.0098287895
-0.62587029
-0.010054313
-0.62398533
-0.0099373528
-0.62220697
-0.0095343104
-0.62057058
-0.0089229163
-0.61909726
-0.0081694086
-0.6177939
-0.007338533
-0.61665877
-0.0064780321
-0.61568358
-0.005625804
-0.61485682
-0.0048060952
-0.61416548
-0.004034165
-0.61359662
-0.0033168405
-0.61313835
-0.0026553891
-0.61278047
-0.0020468206
-0.61251512
-0.0014855156
-0.61233738
-0.00096378584
-0.0004743226
-0.61671409
0.0022926242
-0.61696871
0.0023790303
-0.61723078
0.0024740712
-0.61751408
0.002654283
-0.6178278
0.0028881381
-0.61818279
0.003191641
-0.61858993
0.0035605512
-0.61906097
0.0039985396
-0.61960828
0.0045038436
-0.6202447
0.0050734731
-0.62098289
0.0056995704
-0.62183454
0.0063688651
-0.62280895
0.0070606976
-0.62391125
0.0077459061
-0.62514028
0.0083860521
-0.62648628
0.0089340439
-0.62792912
0.009336619
-0.62943678
0.0095374155
-0.63096687
0.0094858102
-0.63246788
0.009139147
-0.63388232
0.0084690369
-0.63514894
0.0074612676
-0.63620624
0.0061199815
-0.63699426
0.0044649363
-0.63745931
0.0025385908
-0.63755709
0.0004021139
-0.63725681
-0.0018625253
-0.63654523
-0.0041553854
-0.63543305
-0.0063573266
-0.63395785
-0.0083424306
-0.63218673
-0.0099859568
-0.63020882
-0.01119378
-0.62812687
-0.011910735
-0.6260418
-0.012139388
-0.62403236
-0.011946792
-0.62216023
-0.011406443
-0.62045984
-0.010623305
-0.61894951
-0.0096797328
-0.61763086
-0.0086571814
-0.6164969
-0.0076119976
-0.61553411
-0.0065885932
-0.61472667
-0.0056135329
-0.61405804
-0.0047027915
-0.61351272
-0.0038621694
-0.61307695
-0.0030911573
-0.61273939
-0.0023843789
-0.61249145
-0.0017334545
-0.61232756
-0.0011276767
-0.00055693225
-0.61690604
0.002489206
-0.6171143
0.0025872971
-0.61734251
0.0027022815
-0.61759602
0.0029077887
-0.61788296
0.003175078
-0.61821286
0.0035215378
-0.61859649
0.0039441878
-0.61904606
0.0044481065
-0.61957495
0.0050327391
-0.62019761
0.0056961309
-0.62092895
0.0064309048
-0.62178344
0.0072233606
-0.62277369
0.0080509414
-0.62390832
0.0088805367
-0.62518937
0.0096671088
-0.62660931
0.010353979
-0.62814859
0.0108759
-0.62977316
0.011161985
-0.63143671
0.011149365
-0.63308201
0.010784439
-0.6346449
0.010031931
-0.63605653
0.0088728973
-0.63724758
0.0073110342
-0.63814908
0.0053664332
-0.6386987
0.0030882138
-0.63884379
0.00054719705
-0.6385462
-0.0021601128
-0.63778673
-0.0049148592
-0.6365736
-0.0075704492
-0.63494696
-0.0099690766
-0.63298513
-0.011947787
-0.63079485
-0.013384055
-0.62850179
-0.014203793
-0.62622941
-0.014411767
-0.62406672
-0.014109485
-0.62208246
-0.013390702
-0.6203083
-0.012397466
-0.61875824
-0.011229794
-0.61742638
-0.0099890444
-0.61629875
-0.0087396229
-0.61535517
-0.0075321788
-0.61457442
-0.0063942777
-0.61393571
-0.0053415042
-0.61342039
-0.0043774844
-0.6130125
-0.0034990487
-0.61269914
-0.0026977463
-0.61247057
-0.0019620214
-0.61232032
-0.0012779217
-0.00063245601
-0.61720915
0.0026868891
-0.61741249
0.0027906363
-0.61761905
0.0029088381
-0.61784442
0.0031331581
-0.61809729
0.0034279515
-0.61838898
0.0038132225
-0.6187311
0.0042863088
-0.61913704
0.0048540518
-0.61962184
0.0055175348
-0.62020229
0.0062765853
-0.6208966
0.007125207
-0.62172348
0.0080502414
-0.62270063
0.0090280895
-0.62384227
0.010022184
-0.62515583
0.010980666
-0.62663782
0.011835967
-0.62827059
0.012508675
-0.63001796
0.012909352
-0.63182904
0.012960448
-0.63363957
0.012594968
-0.63537756
0.011769924
-0.63696519
0.010460527
-0.63832433
0.0086701757
-0.63937513
0.0064172307
-0.64004459
0.0037576685
-0.6402689
0.00077150978
-0.63999839
-0.0024306222
-0.63920213
-0.0057111183
-0.63788211
-0.0088904667
-0.63607983
-0.011771356
-0.63388843
-0.014139188
-0.63143838
-0.015834103
-0.62888722
-0.016754957
-0.62639052
-0.016908468
-0.62404844
-0.016451568
-0.62193833
-0.015500806
-0.62008595
-0.014249848
-0.61849878
-0.012816968
-0.61716045
-0.011327372
-0.61604805
-0.0098520161
-0.61513313
-0.0084471086
-0.61438815
-0.0071392537
-0.6137875
-0.0059421542
-0.61330919
-0.0048557936
-0.61293497
-0.0038732662
-0.61265048
-0.0029822386
-0.61244501
-0.0021674943
-0.61231128
-0.0014116453
-0.00069878957
-0.61744001
0.0028126587
-0.61757775
0.0029283743
-0.61773685
0.0030679346
-0.61791965
0.0033159605
-0.61813362
0.0036419225
-0.618388
0.0040675995
-0.61869423
0.0045925438
-0.61906618
0.0052260008
-0.61952021
0.0059715617
-0.62007529
0.0068316723
-0.62075276
0.007802672
-0.62157547
0.008872954
-0.6225662
0.010018819
-0.6237449
0.01120088
-0.62512461
0.01236038
-0.62670613
0.013417488
-0.6284738
0.01427634
-0.63038791
0.014823464
-0.63239153
0.01496407
-0.63441145
0.014614882
-0.63636629
0.013724767
-0.63816746
0.012261696
-0.63972673
0.010229452
-0.6409506
0.007641097
-0.64175327
0.004560337
-0.64205834
0.0010765797
-0.64180441
-0.0026845538
-0.64094855
-0.0065669781
-0.63948556
-0.010353458
-0.6374562
-0.013800716
-0.63497092
-0.016624465
-0.63218938
-0.018615639
-0.62931168
-0.01963266
-0.62653896
-0.019681187
-0.62398144
-0.019009085
-0.62172691
-0.017755339
-0.61978997
-0.016186792
-0.61816852
-0.014438415
-0.61683171
-0.012664178
-0.61574515
-0.010938584
-0.61487008
-0.0093221778
-0.61417153
-0.0078378061
-0.61361834
-0.00649534
-0.61318484
-0.0052892976
-0.61285033
-0.0042077733
-0.61259894
-0.0032336309
-0.612419
-0.0023474299
-0.61230264
-0.0015280088
-0.00075647699
-0.61781341
0.0029487459
-0.61795339
0.0030683524
-0.61809143
0.0032059745
-0.61824434
0.003468865
-0.61842004
0.0038176227
-0.61862971
0.0042772762
-0.6188853
0.0048481309
-0.61920148
0.0055421791
-0.61959595
0.0063660362
-0.6200901
0.0073258231
-0.62070909
0.0084216608
-0.62148142
0.00964528
-0.62243737
0.010974773
-0.62360604
0.012369544
-0.6250102
0.013764542
-0.62665891
0.015066203
-0.62854195
0.016159372
-0.63061617
0.016897691
-0.63281779
0.017165693
-0.63506262
0.016859706
-0.63725845
0.015920598
-0.63930424
0.014307486
-0.64110186
0.012027075
-0.64254229
0.0090815234
-0.64352592
0.0055439618
-0.64396164
0.0015123017
-0.64377014
-0.0028760516
-0.64288382
-0.0074533014
-0.64127995
-0.011957328
-0.63899264
-0.016088022
-0.63615534
-0.019461763
-0.63296745
-0.021803528
-0.62968973
-0.022910379
-0.62659176
-0.022779157
-0.62378941
-0.021811438
-0.62138291
-0.020161841
-0.61936699
-0.018202717
-0.61772554
-0.016079855
-0.61640793
-0.013981788
-0.61536542
-0.011981096
-0.61454707
-0.010140534
-0.6139096
-0.008475271
-0.61341609
-0.0069888487
-0.61303726
-0.0056681325
-0.61275023
-0.0044948031
-0.6125379
-0.003445962
-0.61238792
-0.002497409
-0.61229197
-0.0016239601
-0.00080364324
-0.61806431
0.0029918468
-0.61811783
0.0031218728
-0.61819296
0.0032810995
-0.61828783
0.0035637378
-0.61840881
0.0039386012
-0.61856414
0.0044326068
-0.6187654
0.0050493912
-0.61902773
0.0058045059
-0.61937047
0.0067087772
-0.61981785
0.0077732059
-0.62039936
0.0090031719
-0.62114954
0.010395454
-0.6221065
0.01193174
-0.62330876
0.013571807
-0.62478918
0.015244954
-0.62656503
0.016842053
-0.62863176
0.018226105
-0.63093892
0.01920485
-0.63341252
0.019639294
-0.63595364
0.019400831
-0.63845758
0.018424532
-0.64080878
0.01665869
-0.64289954
0.01411783
-0.64459983
0.010781821
-0.64579149
0.0067356138
-0.64636531
0.0020861247
-0.64622428
-0.0030170838
-0.64527624
-0.008401337
-0.64348126
-0.013752308
-0.64086023
-0.018709049
-0.63757256
-0.022749433
-0.63386387
-0.025512219
-0.63007621
-0.026698042
-0.62658208
-0.026273283
-0.62349061
-0.024902915
-0.62091759
-0.022734859
-0.61882474
-0.020295565
-0.61717645
-0.017728147
-0.61589552
-0.015262721
-0.61491549
-0.01296112
-0.61417094
-0.010885088
-0.61360932
-0.0090368856
-0.61318757
-0.0074106005
-0.61287285
-0.0059828531
-0.61264033
-0.0047273205
-0.61247198
-0.0036143117
-0.61235508
-0.0026143155
-0.61228118
-0.0016978627
-0.00083986853
-0.61849022
0.0030557594
-0.6185556
0.0031872561
-0.61861355
0.0033390416
-0.61868085
0.0036310452
-0.61876401
0.0040217569
-0.61887305
0.0045416494
-0.61901923
0.0051955672
-0.61921749
0.0060027683
-0.6194874
0.006978686
-0.61985459
0.0081403998
-0.62035194
0.0095005138
-0.62102021
0.011063728
-0.62190746
0.012818987
-0.62306615
0.014730502
-0.62454634
0.016725138
-0.62638179
0.018677511
-0.62858296
0.020427272
-0.6310923
0.021714191
-0.63382493
0.022371925
-0.63666377
0.022239672
-0.63948994
0.021250701
-0.64216997
0.019338711
-0.6445892
0.016537064
-0.6465931
0.012785717
-0.64804734
0.0081898534
-0.64882964
0.002868426
-0.64882207
-0.0030246531
-0.64788136
-0.0093420413
-0.64592221
-0.015711461
-0.64292976
-0.021701501
-0.63909839
-0.026580803
-0.63473816
-0.029872447
-0.63031095
-0.03112525
-0.626355
-0.030229239
-0.62294571
-0.028312202
-0.62021668
-0.025463888
-0.61807462
-0.022437622
-0.61645583
-0.019346944
-0.61524775
-0.016470801
-0.61436267
-0.013846199
-0.61371894
-0.011528812
-0.6132547
-0.0095011287
-0.61292129
-0.0077440105
-0.61268316
-0.0062209823
-0.61251435
-0.0048961306
-0.6123966
-0.0037320614
-0.61231736
-0.0026935559
-0.61226846
-0.0017467651
-0.00086352658
-0.61874529
0.0030091121
-0.61870566
0.0031476254
-0.61868522
0.0033186008
-0.61867729
0.0036231189
-0.6186862
0.0040306628
-0.61871801
0.0045734606
-0.61878311
0.0052606652
-0.61889656
0.0061162241
-0.61907961
0.0071617354
-0.61936132
0.0084221142
-0.61978035
0.0099195438
-0.62038628
0.011669656
-0.62123949
0.013672195
-0.62240853
0.015899536
-0.62396226
0.018278877
-0.62595087
0.020666117
-0.62840155
0.022877956
-0.6312379
0.024550537
-0.63435531
0.02548934
-0.63760949
0.025493848
-0.64086557
0.024506779
-0.64397042
0.02244356
-0.64681241
0.019379058
-0.64920361
0.015176912
-0.65098318
0.0099694265
-0.65200563
0.0038908733
-0.65212765
-0.0029026289
-0.6511512
-0.010318494
-0.64895578
-0.017906879
-0.64547667
-0.025180609
-0.64094851
-0.031108964
-0.63574609
-0.035074871
-0.63048908
-0.036382257
-0.62598056
-0.034737758
-0.62220568
-0.032087087
-0.61932178
-0.02834779
-0.61715076
-0.024608634
-0.6155919
-0.020905803
-0.61448772
-0.017574983
-0.61372566
-0.014608263
-0.61320614
-0.01204833
-0.61285777
-0.0098494929
-0.6126268
-0.0079749835
-0.61247564
-0.006372144
-0.61237792
-0.0049938516
-0.6123158
-0.0037941814
-0.61227744
-0.0027319195
-0.61225535
-0.0017688548
-0.00087392235
-0.61919247
0.0029902098
-0.61917257
0.0031277251
-0.61914051
0.0032865481
-0.61911093
0.0035935317
-0.61908779
0.0040075291
-0.61907853
0.004564199
-0.61909211
0.0052742395
-0.61914185
0.0061659676
-0.61924712
0.0072670024
-0.61943587
0.0086108657
-0.61974754
0.010231214
-0.62023613
0.012158248
-0.62097228
0.014408343
-0.62204317
0.016970423
-0.62354619
0.019781902
-0.6255631
0.022683024
-0.62816336
0.025478217
-0.63125147
0.027638645
-0.63470351
0.028941385
-0.63834309
0.029133424
-0.6420209
0.028184591
-0.64555565
0.025978313
-0.64884674
0.022670144
-0.65165365
0.017983825
-0.65379234
0.012108113
-0.65512432
0.0052228537
-0.65551154
-0.0025154049
-0.6546571
-0.011172934
-0.65233005
-0.020233929
-0.64833324
-0.029177422
-0.64295111
-0.036491088
-0.63665349
-0.0413725
-0.63030281
-0.042732931
-0.62515901
-0.039881557
-0.62100716
-0.036238941
-0.61802537
-0.031329577
-0.61590079
-0.026733217
-0.61447902
-0.022327569
-0.61354551
-0.018508499
-0.61295975
-0.015194024
-0.61260467
-0.012403408
-0.6124014
-0.010052764
-0.61229352
-0.0080828564
-0.61224364
-0.0064220296
-0.61222675
-0.0050107412
-0.61222676
-0.0037941678
-0.61223349
-0.0027251945
-0.61224076
-0.0017615852
-0.00086972867
-0.61944612
0.0028543528
-0.61931217
0.0029937771
-0.6191907
0.0031650804
-0.61907071
0.0034735395
-0.61895299
0.0038898152
-0.6188397
0.0044509061
-0.61873753
0.0051720725
-0.6186585
0.0060869305
-0.61862236
0.0072308652
-0.61865988
0.0086483864
-0.61881699
0.010388327
-0.61915966
0.012500919
-0.61977786
0.015026538
-0.62078723
0.017979791
-0.62232321
0.021317883
-0.62450221
0.024862031
-0.62744759
0.028423592
-0.63100926
0.031200317
-0.63501939
0.032951516
-0.63924466
0.033358694
-0.64351548
0.032455404
-0.64761498
0.030077819
-0.65149899
0.026554152
-0.65487007
0.021354902
-0.65751069
0.014748734
-0.65927193
0.0069840933
-0.65998309
-0.0018042362
-0.65919679
-0.011959236
-0.65661912
-0.0228116
-0.65190864
-0.033887905
-0.64543142
-0.042968309
-0.63771194
-0.049091982
-0.62990982
-0.050535042
-0.62404768
-0.045743699
-0.61949397
-0.040792653
-0.61645738
-0.034366167
-0.61443364
-0.028756956
-0.61320314
-0.02355807
-0.61248592
-0.019225718
-0.61211202
-0.015567925
-0.61194791
-0.012567519
-0.61190875
-0.010091923
-0.61193728
-0.0080543303
-0.6119977
-0.0063616075
-0.61206761
-0.0049408302
-0.61213356
-0.003728218
-0.61218767
-0.0026710856
-0.61222554
-0.00172371
-0.00085047236
-0.61985829
0.0027421476
-0.61974317
0.0028786548
-0.61961328
0.003035196
-0.61947773
0.0033379835
-0.61933665
0.0037487346
-0.61919299
0.0043072508
-0.61905132
0.0050304062
-0.6189206
0.0059562064
-0.61881645
0.0071267159
-0.61876494
0.0085968764
-0.61880767
0.010431056
-0.61900876
0.01270201
-0.61946264
0.015480417
-0.62030233
0.018819484
-0.62170393
0.022719482
-0.62383719
0.026995288
-0.6269492
0.0315356
-0.63083028
0.035081398
-0.63527092
0.037392158
-0.63997512
0.038062898
-0.64477762
0.037257901
-0.64941451
0.034714708
-0.6539354
0.03107504
-0.65789173
0.025311232
-0.66098788
0.017844887
-0.6631316
0.0091278109
-0.66430711
-0.00062872493
-0.66391918
-0.012347162
-0.66144002
-0.025290763
-0.65608242
-0.039245506
-0.64825226
-0.050798471
-0.63857122
-0.058773023
-0.62868969
-0.060416568
-0.62202285
-0.052410543
-0.61713373
-0.045681772
-0.61421172
-0.037288177
-0.61246621
-0.030502467
-0.61157836
-0.024445919
-0.61119384
-0.019610235
-0.61111439
-0.015647376
-0.61119742
-0.012484494
-0.61135904
-0.0099303037
-0.6115473
-0.007866069
-0.6117325
-0.0061764012
-0.61189801
-0.0047753201
-0.61203513
-0.0035911059
-0.61213964
-0.0025665706
-0.61220978
-0.0016535681
-0.0008153063
-0.62012876
0.0025268735
-0.61990974
0.0026596324
-0.61969119
0.0028166474
-0.61945991
0.0031066969
-0.61921135
0.0035001818
-0.61894162
0.0040375131
-0.61865002
0.0047388118
-0.6183403
0.0056464878
-0.61802371
0.0068101239
-0.61772393
0.0082970905
-0.61748464
0.010191774
-0.61738079
0.012598161
-0.61753245
0.015632075
-0.61812099
0.019408028
-0.61940421
0.024002698
-0.62163164
0.029222722
-0.62523752
0.03514148
-0.62984523
0.039689109
-0.63513575
0.042682668
-0.64069193
0.043619085
-0.64632679
0.04289276
-0.65166289
0.040050802
-0.65697218
0.036384335
-0.66168542
0.030024467
-0.66546938
0.021628852
-0.66838173
0.012040165
-0.67041272
0.0014022653
-0.67044363
-0.01231626
-0.66781551
-0.027918881
-0.66135391
-0.045707107
-0.65177042
-0.060381956
-0.63957185
-0.0709716
-0.62688446
-0.07310395
-0.61948746
-0.059807546
-0.61435986
-0.05080937
-0.61168162
-0.039966417
-0.61031545
-0.031868636
-0.60983866
-0.024922706
-0.60983292
-0.019615984
-0.61007646
-0.01540383
-0.61042459
-0.012136369
-0.61079768
-0.0095572079
-0.6111519
-0.0075118494
-0.61146523
-0.0058630693
-0.61172795
-0.0045126071
-0.61193681
-0.0033822395
-0.6120918
-0.0024115805
-0.61219407
-0.0015513024
-0.00076442477
-0.62033225
0.0023122119
-0.62011432
0.0024417054
-0.61988176
0.0025840871
-0.61963403
0.0028589632
-0.61936576
0.003231918
-0.61907332
0.0037450657
-0.61875424
0.0044197414
-0.61840949
0.0053017354
-0.61804588
0.0064465082
-0.61768061
0.0079318242
-0.6173485
0.0098596652
-0.61711373
0.012363385
-0.61708659
0.015604936
-0.61744743
0.019768868
-0.61849218
0.025047446
-0.62052537
0.031255917
-0.62435285
0.038968964
-0.62940787
0.044744126
-0.63526243
0.048537231
-0.6413467
0.04970335
-0.64756254
0.049108597
-0.65343981
0.045928074
-0.65973588
0.042680404
-0.66541386
0.035702453
-0.66981744
0.026032434
-0.67300372
0.015226444
-0.67559276
0.0039913008
-0.67648641
-0.011422609
-0.67477356
-0.029631735
-0.66790179
-0.052578869
-0.65631736
-0.07196639
-0.64038456
-0.086904399
-0.62317737
-0.090311145
-0.61498123
-0.068003678
-0.6099819
-0.055808701
-0.60798309
-0.04196523
-0.60739619
-0.032455536
-0.60761846
-0.024700441
-0.60818835
-0.019046089
-0.6088778
-0.014714376
-0.60956494
-0.011449233
-0.61019172
-0.0089304297
-0.61073502
-0.0069685469
-0.61118845
-0.0054096388
-0.61155412
-0.0041469388
-0.61183719
-0.003099169
-0.6120435
-0.0022052698
-0.61217809
-0.0014167173
-0.00069771048
-0.62028824
0.0020342605
-0.6200027
0.0021561671
-0.61970095
0.0022823368
-0.61937132
0.0025293344
-0.61900246
0.0028630629
-0.61858271
0.0033253165
-0.61810011
0.0039371379
-0.6175435
0.0047451213
-0.61690472
0.0058077269
-0.61618348
0.0072105937
-0.6153968
0.0090729833
-0.61459696
0.011563542
-0.61390263
0.014910607
-0.61354761
0.019413847
-0.61399149
0.025491329
-0.61573377
0.032998199
-0.62027455
0.043509744
-0.62651469
0.050984257
-0.63369822
0.055720763
-0.64105004
0.057055176
-0.64851967
0.056578221
-0.65521377
0.052622181
-0.66249997
0.049966602
-0.66900264
0.042205117
-0.67376644
0.03079624
-0.67802812
0.019488124
-0.68311581
0.0090789889
-0.68579882
-0.0087395992
-0.6846222
-0.030808354
-0.6757327
-0.061468368
-0.66136182
-0.086337273
-0.64098614
-0.10728008
-0.61786882
-0.11342847
-0.60979368
-0.076078817
-0.60542725
-0.060175127
-0.60431852
-0.043073965
-0.60459373
-0.032180329
-0.60551338
-0.023780786
-0.60664141
-0.017918057
-0.60775324
-0.013602547
-0.60876005
-0.010442424
-0.60962507
-0.008065407
-0.61034584
-0.0062477836
-0.61093056
-0.0048249128
-0.61139257
-0.0036849322
-0.61174493
-0.0027468127
-0.61199904
-0.0019511561
-0.61216364
-0.0012521144
-0.00061640301
-0.61844854
0.0017088698
-0.61812204
0.0018296634
-0.6177827
0.0019429932
-0.61741618
0.0021628158
-0.61700967
0.0024565553
-0.6165502
0.0028658457
-0.61602468
0.0034116148
-0.61542051
0.0041409573
-0.61472749
0.0051147098
-0.61394195
0.0064250542
-0.61307493
0.0082059551
-0.61216797
0.010656587
-0.61132299
0.014065623
-0.6107401
0.018830956
-0.61087817
0.025629404
-0.61212905
0.034249076
-0.61707902
0.048459717
-0.62402838
0.057933619
-0.6319811
0.063673479
-0.63966408
0.064738153
-0.64737066
0.064284799
-0.65372993
0.058981456
-0.66253741
0.058774078
-0.6708323
0.050500008
-0.67708147
0.037045411
-0.68142348
0.023830139
-0.68616863
0.013824133
-0.68961204
-0.0052961869
-0.69116629
-0.0292541
-0.68434278
-0.068291883
-0.66862616
-0.10205389
-0.64165173
-0.13425451
-0.6079959
-0.1470843
-0.59977359
-0.084301122
-0.59758374
-0.06236498
-0.59849982
-0.042157887
-0.60055796
-0.030122192
-0.60273914
-0.021599602
-0.6047577
-0.015899498
-0.60647272
-0.011887523
-0.60789174
-0.0090234115
-0.60903931
-0.0069178358
-0.60995633
-0.0053307601
-0.6106786
-0.0041026464
-0.61123739
-0.0031261346
-0.61165727
-0.0023269341
-0.61195699
-0.0016514353
-0.61214987
-0.0010592389
-0.00052132152
-0.61468054
0.0013807254
-0.61434225
0.001491378
-0.61396906
0.0015698015
-0.61355422
0.0017479806
-0.61307948
0.0019818137
-0.6125251
0.0023114584
-0.61186597
0.0027524838
-0.61107134
0.0033463368
-0.61010339
0.0041467561
-0.60891691
0.005238571
-0.60746192
0.0067509628
-0.60569435
0.0088890243
-0.60361381
0.011985079
-0.60132142
0.016538569
-0.59942618
0.023734162
-0.59873515
0.033558049
-0.60459217
0.054316732
-0.61362713
0.066968586
-0.62341631
0.07346265
-0.63270087
0.074022717
-0.64226086
0.073844787
-0.64992319
0.066643793
-0.66005198
0.068902861
-0.66956503
0.060013058
-0.67281396
0.040294343
-0.6755601
0.026576284
-0.68783813
0.026102162
-0.69838586
0.0052515402
-0.70477522
-0.022864742
-0.69145821
-0.081608887
-0.66947063
-0.12404147
-0.63660836
-0.16711678
-0.59326289
-0.19042977
-0.59071081
-0.086853203
-0.59175141
-0.061324371
-0.59429547
-0.039613834
-0.5976916
-0.026726065
-0.60071192
-0.018579277
-0.60334909
-0.013262331
-0.60548753
-0.009749082
-0.60720893
-0.0073020132
-0.60857025
-0.005556514
-0.60964037
-0.004260643
-0.61047231
-0.003270701
-0.61110958
-0.002488862
-0.61158481
-0.0018517117
-0.61192215
-0.0013140865
-0.61213842
-0.0008429756
-0.00041493946
-0.60889958
0.00094232239
-0.60847739
0.0010691917
-0.60804433
0.0011367446
-0.60756891
0.0012725529
-0.607031
0.0014439069
-0.60640597
0.0016864332
-0.60566654
0.0020130485
-0.60477946
0.0024592564
-0.60370512
0.0030724207
-0.60239788
0.0039313275
-0.60081083
0.0051639086
-0.59890837
0.0069865694
-0.59672179
0.0097984955
-0.59437206
0.014188842
-0.59258193
0.021944033
-0.59141442
0.032390535
-0.59903138
0.061933691
-0.60983185
0.077769062
-0.62181612
0.085446914
-0.63158818
0.083794782
-0.64170952
0.083966126
-0.64402706
0.068961334
-0.6551108
0.038652734
-0.66330696
0.035304795
-0.67098794
0.018377243
-0.68258025
0.0097963148
-0.69423345
0.02172213
-0.70185301
0.011938571
-0.70208656
-0.0014271698
-0.69550521
-0.051803973
-0.66919216
-0.077816254
-0.62604605
-0.09578144
-0.56491393
-0.25156189
-0.56642691
-0.085340222
-0.57744655
-0.05030473
-0.58562152
-0.031438862
-0.59262421
-0.019723378
-0.59771928
-0.013484206
-0.60153667
-0.0094449451
-0.6043676
-0.0069181492
-0.60650069
-0.0051689246
-0.60811762
-0.0039395817
-0.60935088
-0.0030273801
-0.61029037
-0.0023312088
-0.61099982
-0.0017794169
-0.61152372
-0.0013278066
-0.61189318
-0.00094462981
-0.61212905
-0.00060710489
-0.00029904125
-0.59741991
0.00059970947
-0.59708916
0.00073843731
-0.59670864
0.00075622497
-0.59627828
0.00084219238
-0.5957753
0.00094092616
-0.59517456
0.0010856999
-0.59444214
0.0012806216
-0.59353249
0.0015496071
-0.59238278
0.0019227078
-0.59090328
0.0024518295
-0.58896225
0.003222884
-0.58635419
0.0043785106
-0.58278722
0.0062315176
-0.57760905
0.0090106744
-0.57041455
0.014749538
-0.56099709
0.022973074
-0.573158
0.038016405
-0.58994821
0.04310767
-0.59541291
0.047121631
-0.58118027
0.042625397
-0.48614131
0.043807449
-0.20207762
0.024238844
0
0
0
0
0
0
0
0
0
0
0
0
0
0
0
0
0
0
-0.25087135
0
-0.51606863
-0.14664006
-0.56674545
-0.034663409
-0.57828503
-0.038765151
-0.58398319
-0.025740696
-0.59145657
-0.01225
-0.59672596
-0.0082148165
-0.60082551
-0.0053453934
-0.60385402
-0.0038896409
-0.60614079
-0.0028821526
-0.60786866
-0.0022117086
-0.60918275
-0.0017132977
-0.61018054
-0.0013334151
-0.61093181
-0.0010281423
-0.61148523
-0.00077438889
-0.61187473
-0.00055512989
-0.61212304
-0.00035879913
-0.00017717404
-0.42161738
-0.00039724821
-0.42034534
-0.00053360139
-0.41904118
-0.00054793913
-0.41757208
-0.0006269044
-0.41591467
-0.00071647855
-0.41397995
-0.0008490267
-0.41167063
-0.0010286951
-0.40884218
-0.0012788421
-0.40529044
-0.001629034
-0.40070822
-0.0021303898
-0.39461759
-0.0028677453
-0.38625709