/*--------------------------------*- C++ -*----------------------------------*\
| =========                 |                                                 |
| \\      /  F ield         | foam-extend: Open Source CFD                    |
|  \\    /   O peration     | Version:     4.1                                |
|   \\  /    A nd           | Web:         http://www.foam-extend.org         |
|    \\/     M anipulation  |                                                 |
\*---------------------------------------------------------------------------*/
FoamFile
{
    version     2.0;
    format      ascii;
    class       volVectorField;
    location    "0.1";
    object      U;
}
// * * * * * * * * * * * * * * * * * * * * * * * * * * * * * * * * * * * * * //

dimensions      [0 1 -1 0 0 0 0];

internalField   nonuniform List<vector> 
4393
(
(147.32063 -0.076933921 0)
(147.52744 -0.089375605 0)
(147.65525 -0.090903367 0)
(147.82428 -0.094941991 0)
(147.98725 -0.098478429 0)
(148.16594 -0.10276196 0)
(148.35418 -0.10745798 0)
(148.55753 -0.1126729 0)
(148.77661 -0.11831068 0)
(149.01391 -0.12430287 0)
(149.27072 -0.13051419 0)
(149.54825 -0.13676461 0)
(149.84683 -0.14280783 0)
(150.16598 -0.14833158 0)
(150.50406 -0.15295807 0)
(150.8581 -0.15625713 0)
(151.2237 -0.15776965 0)
(151.59493 -0.15704035 0)
(151.96443 -0.15366156 0)
(152.32362 -0.14730957 0)
(152.66299 -0.13778349 0)
(152.97258 -0.12502936 0)
(153.24241 -0.10916377 0)
(153.46309 -0.090481005 0)
(153.62635 -0.069462902 0)
(153.72568 -0.046762751 0)
(153.75683 -0.023182258 0)
(153.71839 0.00046081222 0)
(153.61157 0.02303604 0)
(153.44149 0.043295703 0)
(153.21635 0.060268444 0)
(152.94705 0.073222525 0)
(152.64627 0.081757536 0)
(152.32738 0.085848814 0)
(152.00326 0.085826936 0)
(151.68542 0.082253299 0)
(151.38338 0.07586493 0)
(151.10439 0.067413926 0)
(150.85345 0.057634687 0)
(150.63355 0.047151406 0)
(150.44598 0.036479908 0)
(150.29076 0.026005121 0)
(150.16694 0.016005377 0)
(150.07298 0.0066703332 0)
(150.007 -0.0018568703 0)
(149.9668 -0.0094527966 0)
(149.95002 -0.015755995 0)
(149.95723 -0.020127998 0)
(149.96526 -0.025376163 0)
(150.75868 -0.097960672 0)
(150.88459 -0.11348002 0)
(150.94819 -0.11590607 0)
(151.04534 -0.12320639 0)
(151.13782 -0.13097811 0)
(151.2452 -0.14137944 0)
(151.36226 -0.15389556 0)
(151.49431 -0.16877596 0)
(151.64213 -0.1858192 0)
(151.80822 -0.20481977 0)
(151.99397 -0.22536098 0)
(152.20063 -0.24685536 0)
(152.42866 -0.26849165 0)
(152.67765 -0.28923548 0)
(152.94606 -0.30783614 0)
(153.23099 -0.32287051 0)
(153.52806 -0.33281954 0)
(153.8313 -0.33617182 0)
(154.1333 -0.33156222 0)
(154.42532 -0.31788466 0)
(154.69769 -0.29441425 0)
(154.94021 -0.26088307 0)
(155.14269 -0.21755844 0)
(155.29547 -0.16527106 0)
(155.39002 -0.10546019 0)
(155.4196 -0.040138141 0)
(155.37983 0.028140498 0)
(155.26913 0.096482526 0)
(155.08971 0.1616366 0)
(154.84659 0.2202727 0)
(154.54808 0.26945707 0)
(154.20518 0.30696289 0)
(153.83076 0.33152191 0)
(153.43843 0.34299964 0)
(153.04124 0.34233946 0)
(152.65079 0.33117094 0)
(152.27662 0.31166258 0)
(151.9259 0.28601811 0)
(151.60353 0.25639448 0)
(151.31237 0.22461194 0)
(151.05361 0.19216613 0)
(150.82713 0.16015148 0)
(150.63193 0.1293291 0)
(150.46646 0.10016202 0)
(150.32885 0.07291061 0)
(150.2171 0.047675529 0)
(150.12925 0.024795367 0)
(150.06382 0.0050544015 0)
(150.01828 -0.016043571 0)
(150.89307 -0.18599062 0)
(151.01245 -0.19768878 0)
(151.07206 -0.2042586 0)
(151.16296 -0.21732653 0)
(151.24946 -0.23237701 0)
(151.35029 -0.25137522 0)
(151.46068 -0.27359978 0)
(151.5859 -0.2992615 0)
(151.72687 -0.32801733 0)
(151.88619 -0.35950306 0)
(152.06542 -0.39304404 0)
(152.26599 -0.42769369 0)
(152.48858 -0.46214788 0)
(152.73301 -0.49473625 0)
(152.99794 -0.52342781 0)
(153.28067 -0.54589767 0)
(153.57692 -0.55965244 0)
(153.88074 -0.56220187 0)
(154.18462 -0.55130033 0)
(154.47966 -0.5251335 0)
(154.75591 -0.48252897 0)
(155.00284 -0.42307706 0)
(155.20984 -0.34726463 0)
(155.36681 -0.2565129 0)
(155.46474 -0.1532659 0)
(155.49639 -0.040927228 0)
(155.45693 0.07616586 0)
(155.34443 0.19293417 0)
(155.16039 0.3039272 0)
(154.90995 0.40372751 0)
(154.60181 0.48736009 0)
(154.24771 0.55105543 0)
(153.86148 0.59266802 0)
(153.45769 0.61202103 0)
(153.05019 0.610823 0)
(152.65115 0.59191242 0)
(152.27033 0.55906315 0)
(151.9149 0.51604294 0)
(151.58961 0.46653278 0)
(151.29699 0.41359982 0)
(151.03791 0.35975561 0)
(150.81193 0.30681894 0)
(150.61775 0.2560472 0)
(150.45356 0.20818987 0)
(150.31732 0.16363832 0)
(150.20692 0.1225076 0)
(150.12052 0.084917905 0)
(150.05553 0.051251183 0)
(150.01396 0.019805894 0)
(150.91311 -0.20750078 0)
(151.02319 -0.21800067 0)
(151.08168 -0.22511268 0)
(151.16897 -0.240035 0)
(151.25322 -0.25843301 0)
(151.35145 -0.28252764 0)
(151.45957 -0.31163629 0)
(151.58262 -0.34607833 0)
(151.72172 -0.38549113 0)
(151.87958 -0.42943426 0)
(152.05795 -0.47702746 0)
(152.25852 -0.52698055 0)
(152.48223 -0.57747197 0)
(152.72917 -0.62612667 0)
(152.99828 -0.67001908 0)
(153.28703 -0.70576502 0)
(153.59122 -0.72970497 0)
(153.90483 -0.73815249 0)
(154.22006 -0.72776603 0)
(154.5276 -0.69581117 0)
(154.81694 -0.64047532 0)
(155.07691 -0.561026 0)
(155.29618 -0.45801171 0)
(155.46385 -0.33330025 0)
(155.57015 -0.19024145 0)
(155.6071 -0.033569812 0)
(155.56922 0.13061798 0)
(155.45407 0.2951631 0)
(155.26294 0.45209785 0)
(155.00115 0.59336073 0)
(154.67812 0.71156296 0)
(154.30674 0.80110214 0)
(153.9023 0.85878372 0)
(153.48096 0.88438778 0)
(153.05779 0.88057451 0)
(152.6458 0.85155832 0)
(152.25513 0.80296508 0)
(151.8929 0.74026073 0)
(151.56356 0.6687742 0)
(151.26918 0.5928517 0)
(151.0101 0.51602632 0)
(150.7854 0.44080253 0)
(150.59336 0.36888343 0)
(150.43183 0.30124482 0)
(150.29854 0.23835533 0)
(150.19129 0.18031877 0)
(150.10831 0.12714644 0)
(150.04691 0.078908081 0)
(150.01055 0.035432741 0)
(150.94719 -0.28092069 0)
(151.05469 -0.2932954 0)
(151.11118 -0.305 0)
(151.19439 -0.32650362 0)
(151.2746 -0.35310827 0)
(151.36811 -0.38688329 0)
(151.47143 -0.42698902 0)
(151.58959 -0.47368189 0)
(151.72403 -0.52648239 0)
(151.8777 -0.58480543 0)
(152.05272 -0.64753424 0)
(152.25116 -0.71303128 0)
(152.47441 -0.77897658 0)
(152.72305 -0.84232194 0)
(152.99641 -0.89927952 0)
(153.29228 -0.94542778 0)
(153.60658 -0.97594994 0)
(153.93319 -0.98595492 0)
(154.26393 -0.97101639 0)
(154.58889 -0.92750285 0)
(154.8968 -0.85302146 0)
(155.17554 -0.74659748 0)
(155.41276 -0.60895979 0)
(155.59647 -0.44255005 0)
(155.71576 -0.25180058 0)
(155.76154 -0.042967668 0)
(155.72736 0.17586688 0)
(155.60998 0.39513452 0)
(155.41033 0.60419968 0)
(155.13391 0.7922449 0)
(154.79109 0.94919767 0)
(154.39641 1.0674252 0)
(153.96728 1.1425777 0)
(153.5222 1.1745091 0)
(153.07799 1.1672334 0)
(152.64879 1.1266509 0)
(152.24522 1.0606809 0)
(151.87426 0.97671898 0)
(151.5399 0.88196327 0)
(151.24348 0.78210835 0)
(150.98466 0.68174032 0)
(150.76176 0.58400851 0)
(150.57248 0.49099588 0)
(150.41418 0.40380308 0)
(150.28422 0.32284112 0)
(150.18021 0.24799552 0)
(150.10027 0.17886831 0)
(150.04168 0.11486845 0)
(150.00862 0.055318998 0)
(150.98717 -0.30562913 0)
(151.08149 -0.31672502 0)
(151.13394 -0.32802824 0)
(151.21135 -0.35004396 0)
(151.28747 -0.37852114 0)
(151.37676 -0.41579744 0)
(151.47633 -0.46121745 0)
(151.591 -0.51523051 0)
(151.72244 -0.5774746 0)
(151.87379 -0.6474247 0)
(152.0475 -0.72390394 0)
(152.24607 -0.8050595 0)
(152.47137 -0.88814483 0)
(152.72447 -0.96943255 0)
(153.00523 -1.0441752 0)
(153.3118 -1.1067209 0)
(153.64029 -1.1508236 0)
(153.9844 -1.1700456 0)
(154.33551 -1.1585478 0)
(154.68294 -1.1114759 0)
(155.0144 -1.025576 0)
(155.31663 -0.8993558 0)
(155.57601 -0.73347959 0)
(155.7792 -0.53069115 0)
(155.91386 -0.29630144 0)
(155.96958 -0.037926536 0)
(155.9387 0.23441059 0)
(155.81705 0.50873157 0)
(155.60506 0.77123958 0)
(155.30842 1.0076694 0)
(154.93866 1.2044932 0)
(154.51253 1.3514674 0)
(154.05029 1.4427167 0)
(153.5737 1.4781951 0)
(153.1019 1.4638166 0)
(152.65048 1.4075143 0)
(152.2306 1.3200967 0)
(151.84892 1.2111331 0)
(151.50874 1.0899527 0)
(151.21039 0.96363932 0)
(150.95254 0.83784664 0)
(150.73258 0.71630309 0)
(150.54742 0.6014081 0)
(150.39381 0.49432574 0)
(150.26865 0.39538576 0)
(150.16921 0.30428177 0)
(150.09341 0.22032019 0)
(150.03835 0.14250601 0)
(150.00775 0.069839412 0)
(151.04248 -0.35967215 0)
(151.13517 -0.37479739 0)
(151.18446 -0.39152932 0)
(151.25628 -0.42153119 0)
(151.32638 -0.45972817 0)
(151.40866 -0.50850418 0)
(151.50089 -0.56706101 0)
(151.60791 -0.63583197 0)
(151.7318 -0.71438497 0)
(151.87605 -0.8020961 0)
(152.04367 -0.89759544 0)
(152.23778 -0.99870949 0)
(152.46103 -1.1021866 0)
(152.71532 -1.2035615 0)
(153.00128 -1.2970737 0)
(153.31769 -1.3757747 0)
(153.66101 -1.4319089 0)
(154.02481 -1.4573701 0)
(154.3999 -1.4448536 0)
(154.77463 -1.3882514 0)
(155.13547 -1.2835055 0)
(155.46769 -1.1286909 0)
(155.75612 -0.92458382 0)
(155.98566 -0.67440276 0)
(156.14214 -0.38466117 0)
(156.21332 -0.064688001 0)
(156.18982 0.2731617 0)
(156.06583 0.61390853 0)
(155.84079 0.94022716 0)
(155.5204 1.2340489 0)
(155.11768 1.4777876 0)
(154.65232 1.6581458 0)
(154.14851 1.7674097 0)
(153.63265 1.8058037 0)
(153.12687 1.7821261 0)
(152.64861 1.7068385 0)
(152.20958 1.5945675 0)
(151.81577 1.4573775 0)
(151.46954 1.3071131 0)
(151.16978 1.1522894 0)
(150.91389 0.9996423 0)
(150.69804 0.85336588 0)
(150.51822 0.71604883 0)
(150.3704 0.58875907 0)
(150.25096 0.47158476 0)
(150.15683 0.36386119 0)
(150.08567 0.26445612 0)
(150.03455 0.17187902 0)
(150.00675 0.084741708 0)
(151.10042 -0.392218 0)
(151.17381 -0.40555169 0)
(151.21639 -0.42067016 0)
(151.27955 -0.44952424 0)
(151.34321 -0.4875418 0)
(151.419 -0.53749669 0)
(151.50533 -0.59889256 0)
(151.60676 -0.67250714 0)
(151.72569 -0.75822161 0)
(151.86587 -0.85570439 0)
(152.03081 -0.96378623 0)
(152.22424 -1.080339 0)
(152.44956 -1.2019045 0)
(152.70954 -1.323464 0)
(153.00567 -1.438267 0)
(153.33742 -1.5378988 0)
(153.70167 -1.6127556 0)
(154.09182 -1.6525345 0)
(154.49789 -1.6479985 0)
(154.90703 -1.591311 0)
(155.30418 -1.4772519 0)
(155.67282 -1.3030933 0)
(155.99592 -1.0694189 0)
(156.2563 -0.77944805 0)
(156.43756 -0.44052453 0)
(156.52538 -0.063262852 0)
(156.50841 0.33795643 0)
(156.37915 0.74558217 0)
(156.13587 1.1380914 0)
(155.78409 1.4924522 0)
(155.33851 1.7854579 0)
(154.82245 1.9996209 0)
(154.26523 2.1245679 0)
(153.69966 2.1608017 0)
(153.15169 2.1214974 0)
(152.64083 2.0201441 0)
(152.17933 1.8764726 0)
(151.77199 1.7053056 0)
(151.41975 1.5214369 0)
(151.11955 1.3347531 0)
(150.86717 1.153032 0)
(150.65722 0.98075217 0)
(150.48455 0.82053996 0)
(150.34422 0.67321568 0)
(150.23199 0.53851771 0)
(150.14431 0.41534506 0)
(150.07853 0.3020817 0)
(150.03159 0.19670626 0)
(150.00617 0.097297447 0)
(151.17449 -0.41720981 0)
(151.24842 -0.43557955 0)
(151.28745 -0.45693763 0)
(151.34408 -0.4951217 0)
(151.40021 -0.54451459 0)
(151.46699 -0.60810663 0)
(151.54353 -0.68532649 0)
(151.63442 -0.77704391 0)
(151.74249 -0.88317282 0)
(151.87192 -1.0033863 0)
(152.02692 -1.1364154 0)
(152.21213 -1.279877 0)
(152.43213 -1.4298174 0)
(152.69102 -1.5803931 0)
(152.9917 -1.723604 0)
(153.33484 -1.8492959 0)
(153.71818 -1.9457548 0)
(154.13506 -2.0000967 0)
(154.57463 -2.00101 0)
(155.02256 -1.938814 0)
(155.46192 -1.8072151 0)
(155.87411 -1.6027467 0)
(156.23998 -1.3260485 0)
(156.53991 -0.98043661 0)
(156.7548 -0.57461909 0)
(156.86769 -0.12114267 0)
(156.8645 0.36280506 0)
(156.73462 0.85584368 0)
(156.47389 1.3315188 0)
(156.08692 1.761354 0)
(155.59042 2.1153239 0)
(155.01262 2.3709301 0)
(154.38976 2.5143084 0)
(153.76394 2.5463495 0)
(153.16599 2.4871887 0)
(152.61772 2.3538611 0)
(152.13174 2.1731547 0)
(151.71076 1.9628931 0)
(151.35385 1.7414438 0)
(151.05521 1.5199578 0)
(150.80866 1.3072201 0)
(150.60692 1.1077588 0)
(150.44354 0.92404382 0)
(150.31257 0.7564414 0)
(150.2091 0.60418072 0)
(150.12915 0.46560488 0)
(150.06977 0.33855783 0)
(150.02783 0.22050637 0)
(150.00537 0.10911675 0)
(151.24609 -0.46504805 0)
(151.29318 -0.48106983 0)
(151.32261 -0.49975817 0)
(151.36711 -0.53511588 0)
(151.41389 -0.58207218 0)
(151.47118 -0.64404878 0)
(151.53882 -0.72085773 0)
(151.62106 -0.81385911 0)
(151.7211 -0.92350514 0)
(151.84348 -1.050075 0)
(151.99308 -1.1929007 0)
(152.17543 -1.3501056 0)
(152.39624 -1.5179925 0)
(152.66097 -1.6905362 0)
(152.97398 -1.8588919 0)
(153.33721 -2.011206 0)
(153.74936 -2.1333525 0)
(154.20352 -2.2090102 0)
(154.68759 -2.2241659 0)
(155.18533 -2.1665929 0)
(155.67754 -2.0285368 0)
(156.14307 -1.8053366 0)
(156.56036 -1.497503 0)
(156.90686 -1.1077031 0)
(157.16002 -0.6455489 0)
(157.29988 -0.12461935 0)
(157.30934 0.43617873 0)
(157.17481 1.0135532 0)
(156.88954 1.575531 0)
(156.45664 2.0862577 0)
(155.89478 2.5055403 0)
(155.23807 2.8035871 0)
(154.53145 2.9610849 0)
(153.83043 2.9789941 0)
(153.1718 2.8887314 0)
(152.5795 2.7111592 0)
(152.06633 2.4829507 0)
(151.63146 2.2248665 0)
(151.27142 1.9595049 0)
(150.97674 1.698873 0)
(150.73879 1.4525548 0)
(150.54798 1.2246983 0)
(150.39638 1.0173021 0)
(150.27688 0.82998379 0)
(150.18388 0.66125008 0)
(150.11291 0.50872153 0)
(150.06074 0.36957856 0)
(150.02419 0.24067116 0)
(150.00468 0.11914736 0)
(151.33554 -0.44834634 0)
(151.38668 -0.46945089 0)
(151.4129 -0.49453144 0)
(151.45079 -0.53971293 0)
(151.48927 -0.59897903 0)
(151.53626 -0.67616204 0)
(151.59223 -0.77119701 0)
(151.66135 -0.88575759 0)
(151.74715 -1.0205643 0)
(151.85457 -1.1761421 0)
(151.98924 -1.351953 0)
(152.15784 -1.5460526 0)
(152.36769 -1.7543408 0)
(152.62633 -1.9698981 0)
(152.94054 -2.1822901 0)
(153.31455 -2.3771693 0)
(153.74906 -2.5373141 0)
(154.23735 -2.6418676 0)
(154.76587 -2.6738452 0)
(155.31611 -2.6182358 0)
(155.86612 -2.466128 0)
(156.39178 -2.2117138 0)
(156.86904 -1.8557966 0)
(157.27221 -1.3998731 0)
(157.57488 -0.85508311 0)
(157.75388 -0.23701619 0)
(157.78843 0.43214828 0)
(157.6592 1.1244893 0)
(157.35374 1.8006685 0)
(156.87131 2.4171548 0)
(156.23261 2.9212643 0)
(155.47982 3.2746749 0)
(154.66966 3.4504329 0)
(153.8781 3.4488751 0)
(153.14935 3.3201057 0)
(152.50865 3.0883162 0)
(151.96859 2.804311 0)
(151.52247 2.4913192 0)
(151.16352 2.1771431 0)
(150.87729 1.874095 0)
(150.65233 1.592398 0)
(150.47633 1.3353656 0)
(150.3398 1.1042313 0)
(150.23446 0.89758753 0)
(150.15407 0.71304036 0)
(150.09375 0.54737163 0)
(150.05005 0.39704977 0)
(150.0198 0.25831048 0)
(150.00381 0.12782847 0)
(151.41648 -0.52121213 0)
(151.4327 -0.54006677 0)
(151.4461 -0.56221959 0)
(151.46784 -0.60369801 0)
(151.49329 -0.65892689 0)
(151.52675 -0.73206188 0)
(151.56949 -0.82338493 0)
(151.62525 -0.93509617 0)
(151.69799 -1.0686066 0)
(151.79311 -1.2253498 0)
(151.91714 -1.4058782 0)
(152.07799 -1.6094384 0)
(152.2847 -1.8330227 0)
(152.54696 -2.070395 0)
(152.87407 -2.3109166 0)
(153.27249 -2.5385319 0)
(153.74523 -2.7331216 0)
(154.2852 -2.8677698 0)
(154.87636 -2.9218117 0)
(155.49707 -2.8763503 0)
(156.12197 -2.7209855 0)
(156.72342 -2.4480426 0)
(157.27499 -2.0589975 0)
(157.74723 -1.5529743 0)
(158.10825 -0.94290433 0)
(158.33076 -0.24537358 0)
(158.38973 0.51675826 0)
(158.26045 1.3172122 0)
(157.92514 2.1103801 0)
(157.37788 2.8422559 0)
(156.64071 3.4398902 0)
(155.76497 3.851605 0)
(154.82141 4.037793 0)
(153.91694 3.9959424 0)
(153.10447 3.8082019 0)
(152.4083 3.500364 0)
(151.84063 3.1438001 0)
(151.38532 2.762758 0)
(151.03161 2.3911551 0)
(150.75832 2.0403323 0)
(150.55083 1.7205683 0)
(150.39356 1.4334719 0)
(150.2754 1.1789486 0)
(150.18684 0.95409612 0)
(150.12107 0.75531184 0)
(150.07284 0.5783247 0)
(150.03857 0.41875587 0)
(150.0152 0.27214052 0)
(150.00293 0.13462988 0)
(151.51657 -0.44903426 0)
(151.54093 -0.47154802 0)
(151.55216 -0.49869222 0)
(151.56809 -0.54841984 0)
(151.58558 -0.61470761 0)
(151.60864 -0.70239148 0)
(151.63903 -0.81227181 0)
(151.68017 -0.94728752 0)
(151.7361 -1.1096196 0)
(151.81232 -1.3015039 0)
(151.91592 -1.5242121 0)
(152.05591 -1.7774861 0)
(152.24329 -2.0583431 0)
(152.49066 -2.3598034 0)
(152.81136 -2.6692751 0)
(153.21593 -2.9668931 0)
(153.71235 -3.2279396 0)
(154.29429 -3.4161539 0)
(154.94287 -3.5066842 0)
(155.63281 -3.4762684 0)
(156.33468 -3.3141891 0)
(157.01647 -3.0112295 0)
(157.64961 -2.5710669 0)
(158.20072 -1.9878135 0)
(158.63175 -1.2760867 0)
(158.91282 -0.45386727 0)
(159.01619 0.45308419 0)
(158.90744 1.414385 0)
(158.55571 2.3716431 0)
(157.94248 3.2609692 0)
(157.08978 3.9846024 0)
(156.06208 4.4769847 0)
(154.94887 4.6801768 0)
(153.9073 4.5838121 0)
(153.00082 4.3249056 0)
(152.24715 3.924835 0)
(151.65795 3.4849925 0)
(151.20149 3.0275579 0)
(150.86242 2.5939871 0)
(150.61053 2.1930806 0)
(150.42787 1.8347752 0)
(150.29522 1.5181984 0)
(150.20006 1.2415259 0)
(150.13179 1.0000265 0)
(150.08324 0.78870858 0)
(150.04901 0.60214584 0)
(150.02552 0.43507762 0)
(150.00994 0.28234244 0)
(150.00191 0.13959163 0)
(151.60229 -0.55694727 0)
(151.58491 -0.57873103 0)
(151.58016 -0.60435761 0)
(151.57578 -0.6515594 0)
(151.57588 -0.71433339 0)
(151.58023 -0.79756042 0)
(151.59135 -0.90213596 0)
(151.61207 -1.0313176 0)
(151.64683 -1.1878641 0)
(151.70164 -1.3749737 0)
(151.78471 -1.5953371 0)
(151.90681 -1.8506067 0)
(152.08148 -2.1400698 0)
(152.32482 -2.4590463 0)
(152.65474 -2.796471 0)
(153.08578 -3.1315504 0)
(153.63186 -3.4373989 0)
(154.28589 -3.665367 0)
(155.02311 -3.7862596 0)
(155.81239 -3.7707874 0)
(156.61898 -3.6080311 0)
(157.40558 -3.2851265 0)
(158.14357 -2.8094415 0)
(158.7962 -2.1665698 0)
(159.31572 -1.3765712 0)
(159.6675 -0.46119348 0)
(159.81888 0.5535538 0)
(159.72434 1.6507857 0)
(159.34246 2.76947 0)
(158.64067 3.8347281 0)
(157.63948 4.7046705 0)
(156.41704 5.2884903 0)
(155.0809 5.4962724 0)
(153.86794 5.2984691 0)
(152.85292 4.9302328 0)
(152.03589 4.3980538 0)
(151.42973 3.8480004 0)
(150.97835 3.2946407 0)
(150.6621 2.7878662 0)
(150.43881 2.3308354 0)
(150.28741 1.9317671 0)
(150.18445 1.5857412 0)
(150.11627 1.2882867 0)
(150.07123 1.0321837 0)
(150.04204 0.81066965 0)
(150.02328 0.61694058 0)
(150.01154 0.44474386 0)
(150.00437 0.28817916 0)
(150.00084 0.14239362 0)
(151.70605 -0.41791008 0)
(151.69961 -0.43983594 0)
(151.69396 -0.46652713 0)
(151.68522 -0.51686081 0)
(151.67882 -0.5852902 0)
(151.67415 -0.67768332 0)
(151.67409 -0.79603027 0)
(151.68078 -0.94499399 0)
(151.69832 -1.1289968 0)
(151.73222 -1.3531701 0)
(151.79059 -1.6223015 0)
(151.88471 -1.9400978 0)
(152.02974 -2.3074126 0)
(152.24517 -2.7200276 0)
(152.55505 -3.1652077 0)
(152.98046 -3.6161641 0)
(153.54802 -4.0398274 0)
(154.25292 -4.3647838 0)
(155.06353 -4.5563417 0)
(155.94242 -4.5777327 0)
(156.84938 -4.4212127 0)
(157.7402 -4.0717517 0)
(158.58742 -3.5480255 0)
(159.34915 -2.8200416 0)
(159.96324 -1.9109211 0)
(160.39571 -0.84191088 0)
(160.6209 0.36418378 0)
(160.58128 1.6955207 0)
(160.20691 3.0615869 0)
(159.42723 4.3768691 0)
(158.25268 5.4450384 0)
(156.78271 6.1585856 0)
(155.14749 6.3819205 0)
(153.72077 6.0422713 0)
(152.59124 5.5467459 0)
(151.71614 4.8580997 0)
(151.11266 4.1878558 0)
(150.68492 3.5323384 0)
(150.40996 2.951686 0)
(150.22979 2.4400277 0)
(150.12109 2.0031764 0)
(150.05614 1.6311395 0)
(150.02092 1.3164109 0)
(150.00326 1.0490283 0)
(149.99629 0.8203767 0)
(149.99494 0.6222676 0)
(149.99622 0.4474968 0)
(149.99825 0.28948698 0)
(149.99965 0.1429419 0)
(151.79291 -0.56703914 0)
(151.74214 -0.59174042 0)
(151.71841 -0.62074735 0)
(151.68613 -0.67306047 0)
(151.65809 -0.74237374 0)
(151.62902 -0.83425003 0)
(151.60224 -0.95031985 0)
(151.57897 -1.0950664 0)
(151.56332 -1.2729364 0)
(151.56108 -1.489488 0)
(151.58141 -1.7505642 0)
(151.63775 -2.0618608 0)
(151.74893 -2.4273577 0)
(151.94019 -2.8472046 0)
(152.24453 -3.3136285 0)
(152.69007 -3.8013829 0)
(153.32055 -4.2818085 0)
(154.12968 -4.6538 0)
(155.06955 -4.8801575 0)
(156.09087 -4.9150593 0)
(157.14436 -4.7575447 0)
(158.17499 -4.3836904 0)
(159.16415 -3.8264614 0)
(160.07195 -3.0219482 0)
(160.81669 -2.0079929 0)
(161.36408 -0.82300927 0)
(161.68887 0.49702777 0)
(161.70321 1.9832669 0)
(161.31415 3.56371 0)
(160.41738 5.1632341 0)
(159.01682 6.4844199 0)
(157.23225 7.3695678 0)
(155.19444 7.5978806 0)
(153.50165 7.0022536 0)
(152.25446 6.3052909 0)
(151.32099 5.3859101 0)
(150.73671 4.5515092 0)
(150.34487 3.7653641 0)
(150.12439 3.096799 0)
(149.9969 2.5246696 0)
(149.93856 2.0492773 0)
(149.91703 1.6530679 0)
(149.91865 1.3240876 0)
(149.93103 1.048825 0)
(149.94805 0.81640044 0)
(149.96525 0.61706845 0)
(149.98026 0.44262768 0)
(149.99192 0.28585094 0)
(149.99844 0.14104885 0)
(151.88883 -0.35778233 0)
(151.84767 -0.37687472 0)
(151.82363 -0.4000155 0)
(151.78808 -0.44583394 0)
(151.7554 -0.50957264 0)
(151.71972 -0.597901 0)
(151.68461 -0.71403136 0)
(151.65036 -0.8645129 0)
(151.62035 -1.0565713 0)
(151.59915 -1.2994311 0)
(151.59478 -1.6035988 0)
(151.61971 -1.9803802 0)
(151.69275 -2.4397713 0)
(151.84114 -2.9872877 0)
(152.10579 -3.617673 0)
(152.5216 -4.2973232 0)
(153.16591 -4.9939685 0)
(154.0394 -5.5426685 0)
(155.074 -5.9010933 0)
(156.20822 -6.0096714 0)
(157.38761 -5.8796783 0)
(158.54534 -5.4789294 0)
(159.68096 -4.8855969 0)
(160.74908 -3.9933518 0)
(161.61977 -2.853733 0)
(162.25995 -1.5136054 0)
(162.6884 0.028719708 0)
(162.82294 1.8703176 0)
(162.52045 3.8523272 0)
(161.56713 5.8867724 0)
(159.91456 7.5316532 0)
(157.71505 8.6453633 0)
(155.09113 8.8959836 0)
(153.04518 7.9215762 0)
(151.70014 7.0066848 0)
(150.73368 5.8288766 0)
(150.21912 4.8345005 0)
(149.90211 3.9246646 0)
(149.77 3.1798852 0)
(149.71877 2.5583853 0)
(149.72751 2.0544945 0)
(149.7603 1.6425553 0)
(149.80582 1.3062723 0)
(149.85263 1.0288016 0)
(149.89636 0.79724751 0)
(149.93372 0.60055011 0)
(149.96342 0.42971822 0)
(149.98525 0.27705501 0)
(149.99715 0.13661551 0)
(151.97691 -0.54449706 0)
(151.89658 -0.57171683 0)
(151.85498 -0.60331521 0)
(151.79556 -0.65921322 0)
(151.73904 -0.73294727 0)
(151.67484 -0.83078181 0)
(151.60634 -0.95521604 0)
(151.53206 -1.1121457 0)
(151.45433 -1.3080538 0)
(151.37671 -1.5514783 0)
(151.30698 -1.8525199 0)
(151.2589 -2.222866 0)
(151.25523 -2.6743578 0)
(151.33145 -3.2170593 0)
(151.54683 -3.8545605 0)
(151.94756 -4.5576503 0)
(152.66561 -5.3276484 0)
(153.70036 -5.9191902 0)
(154.93379 -6.2988408 0)
(156.28027 -6.3927376 0)
(157.67245 -6.2484274 0)
(159.01011 -5.8112952 0)
(160.32464 -5.2219093 0)
(161.59285 -4.2345434 0)
(162.6314 -2.9326015 0)
(163.44141 -1.400155 0)
(164.09474 0.26581463 0)
(164.40276 2.2389472 0)
(164.1516 4.4446258 0)
(163.0426 6.9356153 0)
(161.03439 9.0661636 0)
(158.32463 10.574743 0)
(154.89696 10.890828 0)
(152.42584 9.2421424 0)
(151.04236 7.9485596 0)
(150.05593 6.3741018 0)
(149.64927 5.1431556 0)
(149.42332 4.0690872 0)
(149.39484 3.230556 0)
(149.42793 2.5554654 0)
(149.5094 2.0249346 0)
(149.59975 1.6018646 0)
(149.69116 1.2634895 0)
(149.77348 0.98883508 0)
(149.84446 0.76262351 0)
(149.90223 0.57244367 0)
(149.94667 0.40858034 0)
(149.97865 0.26299094 0)
(149.99589 0.12959176 0)
(152.02654 -0.2762614 0)
(151.9473 -0.29093883 0)
(151.90401 -0.30769076 0)
(151.84027 -0.34392133 0)
(151.77959 -0.39548239 0)
(151.71011 -0.46924455 0)
(151.63568 -0.56903608 0)
(151.55394 -0.70263657 0)
(151.46651 -0.87960341 0)
(151.3756 -1.1133461 0)
(151.28711 -1.4214731 0)
(151.21235 -1.8268108 0)
(151.17116 -2.3565894 0)
(151.19615 -3.0403522 0)
(151.3542 -3.9038265 0)
(151.68122 -4.9153498 0)
(152.39924 -6.1047904 0)
(153.53081 -7.0271226 0)
(154.89475 -7.6521243 0)
(156.37556 -7.8904994 0)
(157.90733 -7.8205127 0)
(159.36057 -7.338117 0)
(160.86385 -6.7200074 0)
(162.40847 -5.6222672 0)
(163.64719 -4.1636763 0)
(164.53783 -2.5986231 0)
(165.26914 -0.86083849 0)
(165.75947 1.643079 0)
(165.79486 4.5799573 0)
(164.79838 7.9859015 0)
(162.49674 10.644632 0)
(159.10065 12.568036 0)
(154.3778 12.954084 0)
(151.25577 10.231837 0)
(149.95514 8.6077967 0)
(149.03153 6.6486286 0)
(148.85124 5.2467073 0)
(148.79673 4.058926 0)
(148.93141 3.1692503 0)
(149.08611 2.4715273 0)
(149.26331 1.936667 0)
(149.42454 1.518372 0)
(149.56926 1.1892867 0)
(149.69104 0.9257438 0)
(149.79124 0.71104299 0)
(149.87029 0.53211046 0)
(149.9298 0.37897493 0)
(149.972 0.24358911 0)
(149.99461 0.11996197 0)
(152.02916 -0.48127402 0)
(151.92593 -0.51006888 0)
(151.8696 -0.54179285 0)
(151.78653 -0.59756934 0)
(151.70444 -0.67075681 0)
(151.60737 -0.76845765 0)
(151.49807 -0.89412603 0)
(151.37115 -1.0552996 0)
(151.2251 -1.2609508 0)
(151.058 -1.5234974 0)
(150.87117 -1.8589531 0)
(150.67179 -2.2879634 0)
(150.47791 -2.8351908 0)
(150.32583 -3.5283301 0)
(150.31588 -4.3990276 0)
(150.49113 -5.4029426 0)
(151.26307 -6.7050704 0)
(152.66676 -7.6318579 0)
(154.34816 -8.2141843 0)
(156.14774 -8.3131797 0)
(158.00971 -8.1541372 0)
(159.69911 -7.5535412 0)
(161.41162 -7.1467347 0)
(163.22508 -5.9825098 0)
(164.55921 -4.3501833 0)
(165.53773 -2.3366939 0)
(166.79635 -0.25176144 0)
(167.89868 2.3219398 0)
(168.27621 5.2552157 0)
(167.05197 9.1341543 0)
(164.13206 12.792858 0)
(159.98904 15.828834 0)
(153.5331 16.683305 0)
(149.73665 12.125737 0)
(148.82666 9.7042505 0)
(147.98309 7.1168682 0)
(148.08518 5.3847136 0)
(148.19806 4.0271013 0)
(148.49544 3.061061 0)
(148.76486 2.3396895 0)
(149.03277 1.8055542 0)
(149.26052 1.3998942 0)
(149.45532 1.0874993 0)
(149.61409 0.8415191 0)
(149.74164 0.64360622 0)
(149.84058 0.4802112 0)
(149.91415 0.34131666 0)
(149.96587 0.21910009 0)
(149.99343 0.10784345 0)
(151.58822 -0.18418422 0)
(151.46799 -0.19455413 0)
(151.40497 -0.20357117 0)
(151.3117 -0.22717366 0)
(151.22107 -0.2610865 0)
(151.11437 -0.31148118 0)
(150.99512 -0.38147593 0)
(150.85719 -0.47823218 0)
(150.69885 -0.61119047 0)
(150.51751 -0.79498652 0)
(150.31346 -1.0514178 0)
(150.09208 -1.4136735 0)
(149.86824 -1.9308925 0)
(149.66936 -2.6734198 0)
(149.60974 -3.7531858 0)
(149.63319 -5.1805515 0)
(150.38488 -7.3587666 0)
(151.96799 -8.9390368 0)
(153.84882 -9.945539 0)
(155.78212 -10.347213 0)
(157.73895 -10.409974 0)
(159.31162 -9.813972 0)
(161.15298 -9.2860652 0)
(163.47576 -7.9394651 0)
(165.25236 -5.6226861 0)
(166.43282 -3.898225 0)
(167.54724 -2.9639969 0)
(168.60413 0.13693287 0)
(169.50654 4.3475848 0)
(169.07593 11.045449 0)
(166.35483 15.568998 0)
(161.38712 19.191252 0)
(151.98997 20.253212 0)
(146.824 12.454425 0)
(146.738 9.824094 0)
(146.27776 6.8566694 0)
(146.92438 5.0775944 0)
(147.38461 3.7110808 0)
(147.94625 2.7761846 0)
(148.3903 2.0948079 0)
(148.77886 1.6007684 0)
(149.08845 1.2320842 0)
(149.33998 0.9519171 0)
(149.53834 0.73373343 0)
(149.69378 0.55960665 0)
(149.81231 0.41674405 0)
(149.89939 0.29583231 0)
(149.96009 0.18975561 0)
(149.99232 0.093371196 0)
(150.66583 -0.36939649 0)
(150.54453 -0.3988796 0)
(150.47597 -0.42560307 0)
(150.37238 -0.47402121 0)
(150.26807 -0.53663326 0)
(150.14186 -0.62143584 0)
(149.9956 -0.73238638 0)
(149.81935 -0.87834249 0)
(149.60615 -1.0706386 0)
(149.34521 -1.3261566 0)
(149.02457 -1.6689448 0)
(148.63188 -2.133794 0)
(148.15853 -2.7695815 0)
(147.59611 -3.638812 0)
(147.08285 -4.8552451 0)
(146.45846 -6.2884776 0)
(147.06785 -8.7191749 0)
(149.17445 -10.128775 0)
(151.54785 -10.976288 0)
(153.86606 -10.80433 0)
(156.28112 -10.568916 0)
(158.23591 -9.0737387 0)
(160.33866 -9.7749919 0)
(163.23507 -8.229998 0)
(164.71322 -6.6533537 0)
(164.66735 -4.405464 0)
(166.77899 -1.262712 0)
(170.0273 2.1551848 0)
(172.82536 6.2981537 0)
(171.86059 10.9769 0)
(167.23239 17.109897 0)
(161.215 24.421959 0)
(148.90126 28.195592 0)
(143.4578 15.745473 0)
(145.31167 10.751463 0)
(144.97544 7.0732009 0)
(146.12667 4.8236209 0)
(146.79069 3.3811749 0)
(147.54234 2.4335381 0)
(148.10467 1.7967178 0)
(148.58104 1.3506214 0)
(148.95153 1.0295249 0)
(149.24688 0.79023292 0)
(149.47654 0.60677386 0)
(149.65447 0.46168763 0)
(149.78901 0.34338109 0)
(149.8872 0.24358677 0)
(149.95534 0.15619411 0)
(149.99141 0.076846735 0)
(149.27196 -0.090604136 0)
(149.11149 -0.096782985 0)
(149.03324 -0.099108225 0)
(148.91278 -0.11010062 0)
(148.79453 -0.12528478 0)
(148.65172 -0.14897161 0)
(148.48727 -0.18233226 0)
(148.28993 -0.22950473 0)
(148.05248 -0.29593631 0)
(147.76365 -0.3910116 0)
(147.41166 -0.53037697 0)
(146.98533 -0.74162956 0)
(146.4813 -1.0771451 0)
(145.88411 -1.624251 0)
(145.44025 -2.6247915 0)
(144.63717 -4.1838191 0)
(145.4103 -8.5695033 0)
(148.03037 -11.550576 0)
(150.93648 -12.770392 0)
(153.54933 -13.357875 0)
(156.37029 -13.347481 0)
(157.28999 -13.465276 0)
(159.18688 -12.746828 7.8592471e-18)
(161.41059 -11.687146 4.6002583e-18)
(163.21151 -6.2016826 4.9668387e-18)
(165.17755 -3.4543207 -2.6461563e-20)
(168.90898 -7.425373 -3.9193415e-18)
(170.90802 -4.3413513 0)
(172.69984 -0.13327173 -4.8564689e-18)
(171.20856 16.230057 7.0710888e-18)
(169.99197 24.503251 0)
(159.71817 30.486923 8.3242411e-19)
(143.22938 33.442233 0)
(136.17151 11.084185 0)
(140.83718 8.9200985 0)
(142.33788 5.5884813 0)
(144.53152 3.8040497 0)
(145.87986 2.6277798 0)
(146.98644 1.8722087 0)
(147.76781 1.3738344 0)
(148.36817 1.0278699 0)
(148.81626 0.78202894 0)
(149.15992 0.59974017 0)
(149.42131 0.46066453 0)
(149.62034 0.35079374 0)
(149.76918 0.26119227 0)
(149.87695 0.18548268 0)
(149.95135 0.11904291 0)
(149.99064 0.058591556 0)
(146.43918 -0.20257174 0)
(146.31565 -0.24037273 0)
(146.24954 -0.25442828 0)
(146.1418 -0.28534722 0)
(146.03316 -0.32266417 0)
(145.89789 -0.37493585 0)
(145.73786 -0.44475593 0)
(145.53967 -0.53991921 0)
(145.29222 -0.67082238 0)
(144.97689 -0.85484035 0)
(144.56801 -1.120289 0)
(144.02616 -1.5147739 0)
(143.29862 -2.1281236 0)
(142.24128 -3.0743908 0)
(140.97035 -4.7918432 0)
(137.88925 -7.0995411 0)
(137.38823 -12.138281 0)
(142.53526 -14.036566 -1.3050774e-18)
(145.85468 -15.40152 1.5129417e-19)
(145.30555 -13.970147 0)
(138.93359 -14.353061 -8.0638728e-18)
(98.745323 -7.9647097 1.1866658e-17)
(0 0 0)
(0 0 0)
(0 0 0)
(0 0 0)
(0 0 0)
(0 0 0)
(0 0 0)
(0 0 0)
(0 0 0)
(0 0 0)
(126.84657 50.935032 1.1912547e-16)
(133.28405 20.256146 0)
(142.33374 7.8930349 0)
(141.71575 5.0862686 0)
(144.27516 2.7429437 0)
(145.58865 1.8425386 0)
(146.78684 1.2375721 0)
(147.61988 0.89883526 0)
(148.2642 0.66616882 0)
(148.74376 0.50758519 0)
(149.11037 0.39041507 0)
(149.3884 0.30141966 0)