/*--------------------------------*- C++ -*----------------------------------*\
| =========                 |                                                 |
| \\      /  F ield         | foam-extend: Open Source CFD                    |
|  \\    /   O peration     | Version:     4.1                                |
|   \\  /    A nd           | Web:         http://www.foam-extend.org         |
|    \\/     M anipulation  |                                                 |
\*---------------------------------------------------------------------------*/
FoamFile
{
    version     2.0;
    format      ascii;
    class       volScalarField;
    location    "0.25";
    object      p;
}
// * * * * * * * * * * * * * * * * * * * * * * * * * * * * * * * * * * * * * //

dimensions      [0 2 -2 0 0 0 0];

internalField   nonuniform List<scalar> 
4393
(
-46.486823
-92.928953
-146.60284
-201.30284
-258.20646
-317.62495
-379.94236
-445.46943
-514.43148
-586.93943
-662.96119
-742.29297
-824.53331
-909.06359
-995.03947
-1081.3963
-1166.8694
-1250.0269
-1329.3094
-1403.0707
-1469.6173
-1527.2426
-1574.2627
-1609.0555
-1630.1126
-1636.1115
-1626.0176
-1599.2289
-1555.6513
-1495.793
-1420.8702
-1332.7888
-1234.0409
-1127.5222
-1016.3073
-903.42435
-791.66615
-683.45924
-580.79527
-485.21775
-397.85022
-319.4506
-250.47698
-191.1533
-141.53947
-101.6034
-71.125161
-49.193322
-34.990537
-45.234761
-92.342992
-145.88988
-200.43842
-257.17264
-316.43601
-378.62625
-444.06623
-512.99327
-585.53049
-661.65763
-741.18125
-823.70715
-908.61934
-995.07017
-1081.9856
-1168.0865
-1251.9238
-1331.9201
-1406.413
-1473.6936
-1532.0413
-1579.7557
-1615.194
-1636.8197
-1643.2778
-1633.4997
-1606.8073
-1563.0435
-1502.7108
-1427.0302
-1337.9422
-1238.004
-1130.1968
-1017.6849
-903.57595
-790.72294
-681.58891
-578.17993
-482.03614
-394.26542
-315.60319
-246.48493
-187.12179
-137.56524
-97.72287
-67.323235
-46.223512
-35.626891
-44.430861
-91.446339
-144.63156
-198.81907
-255.20212
-314.15382
-376.09409
-441.36823
-510.23693
-582.84733
-659.20249
-739.12908
-822.24674
-907.9436
-995.36386
-1083.4127
-1170.7801
-1255.9805
-1337.4001
-1413.3431
-1482.0714
-1541.8366
-1590.9075
-1627.5997
-1650.3179
-1657.629
-1648.378
-1621.8044
-1577.6595
-1516.3735
-1439.1613
-1348.032
-1245.6786
-1135.2601
-1020.1263
-903.54763
-788.4969
-677.50741
-572.6093
-475.33017
-386.74037
-307.52375
-238.06205
-178.52285
-128.91421
-89.049777
-58.618989
-38.063479
-29.282571
-43.640896
-90.150848
-142.72783
-196.33634
-252.17468
-310.64463
-372.19502
-437.20333
-505.96541
-578.66545
-655.343
-735.85698
-819.84998
-906.71814
-995.59433
-1085.3521
-1174.6336
-1261.8969
-1345.4719
-1423.6132
-1494.5408
-1556.4682
-1607.6216
-1646.2585
-1670.6984
-1679.3885
-1671.0304
-1644.7138
-1600.0421
-1537.3388
-1457.8044
-1363.5534
-1257.4941
-1143.0694
-1023.9243
-903.58511
-785.21027
-671.43866
-564.33307
-465.39738
-375.64077
-295.66651
-225.77267
-166.05174
-116.43686
-76.652127
-46.382721
-26.29448
-18.152079
-42.816968
-88.534035
-140.25783
-193.06149
-248.15102
-305.959
-366.96988
-431.60291
-500.201
-572.99894
-650.08703
-731.36994
-816.52382
-904.9577
-995.78963
-1087.8487
-1179.7085
-1269.7469
-1356.2154
-1437.3017
-1511.1726
-1575.9958
-1629.9478
-1671.2153
-1698.0094
-1708.6196
-1701.5492
-1675.669
-1630.3573
-1565.7691
-1483.0702
-1384.5182
-1273.3319
-1153.3662
-1028.6913
-903.19648
-780.29605
-662.76725
-552.70707
-451.57553
-360.28869
-279.33325
-208.88852
-148.93792
-99.313088
-59.656017
-29.659524
-10.043241
-2.2886811
-41.810262
-86.486028
-137.11017
-188.87778
-243.00378
-299.95593
-360.26155
-424.39198
-492.75033
-565.63738
-643.21108
-725.43863
-812.04386
-902.45653
-995.77724
-1090.7756
-1185.9316
-1279.5134
-1369.6681
-1454.4979
-1532.1071
-1600.6152
-1658.147
-1702.8115
-1732.6899
-1745.8722
-1740.5988
-1715.4394
-1669.4514
-1602.5337
-1515.7785
-1411.6271
-1293.7279
-1166.5113
-1034.6357
-902.48131
-773.79626
-651.52551
-537.792
-433.97962
-340.8673
-258.77851
-187.72893
-127.55144
-77.943715
-38.448465
-8.7277449
10.535806
18.072636
-40.67006
-84.077314
-133.34907
-183.83391
-236.76008
-292.63638
-352.04073
-415.50735
-483.51372
-556.444
-634.54357
-717.86292
-806.19246
-898.99456
-995.35125
-1093.9547
-1193.1592
-1291.0859
-1385.7448
-1475.1333
-1557.2876
-1630.2837
-1692.2034
-1741.0804
-1774.8526
-1791.3698
-1788.5339
-1764.5127
-1717.9131
-1648.2491
-1556.4694
-1445.2405
-1318.7946
-1182.3538
-1041.3752
-900.8863
-765.05555
-637.01834
-518.90093
-411.96292
-316.78857
-233.48176
-161.84443
-101.51723
-52.034385
-12.817407
16.545652
35.464264
42.829384
-39.26363
-81.158258
-128.81679
-177.76701
-229.24915
-283.81816
-342.11009
-404.73331
-472.25507
-545.16265
-623.81232
-708.36376
-798.69916
-894.33156
-994.32574
-1097.2744
-1201.3634
-1304.5165
-1404.5651
-1499.3797
-1586.9273
-1665.2554
-1732.4243
-1786.4087
-1825
-1845.7697
-1846.1966
-1823.9243
-1776.9367
-1704.1727
-1606.3179
-1486.3013
-1349.147
-1201.1642
-1048.8867
-898.18409
-753.73834
-618.88391
-495.70392
-385.26078
-287.86556
-203.33078
-131.18469
-70.829721
-21.605533
17.209994
46.132017
64.684236
71.8867
-37.733104
-77.885019
-123.65855
-170.79878
-220.56114
-273.55223
-330.47368
-392.01953
-458.86373
-531.61933
-610.78169
-696.65256
-789.24063
-888.13763
-992.39799
-1100.4885
-1210.3693
-1319.6978
-1426.0718
-1527.2096
-1621.0149
-1705.5358
-1778.8512
-1838.9122
-1883.3767
-1909.5067
-1914.2639
-1894.6179
-1847.7006
-1771.5958
-1666.5213
-1535.6948
-1385.2192
-1222.9077
-1056.7473
-893.69421
-739.04113
-596.30618
-467.44854
-353.22765
-253.57722
-167.92922
-95.468419
-35.308169
13.440709
51.668597
80.016538
98.13401
105.1544
-35.832734
-73.963351
-117.55875
-162.60189
-210.35537
-261.48011
-316.74947
-376.95459
-442.89409
-515.33249
-594.93765
-682.19438
-777.28448
-879.92058
-989.16263
-1103.319
-1220.0434
-1336.6287
-1450.3622
-1558.7791
-1659.736
-1751.3308
-1831.7262
-1898.9141
-1950.4558
-1983.2868
-1993.7535
-1977.9734
-1931.9287
-1852.4362
-1738.9017
-1594.8238
-1427.7937
-1247.7309
-1064.5946
-886.73428
-720.14424
-568.46838
-433.40904
-315.27131
-213.47449
-126.96097
-54.492666
5.1594892
53.146874
90.549255
118.14859
135.72777
142.52895
-33.885329
-69.767252
-110.89733
-153.54026
-198.96821
-247.89908
-301.18274
-359.7178
-424.44611
-496.31218
-576.19559
-664.8149
-762.58784
-869.41256
-984.38794
-1105.6272
-1230.3662
-1355.3919
-1477.5744
-1594.2309
-1703.2042
-1802.7189
-1891.1216
-1966.546
-2026.5275
-2067.6792
-2085.6401
-2075.4632
-2031.6039
-1949.0144
-1825.7075
-1665.3784
-1477.703
-1275.6067
-1071.7445
-876.24155
-695.85819
-534.2349
-392.60758
-270.61419
-166.98179
-80.031513
-8.0136372
50.698284
97.548741
133.82279
160.45106
177.35445
183.88462
-31.413334
-64.714825
-103.04111
-142.94802
-185.69896
-232.06629
-282.9787
-339.45153
-402.58912
-473.54843
-553.4673
-643.3607
-743.96652
-855.46644
-977.06273
-1106.6346
-1240.8391
-1375.7455
-1507.6476
-1633.5984
-1751.481
-1859.7586
-1957.1027
-2041.9412
-2111.9069
-2163.3338
-2191.0908
-2188.9196
-2149.2941
-2064.4593
-1930.054
-1749.7112
-1536.0832
-1306.4851
-1077.2864
-860.85509
-664.71462
-492.25548
-343.92599
-218.40334
-113.49639
-26.750795
44.189774
101.40143
146.64638
181.42301
206.81074
222.87004
229.06497
-29.033595
-59.549406
-94.783635
-131.63533
-171.36125
-214.78582
-262.91569
-316.88822
-377.98695
-447.61427
-527.21753
-618.18012
-721.66619
-838.2843
-967.4557
-1106.7912
-1252.1365
-1398.5228
-1541.4369
-1677.6198
-1805.1007
-1922.7567
-2029.7894
-2125.1468
-2206.7589
-2270.7734
-2311.2421
-2320.3536
-2288.093
-2202.8057
-2056.1153
-1850.9568
-1604.3163
-1340.1045
-1079.843
-838.69175
-624.78999
-440.84203
-286.02748
-157.66516
-52.365487
33.275483
102.31597
157.32552
200.39731
233.23986
257.07215
272.09108
277.87574
-25.928241
-53.266782
-85.023551
-118.43154
-154.70709
-194.71471
-239.53249
-290.42105
-348.85773
-416.52673
-495.2457
-586.85311
-693.07661
-815.16795
-952.98344
-1103.8671
-1262.5232
-1422.4564
-1577.9975
-1725.5198
-1863.3651
-1991.0585
-2108.5759
-2215.6726
-2310.8726
-2390.3089
-2447.1938
-2472.0075
-2451.8
-2369.4038
-2209.7046
-1973.4925
-1684.1743
-1375.9215
-1077.4179
-807.21429
-573.63079
-377.94923
-217.37471
-87.341813
17.073034
100.40876
166.51064
218.46791
258.70034
289.10827
311.02952
324.78802
330.07843
-23.109001
-47.108601
-75.114922
-104.75788
-137.216
-173.38535
-214.40665
-261.65938
-316.82262
-381.89547
-459.1296
-550.90891
-659.67742
-787.62658
-935.41194
-1100.1738
-1274.9711
-1450.9874
-1620.8393
-1780.4712
-1928.8414
-2066.4931
-2194.5234
-2313.9288
-2424.3393
-2522.2178
-2599.9748
-2646.2757
-2644.951
-2571.317
-2399.0211
-2123.5383
-1777.8817
-1412.8677
-1067.0624
-762.9675
-508.09784
-301.11163
-136.22608
-6.3169225
95.455433
174.94366
236.83842
284.74506
321.37995
348.79722
368.4192
380.67935
385.38503
-19.317117
-39.533856
-63.380026
-88.843517
-117.00857
-148.77423
-185.31941
-228.12214
-279.05452
-340.45391
-415.07432
-505.94324
-616.38886
-749.95594
-908.74839
-1089.9733
-1284.349
-1479.5094
-1665.5378
-1837.9649
-1996.9461
-2144.5992
-2283.5011
-2416.3285
-2544.4425
-2665.0547
-2769.7599
-2845.3876
-2872.7888
-2817.8581
-2635.8865
-2310.2635
-1888.2441
-1449.0135
-1044.4261
-701.26253
-424.21693
-207.41802
-40.676139
86.52102
183.32976
257.05681
313.2449
355.96617
388.16885
411.9988
428.91268
439.42687
443.45407
-16.075362
-32.431369
-51.886006
-72.859914
-96.345226
-123.22838
-154.70878
-192.34597
-238.19483
-294.95454
-365.96564
-455.00936
-566.44546
-705.6792
-877.33188
-1079.3302
-1298.9874
-1518.2693
-1723.3024
-1909.1855
-2078.1994
-2234.7854
-2383.2871
-2528.5349
-2674.7265
-2820.8591
-2958.1088
-3071.8541
-3141.0894
-3121.1772
-2937.7799
-2547.8351
-2018.7622
-1480.9775
-1003.0481
-615.74334
-317.01361
-93.518402
71.261712
192.18076
281.07097
346.74308
395.51291
431.80504
458.69091
478.31829
492.1113
500.63283
503.88865
-11.522255
-23.517959
-38.165061
-54.247045
-72.583797
-94.004438
-119.68211
-151.20177
-190.73405
-241.29622
-306.8556
-392.02743
-502.24724
-645.29484
-830.0401
-1056.6874
-1307.7091
-1555.9164
-1781.3466
-1978.9585
-2155.1435
-2318.1372
-2474.4354
-2631.5227
-2798.1514
-2976.5942
-3157.5146
-3324.1553
-3455.1811
-3497.0383
-3330.9937
-2858.9488
-2173.4068
-1502.9028
-933.2963
-497.84571
-180.38403
44.284085
201.49386
311.41619
388.76506
443.73721
483.21349
511.77149
532.4457
547.26671
557.54333
563.83943
566.23676
-7.7869206
-15.574382
-25.355127
-36.361236
-49.228346
-64.691899
-83.854627
-108.2776
-140.1871
-182.88322
-241.06193
-320.38057
-427.37086
-572.60609
-771.9097
-1031.2122
-1326.2204
-1614.2552
-1865.6023
-2075.4248
-2257.6722
-2426.4181
-2589.8431
-2757.2235
-2943.7125
-3156.8584
-3386.747
-3613.9763
-3823.0694
-3963.5017
-3853.7251
-3281.7467
-2357.045
-1505.5579
-820.97106
-336.17317
-7.0715505
209.79348
351.57052
444.50657
506.06105
547.42396
575.65582
595.18578
608.7971
618.25732
624.66453
628.53142
629.99457
-2.4417746
-5.4910758
-9.89816
-15.325728
-22.14869
-30.97801
-42.807499
-59.118188
-82.085729
-115.13129
-163.61723
-234.34787
-334.60485
-477.26941
-688.50375
-987.02523
-1339.7718
-1677.0286
-1954.0784
-2167.2227
-2344.8159
-2510.2133
-2672.2292
-2839.759
-3038.9639
-3288.5981
-3580.7335
-3894.2688
-4221.8007
-4535.134
-4567.3642
-3890.6068
-2578.6084
-1473.5617
-644.34967
-115.56717
211.15148
406.43097
522.24541
590.95645
631.99425
656.74469
671.84294
681.16105
686.96927
690.60793
692.86343
694.14247
694.61317
2.6543021
3.6668009
4.2101009
4.0208344
3.0303825
0.81478483
-3.4066324
-10.891502
-23.546682
-44.579752
-79.799144
-137.46966
-225.60346
-358.05451
-575.4919
-924.57038
-1364.1513
-1774.3724
-2087.4171
-2300.1836
-2468.4307
-2630.6669
-2795.4032
-2964.6035
-3181.1261
-3482.9818
-3861.3187
-4289.3573
-4741.2061
-5270.8874
-5556.5135
-4811.9278
-2826.9193
-1367.0047
-368.21835
183.40063
482.59161
636.27983
712.80753
749.11399
764.79641
770.1152
770.44358
768.59979
766.05317
763.55083
761.4718
760.06549
759.50873
8.4526877
13.516352
19.598666
25.454248
31.344055
37.04357
42.028231
45.306637
45.29607
39.18183
20.881568
-19.94677
-92.528476
-207.78905
-420.96745
-832.7096
-1402.7775
-1909.517
-2255.6379
-2437.216
-2568.3418
-2710.9341
-2870.7697
-3020.1085
-3220.3294
-3553.1888
-3995.8699
-4531.7761
-5062.4948
-5936.0145
-6803.6638
-6284.9979
-3064.3319
-1162.4065
44.658079
580.76259
813.21426
898.46504
920.16622
915.74321
901.73025
885.38057
869.79495
856.21203
845.02737
836.25187
829.7812
825.6672
824.07626
17.639686
25.537588
36.325085
47.174167
58.754065
71.011386
83.706791
96.194013
107.3814
115.38049
115.06161
94.90233
44.32797
-38.152383
-212.78835
-678.28655
-1447.0945
-2083.4781
-2477.503
-2604.3861
-2691.4097
-2818.0869
-2988.5904
-3101.2844
-3248.1733
-3655.9623
-4189.9202
-4924.7507
-5648.2853
-7214.8894
-8860.3173
-9055.0645
-3572.6452
-1031.4113
642.56149
1106.7423
1205.3006
1187.1181
1137.7982
1085.6518
1039.0169
999.84383
967.95346
942.56241
922.79557
907.83924
897.06529
890.30646
887.70645
22.463106
31.083737
46.279126
62.348826
80.256595
100.16651
122.32619
146.75488
173.26634
201.59405
229.12221
244.25001
230.58775
194.28483
93.998159
-410.79089
-1552.3028
-2383.9413
-2860.9328
-2840.3415
-2805.6519
-2854.0612
-3032.0404
-3087.95
-3161.1818
-3748.4137
-4190.7051
-5139.6025
-6430.9735
-7832.1182
-9565.9943
-12088.518
-4820.4941
-69.29897
1729.5248
1819.263
1648.8829
1486.7708
1354.4194
1251.5141
1171.9519
1110.4107
1062.8084
1026.1498
998.24096
977.44107
962.60695
953.35538
949.80458
37.233263
46.397975
66.159229
86.866454
110.13297
136.23929
165.7703
199.17147
236.71014
278.92847
325.20576
364.07241
368.38779
346.82955
342.78939
-73.678801
-1817.5049
-2743.0858
-3244.1705
-2860.2923
-2707.9384
-2802.5781
-3127.6956
-3229.7841
-3231.6681
0
0
0
0
0
0
0
0
6207.2717
3409.0519
2589.5812
2075.8424
1763.7826
1553.2585
1404.362
1295.3716
1213.8931
1152.2644
1105.5167
1070.2938
1044.229
1025.728
1014.2218
1009.8103
35.75015
42.053981
63.754831
86.67153
112.64068
141.94591
175.46697
214.12749
258.86899
311.39717
374.61868
444.64226
498.80298
555.33933
777.22351
763.822
-1974.268
-2935.4554
-3789.9713
-3056.7811
-3101.3884
-3024.0742
0
0
0
0
0
0
0
0
0
0
10135.995
6290.926
4129.9637
3007.3118
2368.861
1977.0661
1717.1572
1535.819
1404.644
1307.4731
1234.4745
1179.3748
1138.0034
1107.4623
1085.8188
1072.3709
1067.2167
44.40472
54.72767
80.617442
106.54035
135.57076
168.2336
205.75693
249.53941
301.22708
363.57846
442.4555
542.16661
646.77392
740.18338
890.91621
747.37675
-3127.8204
-3882.0014
-3357.5921
0
0
0
0
0
0
0
0
0
0
0
1792.593
3375.9031
5763.7169
5242.6183
3968.3089
3107.4327
2514.783
2115.6583
1838.7719
1641.2508
1496.789
1389.1623
1308.0535
1246.7154
1200.6008
1166.5266
1142.3635
1127.3444
1121.5869
21.19822
41.561835
65.62375
90.306692
117.43487
147.77032
182.36617
222.35332
268.87386
323.77893
391.31737
470.79793
528.17807
504.31114
529.06832
946.55419
0
0
0
0
0
0
-1118.0686
-1089.8529
-998.02963
-904.63093
-777.44159
-482.97546
-82.895242
708.5967
2036.8625
3371.5906
4759.6712
4496.8932
3722.0426
3066.1737
2560.4252
2190.203
1919.5987
1719.9411
1570.7275
1457.9734
1372.1842
1306.8737
1257.5392
1220.9605
1194.9592
1178.7746
1172.5666
19.177067
49.701888
74.509063
99.988265
127.30954
157.32997
190.72639
227.96636
269.01345
313.2448
359.13641
400.19013
409.90374
334.35004
148.04962
-256.01512
-1265.5888
-1213.0918
-1132.1689
-1085.6751
-1036.6768
-1007.5562
-996.19548
-790.79193
-825.838
-570.41403
-349.78016
-192.14273
270.96589
916.11364
1971.7647
3059.4905
3965.0551
3859.5364
3411.9103
2941.3601
2536.3754
2214.0895
1964.9127
1773.7378
1626.926
1513.8399
1426.6109
1359.5414
1308.5079
1270.4673
1243.3254
1226.3931
1219.8922
20.022677
45.969252
71.473567
97.173903
124.29939
153.61992
185.73959
221.04399
259.56001
300.71392
342.09672
376.45792
389.19386
361.90817
235.48199
-171.94458
-766.55988
-901.10566
-944.99685
-949.80203
-872.62376
-827.83886
-804.13131
-678.28294
-607.56264
-404.34083
-166.11817
90.617938
523.24166
1108.0705
1907.0889
2731.4913
3343.5833
3364.9017
3113.5484
2785.105
2471.421
2201.9848
1981.874
1806.0404
1666.9439
1557.4266
1471.5632
1404.7358
1353.422
1314.9131
1287.3052
1270.0328
1263.3936
14.902347
36.216934
58.782304
81.275775
104.27464
128.03157
152.56326
177.50536
201.97577
224.23105
240.36101
242.63169
221.08693
166.22033
37.49631
-248.90072
-583.088
-713.09943
-767.37809
-778.36041
-738.16441
-689.21153
-628.4636
-524.58573
-410.99618
-225.61325
0.88509426
282.0056
680.31828
1198.8978
1833.7805
2460.6357
2898.4114
2975.4559
2843.1553
2621.1662
2384.404
2165.9587
1977.5406
1820.8013
1692.9418
1589.8894
1507.6385
1442.7438
1392.3943
1354.3129
1326.8589
1309.6252
1302.9918
23.7059
46.322531
70.09655
93.618114
117.59484
142.15935
167.16425
192.01971
215.50039
235.26266
246.72388
242.42774
213.37932
147.23284
13.731402
-210.02791
-438.17872
-560.79742
-618.31143
-628.72806
-600.94209
-554.06727
-483.60099
-381.29582
-251.53441
-70.4333
151.35686
427.96882
788.44417
1234.6889
1745.8569
2231.427
2566.2702
2667.1907
2608.0338
2463.1795
2288.5297
2115.5089
1958.1793
1821.9425
1707.3074
1612.6576
1535.6803
1474.0533
1425.6973
1388.8093
1362.0514
1345.192
1338.6931
12.118725
30.056815
50.225508
70.305585
90.410493
110.43571
130.09437
148.74917
165.23982
177.48551
181.85848
173.16894
144.85783
86.165832
-22.35117
-182.44481
-339.31172
-438.96413
-489.68411
-498.88063
-474.38347
-426.08036
-352.28374
-249.65449
-115.953
59.223738
273.79851
536.78992
860.86357
1243.0669
1658.8579
2042.4766
2311.1145
2420.4002
2406.7337
2317.0371
2191.6382
2057.4414
1928.8945
1812.9987
1712.3904
1627.258
1556.6671
1499.2855
1453.7225
1418.6469
1393.0356
1376.8343
1370.579
21.58927
40.917847
61.306116
81.016619
100.34556
119.04198
136.61371
152.20106
164.42317
171.08698
168.94214
153.99202
121.50395
64.039668
-27.760843
-147.60931
-261.36633
-339.42136
-379.94712
-385.53893
-360.95341
-311.05477
-235.4879
-132.52237
0.62288282
168.85508
372.79517
617.41221
906.95781
1235.0042
1578.0066
1888.1863
2111.2623
2221.1484
2235.9063
2185.4031
2098.4319
1996.6471
1893.6817
1796.9821
1710.3474
1635.1901
1571.6242
1519.1354
1476.9399
1444.1461
1420.035
1404.7189
1398.7955
12.058629
28.270115
46.438911
64.296471
81.757536
98.485647
113.97607
127.41382
137.53019
142.39615
139.33493
125.15565
96.05456
46.965997
-25.846397
-114.59624
-197.50556
-256.22927
-285.85161
-286.23127
-259.6129
-208.26592
-132.09387
-29.959359
100.19954
260.78804
452.57159
677.52332
935.43833
1218.2187
1505.2657
1761.8584
1951.9759
2058.8427
2091.3645
2068.705
2011.3739
1936.2987
1855.5039
1776.3417
1703.0621
1637.8466
1581.5583
1534.3227
1495.8638
1465.6781
1443.3254
1429.0646
1423.5399
17.481027
33.766705
51.010224
67.440469
83.120842
97.684517
110.59914
121.07559
127.97664
129.71411
124.272
109.38206
82.436234
40.533918
-16.96647
-83.019976
-143.3654
-185.80299
-205.07299
-199.64297
-170.08972
-117.27587
-41.07129
59.305562
185.12674
337.48683
516.57618
722.32956
952.16896
1197.5639
1441.2864
1658.0265
1823.3461
1925.6668
1969.2125
1966.3676
1931.7497
1878.436
1816.5548
1753.015
1692.1245
1636.4707
1587.4145
1545.5557
1511.0234
1483.6428
1463.2173
1450.1281
1445.0485
12.277832
26.881142
42.90972
58.341411
73.02926
86.559912
98.397587
107.79524
113.733
114.87984
109.66476
96.428217
73.45386
39.37038
-4.9044211
-53.460679
-96.499369
-125.3989
-135.32277
-124.14935
-91.458305
-37.311811
38.518326
136.54194
257.39233
401.34094
567.91121
755.75338
961.12743
1175.8189
1385.7363
1572.2719
1718.3965
1815.701
1865.9714
1877.2578
1860.0029
1824.257
1778.3471
1728.4816
1678.8371
1632.1386
1590.0508
1553.5053
1522.9409
1498.4501
1480.0413
1468.1911
1463.584
14.093132
28.037643
42.889501
56.930406
70.101347
82.020234
92.202604
100.00274
104.58339
104.91523
99.85617
88.279648
69.186428
42.187452
8.8385098
-26.076316
-55.566408
-73.279072
-75.007724
-58.481766
-22.759094
32.534043
107.69565
203.02271
318.68284
454.38695
609.10504
780.73077
965.06819
1154.5993
1337.9136
1501.1556
1632.12
1724.4709
1778.7125
1800.0965
1796.1089
1774.4546
1741.9057
1703.8611
1664.245
1625.7605
1590.2262
1558.7895
1532.1152
1510.5053
1494.135
1483.5484
1479.4254
11.77032
24.726376
38.718092
51.971263
64.344517
75.455363
84.854359
91.977778
96.139604
96.555347
92.422833
83.038878
67.95295
47.400378
23.152123
-0.91883763
-19.62752
-28.111774
-22.804795
-1.4996271
36.972544
93.197799
167.49364
259.9846
370.50671
498.38423
642.1965
799.44024
965.86755
1134.7962
1297.0048
1442.014
1560.8314
1648.548
1704.9958
1733.6018
1739.7544
1729.359
1707.8965
1679.9733
1649.1709
1618.0921
1588.5986
1561.9647
1539.0107
1520.198
1505.8318
1496.4985
1492.8574
11.884834
24.088714
37.122547
49.378393
60.754954
70.908359
79.448483
85.908248
89.75129
90.407068
87.347051
80.191787
68.874129
53.983424
37.281495
21.92331
11.890252
11.004499
22.269752
47.725203
88.592208
145.53319
218.84467
308.51085
414.13348
534.77544
668.77278
813.46131
964.76086
1116.8266
1262.1794
1392.753
1501.7453
1585.2645
1642.7978
1676.5709
1690.479
1689.056
1676.7281
1657.3914
1634.2454
1609.7467
1585.7267
1563.5211
1544.0506
1527.8932
1515.4528
1507.3349
1504.1632
10.834914
22.345127
34.682849
46.276408
57.009936
66.567323
74.612379
80.766812
84.627037
85.80349
83.989972
79.059799
71.213405
61.233796
50.786363
42.479481
39.466767
44.81974
61.071122
90.053394
132.94419
190.40166
262.67499
349.63423
450.71737
564.81876
690.14514
824.01862
962.63222
1100.91
1232.7381
1351.7903
1452.7905
1532.5889
1590.5059
1627.9687
1647.8056
1653.51
1648.658
1636.5374
1619.9671
1601.2268
1582.0843
1563.8872
1547.6144
1533.9262
1523.3
1516.3399
1513.6181
10.464705
21.361201
33.012107
43.942749
54.057349
63.075778
70.716066
76.680791
80.679522
82.468675
81.913828
79.074399
74.326795
68.543805
63.26351
60.678949
63.354039
73.807668
94.186489
126.11265
170.6727
228.47652
299.71252
384.15829
481.13913
589.44842
707.2441
831.9199
959.97811
1087.0131
1207.9716
1317.7925
1412.2833
1488.8441
1546.7248
1586.8174
1611.1855
1622.5353
1623.7658
1617.6533
1606.6715
1592.9084
1578.0486
1563.4207
1550.0307
1538.5962
1529.6502
1523.7794
1521.4852
9.8974187
20.284169
31.404491
41.840944
51.505513
60.15081
67.545208
73.463722
77.712688
80.167726
80.828638
79.891734
77.84726
75.600548
74.562192
76.608997
83.876379
98.470217
122.22498
156.56737
202.47524
260.48996
330.7355
412.91527
506.2788
609.56578
720.93721
837.90134
957.26489
1075.1862
1187.4294
1289.8602
1379.0659
1452.8577
1510.466
1552.4217
1580.2383
1596.0293
1602.1603
1600.9854
1594.6775
1585.1397
1573.9654
1562.4471
1551.5971
1542.1726
1534.7538
1529.9002
1528.0139
9.4946888
19.439057
30.095365
40.107451
49.399386
57.754285
64.984758
70.926971
75.465964
78.570907
80.343004
81.075817
81.329632
82.010648
84.414447
90.177022
101.11827
119.03327
145.50734
181.7957
228.76751
286.89045
356.22695
436.42181
526.6751
625.70421
731.70297
842.30876
954.60499
1065.211
1170.5165
1267.0676
1352.0179
1423.4869
1480.7112
1523.9773
1554.4037
1573.6602
1583.6983
1586.5305
1584.0767
1578.0726
1570.0197
1561.1685
1552.5221
1544.8621
1538.817
1534.9223
1533.44
9.1222765
18.72196
29.023066
38.716546
47.735113
55.889295
63.030308
69.045602
73.883699
77.586508
80.330934
82.478525
84.631033
87.680552
92.825595
101.52037
115.35219
135.8831
164.50322
202.32431
250.11711
308.27997
376.82078
455.33919
543.00425
638.53018
740.15704
845.64748
952.32175
1057.1653
1157.0396
1248.9889
1330.5771
1400.1533
1456.9713
1501.1519
1533.5309
1555.4502
1568.5438
1574.5547
1575.1959
1572.0599
1566.5631
1559.9137
1553.0971
1546.9092
1542.0439
1539.0518
1537.9959
8.7641072
18.1006
28.129156
37.582689
46.399127
54.412953
61.507329
67.610513
72.719935
76.93192
80.478079
83.766246
87.4217
92.317627
99.57501
110.51349
126.55121
149.07841
179.33675
218.32371
266.72757
324.88708
392.76501
469.9272
555.524
648.27634
746.47215
847.98368
950.32252
1050.7544
1146.4882
1234.9267
1313.9276
1382.0079
1438.4409
1483.2371
1517.0338
1540.9354
1556.3406
1564.7871
1567.8262
1566.9354
1563.461
1558.5774
1553.2534
1548.2878
1544.4556
1542.3995
1541.9076
8.4004212
17.61706
27.475278
36.773904
45.457
53.38244
60.459803
66.648818
71.983102
76.598045
80.763298
84.916947
89.696481
95.956376
104.75865
117.32762
134.96404
158.93722
190.38181
230.21023
279.0474
337.18554
404.55299
480.69173
564.74167
655.43393
751.09834
849.69417
948.87697
1046.1153
1138.8629
1224.7701
1301.8971
1368.8785
1425.0055
1470.2165
1505.0146
1530.3392
1547.4227
1557.654
1562.4659
1563.2491
1561.2958
1557.7551
1553.5796
1549.5396
1546.4586
1545.2304
1545.5142
7.906657
17.192426
26.972969
36.190158
44.795264
52.670077
59.744538
66.000155
71.494307
76.387247
80.97198
85.70402
91.22602
98.378313
108.18491
121.8122
140.48728
165.39992
197.61461
237.98743
287.10049
345.21436
412.23431
487.68704
570.707
660.03419
754.02865
850.70925
947.82709
1042.9822
1133.7838
1218.0384
1293.9334
1360.1783
1416.0771
1461.5253
1496.9426
1523.1643
1541.316
1552.6903
1558.6418
1560.5019
1559.5221
1556.8374
1553.3945
1549.9088
1547.1992
1546.7606
1548.9522
6.6844414
16.860388
26.698503
35.910439
44.486381
52.340158
59.41584
65.706946
71.283043
76.316902
81.113246
86.136525
92.032819
99.638321
109.96259
124.13319
143.33188
168.71487
201.31445
241.95909
291.20947
349.31005
416.15432
491.26127
573.76272
662.40352
755.55945
851.27996
947.36454
1041.479
1131.3097
1214.7402
1290.0207
1355.8979
1411.6833
1457.2521
1492.9835
1519.6623
1538.3619
1550.328
1556.8718
1559.2939
1558.8344
1556.6314
1553.6417
1550.5399
1548.1108
1548.6258
1554.4665
-2181.456
-2468.5861
-2704.4228
-2897.1292
-3043.7223
-3126.1886
-3127.8204
-3039.3982
-2861.499
-2656.3434
-3357.8786
-3357.5921
-3357.4894
-3358.8527
-3356.8014
-3353.8706
-3351.0373
-3356.1569
-3359.6295
-3328.0257
-3269.4655
-3269.0074
-3263.6429
-3254.9971
-3243.1524
-3233.7177
-3220.5567
-3232.2363
-3231.5983
-3185.5434
-3228.0438
-3226.5912
-3215.0413
-3200.1476
-3184.4248
-3177.3445
-3159.896
-3169.6717
-3172.1327
-3147.1873
-3182.8678
-3180.4521
-3168.6529
-3154.5616
-3139.2488
-3134.2286
-3124.0992
-3126.8404
-3132.6241
-3144.3642
-3117.557
-3115.8746
-3108.9318
-3097.4234
-3081.5185
-3056.7811
-3071.4704
-3079.1455
-3085.0453
-3100.1469
-3088.0604
-3088.3764
-3088.8869
-3088.0953
-3092.3448
-3069.8739
-3074.9168
-3071.2226
-3056.3615
-3034.0523
-3088.9642
-3090.113
-3094.9633
-3101.3884
-3121.6311
-3122.5595
-3109.8403
-3088.9237
-3061.319
-3026.3887
-3821.7565
-3829.0588
-3797.5853
-3753.052
-3716.1507
-3685.4428
-3665.5216
-3653.638
-3646.6942
-3650.4937
-3023.3957
-3021.5716
-3010.4853
-2987.5994
-2952.2768
-2980.8789
-2994.9747
-2998.7613
-2990.0808
-2964.2357
-3022.0927
-3024.0742
-3026.8544
-3034.7127
-2999.597
-3002.7596
-3010.8723
-3013.0076
-3006.3877
-2996.2529
-3074.8991
-3078.5845
-3087.5184
-3116.0706
-3122.8186
-3097.3463
-3070.8355
-3051.3178
-3033.4783
-3018.0318
-3049.4985
-3046.7646
-3033.457
-3019.831
-3037.6618
-3043.8884
-3045.6871
-3046.3619
-3044.2519
-3048.8294
-3053.3844
-3053.9902
-3048.9961
-3014.112
-3030.6558
-3044.5484
-3054.0341
-3060.3188
-3062.784
-3071.899
-3146.2381
-3152.1925
-3173.4436
-3163.6564
-3144.1383
-3127.6956
-3114.7843
-3103.9475
-3091.2149
-3075.621
-3155.7023
-3152.7644
-3155.025
-3174.3215
-3165.6434
-3153.1003
-3143.75
-3137.2361
-3131.4269
-3134.1707
-3141.6768
-3137.6941
-3110.7238
-3128.3641
-3143.4944
-3154.0904
-3161.2619
-3165.9126
-3167.8589
-3174.6077
-3241.6059
-3252.8937
-3239.4608
-3229.7841
-3224.3138
-3220.6193
-3217.9395
-3216.4591
-3212.8183
-3206.5065
-3292.1071
-3302.0203
-3311.316
-3295.1825
-3276.7479
-3265.2292
-3261.3716
-3264.089
-3268.996
-3282.378
-3175.7409
-3163.5432
-3179.7793
-3203.1259
-3229.2548
-3255.0856
-3280.4361
-3304.8477
-3326.0774
-3352.8188
-3254.7702
-3231.6681
-3245.8836
-3272.6233
-3306.4129
-3338.667
-3367.4928
-3391.5912
-3409.0996
-3429.0449
-3616.9333
-3604.4882
-3580.9356
-3556.3408
-3541.2453
-3531.3826
-3527.5899
-3527.3006
-3526.729
-3528.1737
-3077.08
-3076.076
-3073.0757
-3067.4657
-3073.7815
-3074.2001
-3066.6994
-3055.4781
-3042.5045
-3039.5547
-3752.1783
-3762.6632
-3775.5876
-3828.2997
-3891.9893
-3951.5831
-3977.1816
-3955.5169
-3853.9864
-3664.8254
-3485.9543
-3488.7644
-3496.6202
-3512.3336
-3525.2569
-3536.0622
-3542.5201
-3538.2041
-3528.7582
-3467.7922
-3235.1332
-3304.6782
-3379.9998
-3496.9974
-3617.0789
-3706.6339
-3735.6862
-3697.2047
-3554.2505
-3315.3808
-3750.5356
-3765.8156
-3790.0341
-3836.4796
-3882.0014
-3924.5789
-3943.9395
-3931.2612
-3870.5996
-3729.6783
-3629.1083
-3637.6261
-3655.7015
-3688.4384
-3717.9451
-3743.8444
-3755.8061
-3751.8763
-3729.7401
-3653.6376
11324.258
10721.656
10135.995
9496.644
8839.7876
8186.6723
7552.4659
6944.1874
6354.8178
5777.7199
8312.476
8234.9704
8111.2787
7849.3273
7511.185
7120.5361
6698.6704
6263.4599
5825.1271
5368.5621
-3728.9594
-3747.7993
-3756.0629
-3751.8966
-3751.6693
-3748.4137
-3748.6415
-3749.4664
-3749.6827
-3753.0825
-3698.7739
-3703.5072
-3736.4866
-3764.3014
-3798.9401
-3822.7541
-3844.0509
-3858.601
-3866.6923
-3871.0524
-3898.8706
-3893.8804
-3913.9964
-3926.0189
-3956.871
-3977.4639
-3998.6889
-4013.0114
-4019.7037
-4016.6008
-4173.4116
-4163.3861
-4178.6025
-4172.1773
-4190.7051
-4195.6864
-4204.7442
-4208.3266
-4207.0845
-4205.0951
-4493.9438
-4476.647
-4489.1163
-4464.5183
-4470.2255
-4455.3062
-4445.4245
-4428.159
-4403.1032
-4373.3727
-4850.4491
-4824.0426
-4834.2855
-4790.1171
-4783.2638
-4747.4279
-4716.9422
-4676.1513
-4624.0406
-4566.449
-5232.8259
-5195.218
-5204.3639
-5139.6025
-5121.3231
-5065.5901
-5016.2456
-4955.1579
-4881.2761
-4798.4366
-5636.2153
-5584.9909
-5594.2091
-5507.0693
-5477.2621
-5401.1071
-5332.2033
-5251.8603
-5164.0022
-5083.7293
-6061.1566
-5992.8959
-6003.0437
-5890.7809
-5848.1105
-5749.5249
-5656.6728
-5548.4661
-5425.0116
-5291.3744
-6507.5441
-6418.3259
-6430.9735
-6290.932
-6234.3184
-6113.0451
-5996.2065
-5863.7037
-5715.7802
-5555.84
-6981.3364
-6865.0923
-6881.0113
-6709.024
-6635.4
-6489.2347
-6344.5005
-6183.6889
-6006.7001
-5822.5183
-7481.3718
-7332.0342
-7354.2487
-7147.2039
-7053.4775
-6880.6793
-6703.926
-6509.0844
-6291.7776
-6055.9172
-8025.8704
-7832.1182