/*--------------------------------*- C++ -*----------------------------------*\
| =========                 |                                                 |
| \\      /  F ield         | foam-extend: Open Source CFD                    |
|  \\    /   O peration     | Version:     4.1                                |
|   \\  /    A nd           | Web:         http://www.foam-extend.org         |
|    \\/     M anipulation  |                                                 |
\*---------------------------------------------------------------------------*/
FoamFile
{
    version     2.0;
    format      ascii;
    class       surfaceScalarField;
    location    "0.25";
    object      phi;
}
// * * * * * * * * * * * * * * * * * * * * * * * * * * * * * * * * * * * * * //

dimensions      [0 3 -1 0 0 0 0];

internalField   nonuniform List<scalar> 
8438
(
-0.59739084
0.0016828623
-0.59913977
0.0017489382
-0.60092442
0.0017846509
-0.60275381
0.0018293875
-0.60463771
0.0018838954
-0.60658655
0.0019488432
-0.60860974
0.002023187
-0.61071485
0.0021051168
-0.61290696
0.0021921083
-0.6151879
0.0022809328
-0.61755555
0.0023676517
-0.6200032
0.0024476494
-0.62251893
0.002515736
-0.62508528
0.002566342
-0.62767908
0.0025938043
-0.63027183
0.0025927459
-0.63283022
0.0025583965
-0.63531714
0.0024869122
-0.63769265
0.0023755172
-0.63991515
0.0022224935
-0.64194224
0.0020270906
-0.64373165
0.0017894078
-0.64524199
0.0015103469
-0.6464337
0.0011917056
-0.64727017
0.00083647178
-0.6477195
0.00044933421
-0.64775656
3.705605e-05
-0.6473645
-0.00039206343
-0.64653883
-0.00082567075
-0.64529147
-0.0012473529
-0.64365163
-0.0016398386
-0.64166557
-0.001986064
-0.63939447
-0.0022710982
-0.63691043
-0.0024840427
-0.63429119
-0.002619244
-0.63161465
-0.0026765378
-0.62895405
-0.0026605936
-0.62637438
-0.0025796704
-0.62393023
-0.0024441509
-0.62166507
-0.0022651643
-0.61961158
-0.0020534894
-0.61779278
-0.0018188017
-0.61622354
-0.0015692404
-0.61491222
-0.001311319
-0.61386182
-0.0010503959
-0.61307048
-0.00079134047
-0.61253443
-0.00053605543
-0.61225868
-0.00027574354
-1.3733338e-05
-0.61118486
0.0031577727
-0.61265393
0.003218007
-0.61415096
0.0032816771
-0.61568922
0.0033676483
-0.61728118
0.0034758542
-0.61893805
0.0036057124
-0.62066967
0.00375481
-0.62248399
0.0039194348
-0.62438641
0.0040945281
-0.62637911
0.0042736337
-0.62846032
0.0044488595
-0.6306236
0.0046109297
-0.63285725
0.0047493813
-0.63514385
0.0048529509
-0.63746021
0.0049101589
-0.63977755
0.0049100901
-0.64206223
0.0048430708
-0.64427665
0.0047013309
-0.64638042
0.0044792937
-0.64833147
0.0041735424
-0.65008699
0.0037826072
-0.65160428
0.0033066949
-0.6528415
0.0027475677
-0.65375851
0.0021087203
-0.654318
0.001395961
-0.65448707
0.00061840283
-0.65423967
-0.00021034453
-0.65356061
-0.0010711243
-0.65244728
-0.0019390002
-0.65091097
-0.0027836608
-0.64898003
-0.003570778
-0.64670039
-0.0042657038
-0.64413357
-0.0048379247
-0.64135246
-0.0052651524
-0.63843582
-0.0055358841
-0.63546247
-0.0056498883
-0.63250626
-0.0056168001
-0.62963242
-0.0054535095
-0.62689545
-0.0051811217
-0.62433848
-0.004822138
-0.62199373
-0.0043982337
-0.61988378
-0.0039287546
-0.61802313
-0.0034298901
-0.61641991
-0.0029145342
-0.61507738
-0.0023929316
-0.6139957
-0.0018730168
-0.61317431
-0.0013574504
-0.61260481
-0.00084524138
-0.00037374301
-0.61223521
0.0045825271
-0.61365898
0.0046417766
-0.61510836
0.004731055
-0.61659832
0.0048576072
-0.61814217
0.0050197084
-0.61975174
0.0052152749
-0.62143734
0.0054404148
-0.62320744
0.0056895292
-0.625068
0.005955088
-0.62702183
0.0062274702
-0.62906784
0.0064948631
-0.63120021
0.006743307
-0.6334078
0.0069569672
-0.63567356
0.0071187076
-0.63797439
0.0072109893
-0.6402814
0.0072170986
-0.64256057
0.0071222433
-0.64477385
0.0069146056
-0.64688034
0.0065857919
-0.64883754
0.0061307396
-0.65060225
0.0055473164
-0.65213138
0.0048358202
-0.65338253
0.0039987255
-0.65431473
0.0030409147
-0.65488933
0.0019705592
-0.65507161
0.0008006868
-0.65483313
-0.00044882901
-0.65415443
-0.0017498199
-0.6530286
-0.0030648303
-0.651465
-0.0043472658
-0.64949181
-0.0055439648
-0.64715668
-0.0066008365
-0.64452452
-0.0074700771
-0.64167279
-0.0081168905
-0.63868503
-0.0085236437
-0.63564436
-0.008690553
-0.63262789
-0.0086332761
-0.62970279
-0.0083786099
-0.62692431
-0.0079596024
-0.62433533
-0.0074111144
-0.62196716
-0.0067663984
-0.61984107
-0.00605485
-0.6179701
-0.0053008535
-0.61636101
-0.0045236312
-0.61501609
-0.0037378512
-0.61393543
-0.0029536762
-0.61311722
-0.0021756545
-0.61255285
-0.0014096136
-0.00068164567
-0.61259227
0.0059779373
-0.6139957
0.0060452072
-0.61542538
0.0061607306
-0.61689627
0.0063285012
-0.61842217
0.0065456092
-0.6200156
0.0068087054
-0.62168768
0.0071124893
-0.6234477
0.0074495514
-0.62530257
0.0078099619
-0.62725608
0.0081809753
-0.62930805
0.008546833
-0.63145351
0.0088887686
-0.63368187
0.0091853272
-0.63597628
0.0094131176
-0.63831335
0.0095480561
-0.64066337
0.009567124
-0.64299112
0.0094499943
-0.64525709
0.0091805708
-0.64741892
0.00874762
-0.64943274
0.0081445619
-0.65125419
0.0073687652
-0.65283906
0.006420692
-0.65414374
0.0053034051
-0.65512562
0.0040227989
-0.65574386
0.0025887932
-0.65596074
0.0010175654
-0.65574405
-0.00066551583
-0.65507035
-0.0024235201
-0.65392903
-0.0042061461
-0.65232691
-0.0059493923
-0.65029184
-0.0075790291
-0.64787407
-0.0090186086
-0.64514389
-0.010200254
-0.64218594
-0.011074842
-0.63909141
-0.011618182
-0.63595014
-0.011831816
-0.63284426
-0.011739161
-0.62984389
-0.011378975
-0.62700532
-0.01079817
-0.62437095
-0.010045489
-0.62197056
-0.0091667877
-0.61982334
-0.0082020672
-0.61794011
-0.0071840864
-0.61632549
-0.006138254
-0.61498008
-0.0050832544
-0.61390239
-0.0040313653
-0.61308875
-0.0029893036
-0.61253363
-0.0019647252
-0.0009703297
-0.61301607
0.0073463783
-0.61439635
0.00742549
-0.61580383
0.0075682141
-0.61725369
0.0077783549
-0.6187602
0.0080521192
-0.62033668
0.0083851845
-0.6219952
0.0087710106
-0.62374617
0.0092005251
-0.62559773
0.009661522
-0.62755496
0.010138202
-0.62961897
0.01061084
-0.6317859
0.011055704
-0.63404596
0.011445387
-0.63638256
0.011749711
-0.63877185
0.011937355
-0.641183
0.011978264
-0.64357898
0.01184598
-0.64591823
0.011519816
-0.64815633
0.01098572
-0.65024761
0.010235847
-0.65214623
0.0092673814
-0.65380666
0.0080811237
-0.65518386
0.0066806075
-0.65623331
0.0050722416
-0.65691134
0.0032668231
-0.65717632
0.0012825497
-0.656991
-0.00085084131
-0.65632621
-0.0030883043
-0.65516581
-0.0053665505
-0.65351255
-0.0076026453
-0.65139349
-0.0096980924
-0.64886234
-0.01154976
-0.64599709
-0.013065505
-0.64289277
-0.014179163
-0.63965152
-0.01485943
-0.63637275
-0.015110584
-0.63314547
-0.014966438
-0.63004372
-0.014480731
-0.6271249
-0.013716987
-0.62443045
-0.012739936
-0.62198785
-0.011609397
-0.61981325
-0.010376665
-0.61791431
-0.0090830202
-0.61629278
-0.0077597933
-0.61494681
-0.0064292244
-0.61387274
-0.0051054326
-0.61306556
-0.0037964835
-0.61252125
-0.0025090327
-0.00124678
-0.61355232
0.0086827002
-0.61490304
0.008776213
-0.61628232
0.0089474872
-0.61770548
0.0092015163
-0.6191874
0.0095340367
-0.62074229
0.0099400778
-0.62238338
0.010412107
-0.62412247
0.010939612
-0.62596926
0.011508305
-0.62793051
0.012099458
-0.63000906
0.012689386
-0.63220258
0.013249224
-0.63450239
0.013745199
-0.63689233
0.014139652
-0.63934806
0.014393083
-0.64183717
0.014467372
-0.64432027
0.014329085
-0.64675299
0.013952529
-0.64908817
0.013320906
-0.65127787
0.012425547
-0.65327447
0.011263976
-0.655031
0.009837661
-0.65650091
0.0081505118
-0.65763747
0.0062088075
-0.65839367
0.0040230242
-0.6587229
0.0016117746
-0.65858125
-0.00099248734
-0.65793183
-0.0037377303
-0.65675055
-0.0065478284
-0.6550341
-0.0093190984
-0.65280773
-0.011924459
-0.65012959
-0.014227898
-0.64708822
-0.016106874
-0.64379312
-0.017474265
-0.64036155
-0.018291
-0.63690583
-0.018566304
-0.63352399
-0.018348277
-0.63029481
-0.017709918
-0.62727668
-0.016735111
-0.62450928
-0.015507335
-0.62201661
-0.01410207
-0.61981059
-0.012582684
-0.61789454
-0.010999072
-0.61626622
-0.0093881139
-0.61492038
-0.0077750609
-0.61385051
-0.0061752985
-0.61304993
-0.0045970635
-0.61251426
-0.0030447025
-0.0015160936
-0.61420421
0.009983165
-0.61551945
0.010091451
-0.61686413
0.010292166
-0.61825429
0.010591682
-0.61970561
0.01098535
-0.62123336
0.011467829
-0.62285214
0.012030888
-0.6245754
0.012662877
-0.6264148
0.0133477
-0.62837925
0.014063905
-0.63047377
0.014783908
-0.63269809
0.015473549
-0.63504511
0.016092214
-0.63749935
0.01659389
-0.64003591
0.016929641
-0.64262039
0.017051858
-0.64521025
0.016918946
-0.64775736
0.016499638
-0.65021103
0.015774579
-0.65252049
0.014735003
-0.65463615
0.013379631
-0.65650967
0.011711181
-0.65809308
0.0097339254
-0.6593375
0.0074532239
-0.66019211
0.0048776391
-0.66060431
0.0020239712
-0.66052176
-0.0010750401
-0.65989721
-0.004362274
-0.65869555
-0.0077494907
-0.65690433
-0.011110316
-0.65454537
-0.014283426
-0.65168209
-0.017091172
-0.64841728
-0.019371688
-0.64488023
-0.021011307
-0.64120873
-0.021962505
-0.63753212
-0.022242911
-0.63395983
-0.021920574
-0.63057605
-0.021093692
-0.62743969
-0.019871471
-0.62458743
-0.018359602
-0.6220383
-0.016651199
-0.61979851
-0.014822472
-0.61786573
-0.012931849
-0.61623266
-0.011021191
-0.61488971
-0.0091180072
-0.6138269
-0.0072381044
-0.61303519
-0.0053887756
-0.61250843
-0.0035714641
-0.0017795734
-0.61496625
0.011239386
-0.61623878
0.011363976
-0.61754209
0.011595476
-0.61889266
0.01194225
-0.62030699
0.012399688
-0.62180159
0.012962428
-0.62339262
0.013621912
-0.62509549
0.014365745
-0.62692419
0.015176407
-0.62889032
0.016030028
-0.63100168
0.016895274
-0.6332607
0.017732569
-0.63566243
0.018493941
-0.6381925
0.019123961
-0.64082546
0.019562601
-0.6435244
0.019750799
-0.64624258
0.019637119
-0.64892689
0.019183956
-0.65152207
0.018369757
-0.6539739
0.01718683
-0.65623073
0.015636464
-0.65824314
0.013723588
-0.65996219
0.011452979
-0.66133712
0.008828152
-0.66231317
0.005853689
-0.66283076
0.0025415566
-0.66282709
-0.001078705
-0.66224148
-0.0049478875
-0.66102358
-0.0089673864
-0.65914747
-0.01298643
-0.65662862
-0.016802271
-0.65353651
-0.020183284
-0.64999297
-0.02291523
-0.6461544
-0.024849873
-0.64218619
-0.025930717
-0.63823988
-0.026189222
-0.63443884
-0.025721613
-0.63087308
-0.024659455
-0.62760082
-0.023143726
-0.62465389
-0.021306531
-0.62204432
-0.019260768
-0.6197707
-0.017096093
-0.61782347
-0.014879073
-0.61618903
-0.012655635
-0.61485259
-0.010454446
-0.61380011
-0.0082905827
-0.61301963
-0.0061692565
-0.61250263
-0.0040884704
-0.0020373989
-0.61583951
0.012447931
-0.61706333
0.012587801
-0.61831839
0.01285053
-0.61962227
0.013246136
-0.62099255
0.013769964
-0.62244706
0.014416942
-0.62400376
0.015178607
-0.62568033
0.016042317
-0.62749356
0.01698964
-0.62945828
0.017994745
-0.63158583
0.019022823
-0.63388212
0.020028859
-0.63634519
0.020957009
-0.6389624
0.021741173
-0.64170789
0.022308091
-0.64454161
0.02258452
-0.64741127
0.02250678
-0.65025717
0.022029851
-0.65301803
0.02113062
-0.65563553
0.019804325
-0.65805601
0.018056945
-0.66022957
0.015897149
-0.66210721
0.013330621
-0.66363704
0.010357983
-0.66476056
0.0069772035
-0.66541039
0.0031913903
-0.66551108
-0.00097801682
-0.6649846
-0.0054743689
-0.6637599
-0.010192087
-0.66179116
-0.014955162
-0.65908278
-0.019510658
-0.6557105
-0.023555566
-0.65182181
-0.026803919
-0.6476104
-0.029061281
-0.64327893
-0.030262192
-0.63900763
-0.030460523
-0.63493657
-0.029792672
-0.6311613
-0.028434727
-0.62773735
-0.026567671
-0.62468895
-0.024354935
-0.62201837
-0.02193134
-0.61971426
-0.019400206
-0.617758
-0.01683534
-0.6161283
-0.014285331
-0.61480425
-0.01177849
-0.61376714
-0.0093276951
-0.61300158
-0.00693482
-0.61249636
-0.0045936852
-0.0022888124
-0.61681745
0.013596956
-0.61798388
0.01375423
-0.61918294
0.014049595
-0.6204325
0.01449569
-0.62175104
0.015088506
-0.62315783
0.015823729
-0.62467276
0.016693537
-0.62631611
0.017685668
-0.62810793
0.018781463
-0.63006696
0.019953776
-0.63220894
0.021164799
-0.63454429
0.022364207
-0.63707512
0.023487845
-0.63979149
0.024457541
-0.64266745
0.025184051
-0.64565908
0.025576143
-0.64870668
0.025554382
-0.6517416
0.025064772
-0.65469467
0.024083695
-0.65750258
0.022612233
-0.66010994
0.020664306
-0.66246746
0.018254668
-0.66452755
0.015390711
-0.66623862
0.012069051
-0.66753918
0.0082777593
-0.66835357
0.0040057888
-0.66859137
-0.00074021797
-0.66815255
-0.0059131974
-0.66693817
-0.011406466
-0.66487336
-0.017019965
-0.66194347
-0.022440554
-0.65822975
-0.027269277
-0.65391449
-0.031119183
-0.64924334
-0.03373243
-0.64446956
-0.035035974
-0.63981031
-0.035119771
-0.63542501
-0.034177968
-0.63141341
-0.032446332
-0.62782493
-0.030156147
-0.62467224
-0.027507626
-0.62194428
-0.0246593
-0.61961685
-0.021727639
-0.61766018
-0.018792012
-0.61604392
-0.015901586
-0.61474014
-0.01308227
-0.6137249
-0.010342934
-0.61297905
-0.0076806707
-0.61248859
-0.0050841469
-0.002532453
-0.6178997
0.014685677
-0.61900317
0.014857699
-0.62013894
0.015185366
-0.62132631
0.015683057
-0.62258491
0.016347101
-0.62393548
0.017174306
-0.62540004
0.018158091
-0.62700172
0.019287345
-0.62876432
0.020544073
-0.63071126
0.021900715
-0.63286367
0.023317209
-0.63523777
0.024738306
-0.63784123
0.026091301
-0.64066818
0.027284496
-0.64369334
0.028209209
-0.64686809
0.028750889
-0.65012283
0.028809122
-0.65337664
0.028318585
-0.65654982
0.027256871
-0.65957302
0.025635438
-0.66238979
0.023481072
-0.6649532
0.020818078
-0.66721938
0.01765689
-0.66913934
0.013989009
-0.67065016
0.0097885842
-0.67166788
0.0050235011
-0.67208495
-0.00032314033
-0.67177363
-0.006224523
-0.67059794
-0.012582152
-0.66844089
-0.019177015
-0.66525569
-0.025625752
-0.66112611
-0.03139886
-0.6562821
-0.035963197
-0.65104312
-0.038971407
-0.64573176
-0.04034733
-0.6406125
-0.040239036
-0.63586617
-0.0389243
-0.6315935
-0.036718996
-0.6278324
-0.033917246
-0.62457839
-0.030761643
-0.62180238
-0.027435309
-0.61946388
-0.024066137
-0.61751965
-0.02073624
-0.61592885
-0.01749239
-0.6146557
-0.014355418
-0.61367066
-0.011327978
-0.61295061
-0.0084007144
-0.61247879
-0.0055559677
-0.0027664457
-0.61908205
0.015697195
-0.62011177
0.015887414
-0.62117524
0.016248836
-0.6222914
0.01679922
-0.62348063
0.017536335
-0.6247651
0.018458769
-0.62616895
0.019561948
-0.62771847
0.020836865
-0.62944173
0.022267328
-0.63136762
0.023826611
-0.63352394
0.025473522
-0.63593428
0.02714865
-0.63861386
0.028770876
-0.64156305
0.030233689
-0.64475861
0.031404767
-0.64814644
0.032138721
-0.65164352
0.032306205
-0.65515179
0.031826854
-0.65857707
0.030682146
-0.66184259
0.028900962
-0.66489188
0.02653036
-0.66768298
0.023609174
-0.67017899
0.020152905
-0.67233701
0.016147026
-0.67409551
0.011547089
-0.67536293
0.0062909187
-0.67601216
0.00032609096
-0.67588215
-0.0063545365
-0.67478948
-0.013674821
-0.67255597
-0.021410519
-0.66908127
-0.029100451
-0.6644438
-0.036036339
-0.65893972
-0.041467272
-0.65299579
-0.044915334
-0.64703058
-0.046312549
-0.64136873
-0.045900884
-0.63621296
-0.044080066
-0.63165871
-0.04127325
-0.62772392
-0.037852033
-0.62437926
-0.034106305
-0.62157169
-0.030242874
-0.61924041
-0.02639742
-0.61732623
-0.022650417
-0.61577648
-0.019042141
-0.61454695
-0.015584947
-0.61360227
-0.012272656
-0.61291542
-0.0090875726
-0.61246698
-0.0060044053
-0.002988474
-0.62035441
0.016635384
-0.62130596
0.016838963
-0.62228976
0.017232641
-0.62332639
0.017835844
-0.62443716
0.018647105
-0.6256456
0.019667216
-0.62697807
0.020894415
-0.62846412
0.022322912
-0.63013654
0.023939747
-0.63203061
0.025720684
-0.63418213
0.027625035
-0.63662399
0.029590518
-0.63938145
0.031528337
-0.6424642
0.033316433
-0.64585345
0.034794022
-0.64948903
0.035774295
-0.65326948
0.036086658
-0.6570723
0.035629673
-0.6607831
0.034392946
-0.66431603
0.032433889
-0.66761672
0.029831057
-0.67065234
0.026644793
-0.67339783
0.022898394
-0.67582151
0.018570705
-0.67786789
0.01359347
-0.6794399
0.0078629258
-0.68038848
0.0012746692
-0.68051337
-0.0062296429
-0.67957112
-0.01461707
-0.67729667
-0.023684975
-0.6735013
-0.032895812
-0.66824045
-0.041297197
-0.66190325
-0.047804473
-0.65507699
-0.051741589
-0.64831449
-0.053075047
-0.64201608
-0.052199298
-0.63640316
-0.049692986
-0.63155448
-0.046121926
-0.6274554
-0.041951117
-0.62404125
-0.037520451
-0.62122775
-0.033056377
-0.61892926
-0.028695913
-0.61706824
-0.02451143
-0.61557913
-0.020531258
-0.61440898
-0.016755093
-0.61351673
-0.013164907
-0.61287169
-0.0097326142
-0.61245216
-0.0064239316
-0.0031958333
-0.62172044
0.017476821
-0.6225806
0.017699118
-0.62347442
0.018126463
-0.62442101
0.018782437
-0.62544185
0.019667948
-0.62656148
0.020786843
-0.62780825
0.022141181
-0.62921505
0.023729718
-0.63081979
0.025544481
-0.63266503
0.027565925
-0.6347962
0.029756207
-0.63725789
0.032052207
-0.64008867
0.034359122
-0.64331211
0.036539872
-0.64691845
0.038400356
-0.65084176
0.03969761
-0.65495546
0.040200357
-0.65910173
0.039775935
-0.66313741
0.038428634
-0.66696538
0.036261852
-0.67053682
0.033402495
-0.67383365
0.02994163
-0.67684859
0.025913335
-0.67956763
0.021289743
-0.68194792
0.015973754
-0.68389112
0.0098061344
-0.685226
0.002609542
-0.68570639
-0.0057492505
-0.68501452
-0.015308935
-0.6827663
-0.025933202
-0.6786293
-0.037032806
-0.67259822
-0.047328275
-0.66519321
-0.05520949
-0.65725051
-0.059684283
-0.64951232
-0.060813243
-0.64247198
-0.059239634
-0.63635903
-0.055805939
-0.631216
-0.05126495
-0.62697703
-0.046190089
-0.62352837
-0.040969115
-0.62074578
-0.035838964
-0.61851412
-0.03092757
-0.61673544
-0.026290111
-0.6153307
-0.021936002
-0.61423847
-0.017847325
-0.61341249
-0.013990881
-0.61281903
-0.010326079
-0.61243461
-0.0068083454
-0.0033854973
-0.62314825
0.018231547
-0.62391406
0.018464931
-0.62471044
0.018922839
-0.62555806
0.019630063
-0.6264788
0.020588681
-0.62749799
0.02180604
-0.62864583
0.02328902
-0.62995851
0.0250424
-0.63147929
0.027065258
-0.63325891
0.02934554
-0.6353542
0.031851499
-0.63782415
0.034522161
-0.6407246
0.03725957
-0.64409909
0.03991436
-0.64795425
0.042255517
-0.65222034
0.043963696
-0.65673554
0.044715559
-0.66128913
0.044329528
-0.66569535
0.042834852
-0.66984246
0.040408962
-0.67369319
0.037253227
-0.6772532
0.033501633
-0.68054155
0.029201691
-0.6835716
0.024319788
-0.6863245
0.018726654
-0.6887094
0.012191035
-0.69053409
0.0044342319
-0.69150034
-0.0047829994
-0.69120257
-0.015606711
-0.6890977
-0.028038063
-0.68462272
-0.041507787
-0.67763339
-0.054317605
-0.66883197
-0.06401091
-0.65945766
-0.069058594
-0.65052068
-0.069750222
-0.6426241
-0.067136212
-0.63598057
-0.062449477
-0.63056409
-0.056681423
-0.62623088
-0.050523306
-0.62280057
-0.044399419
-0.62009934
-0.038540199
-0.61797817
-0.033048742
-0.61631743
-0.02795085
-0.61502495
-0.023228481
-0.61403175
-0.018840526
-0.61328746
-0.014735167
-0.61275625
-0.010857292
-0.61241366
-0.0071509351
-0.0035542047
-0.62467025
0.018868437
-0.62532671
0.019121389
-0.62601529
0.019611414
-0.62675344
0.020368211
-0.62756199
0.021397233
-0.62846629
0.022710341
-0.6294977
0.024320424
-0.63069521
0.026239911
-0.63210724
0.028477287
-0.63379317
0.03103147
-0.63582297
0.033881306
-0.63827314
0.036972332
-0.64122135
0.040207775
-0.64473937
0.043432383
-0.64886291
0.046379053
-0.65352513
0.048625913
-0.65851614
0.049706572
-0.66354594
0.049359322
-0.66836613
0.047655043
-0.67284797
0.044890801
-0.67697777
0.041383033
-0.68079916
0.037323018
-0.68436765
0.032770185
-0.68773358
0.027685722
-0.69091536
0.021908425
-0.69384035
0.015116033
-0.69629664
0.0068905148
-0.69792747
-0.003152166
-0.69822919
-0.015304989
-0.6964626
-0.029804654
-0.69170631
-0.046264073
-0.68351984
-0.062504076
-0.67284501
-0.074685741
-0.66160627
-0.080297339
-0.65119134
-0.080165145
-0.64232231
-0.07600525
-0.63514269
-0.069629095
-0.62950603
-0.06231808
-0.62515352
-0.054875812
-0.62181708
-0.047735858
-0.6192635
-0.041093783
-0.61730684
-0.035005398
-0.6158061
-0.02945159
-0.61465759
-0.024376994
-0.61378668
-0.019711436
-0.61314064
-0.015381204
-0.61268294
-0.011314991
-0.61238917
-0.0074447075
-0.0036985753
-0.6262012
0.019405318
-0.62674701
0.019667198
-0.62731977
0.02018418
-0.62793802
0.020986456
-0.62862174
0.022080956
-0.62939588
0.023484483
-0.63029251
0.025217045
-0.63135305
0.02730046
-0.63263099
0.029755222
-0.6341949
0.03259538
-0.63613004
0.035816448
-0.63853446
0.039376754
-0.64151319
0.043186499
-0.64517655
0.047095751
-0.64960961
0.050812107
-0.65476406
0.053780365
-0.66036369
0.055306205
-0.66599415
0.054989778
-0.67130944
0.052970328
-0.67615728
0.049738642
-0.68056497
0.045790731
-0.68463274
0.041390788
-0.68846195
0.036599389
-0.69214942
0.031373192
-0.69577303
0.025532038
-0.69930389
0.018646889
-0.70252413
0.010110753
-0.70502198
-0.00065430891
-0.7061914
-0.014135573
-0.70507328
-0.030922779
-0.70020196
-0.051135385
-0.69052777
-0.072178264
-0.67725783
-0.08795569
-0.66354864
-0.094006526
-0.65130897
-0.092404811
-0.64136565
-0.085948572
-0.63369067
-0.077304079
-0.62793599
-0.068072759
-0.62367858
-0.059133219
-0.62053918
-0.050875257
-0.61821726
-0.043415704
-0.61648971
-0.036732952
-0.61519689
-0.030744407
-0.61422706
-0.02534682
-0.6135031
-0.020435398
-0.61297241
-0.015911896
-0.61259961
-0.011687788
-0.61236163
-0.0076826866
-0.0038152581
-0.62782629
0.019800728
-0.62824494
0.020085846
-0.62869281
0.02063205
-0.62918257
0.02147622
-0.6297314
0.02262978
-0.63036256
0.024115642
-0.63110759
0.025962082
-0.63200905
0.028201912
-0.63312393
0.030870105
-0.63452879
0.034000238
-0.63632458
0.037612241
-0.63863418
0.041686355
-0.64159461
0.046146925
-0.64536454
0.05086568
-0.65010809
0.055555662
-0.65582971
0.059501986
-0.66216498
0.061641476
-0.66850193
0.061326726
-0.67434478
0.058813172
-0.67951465
0.054908519
-0.68411982
0.050395896
-0.68835607
0.045627038
-0.69238848
0.040631802
-0.69637192
0.035356634
-0.70047744
0.029637557
-0.70475561
0.022925059
-0.70899229
0.014347429
-0.71268651
0.003039917
-0.71512505
-0.011697034
-0.71515473
-0.030893099
-0.71055008
-0.055740039
-0.69907944
-0.083648899
-0.68207818
-0.10495695
-0.66504069
-0.11104402
-0.65055622
-0.10688928
-0.63948477
-0.097020025
-0.63143551
-0.085353335
-0.62573671
-0.073771563
-0.62174013
-0.063129793
-0.61893327
-0.053682124
-0.6169455
-0.045403474
-0.61552126
-0.038157188
-0.61448875
-0.031776912
-0.613734
-0.026101576
-0.61318192
-0.020987478
-0.61278336
-0.016310454
-0.6125064
-0.011964751
-0.6123308
-0.0078582818
-0.0039011101
-0.62928397
0.020077891
-0.62957562
0.020377489
-0.62988974
0.020946172
-0.63023813
0.021824612
-0.63063483
0.023026481
-0.63110032
0.024581133
-0.6316642
0.026525954
-0.63236859
0.028906307
-0.63327265
0.031774167
-0.63445977
0.035187358
-0.63604771
0.039200174
-0.63819037
0.043829019
-0.64106529
0.049021844
-0.64489024
0.05469063
-0.64995259
0.06061801
-0.65638417
0.065933567
-0.66371336
0.068970662
-0.67100125
0.068614621
-0.67751511
0.065327027
-0.6830392
0.060432614
-0.68782793
0.055184626
-0.69222459
0.050023699
-0.6964617
0.044868913
-0.70072871
0.039623637
-0.70531607
0.034224919
-0.71039768
0.028006664
-0.71578846
0.01973821
-0.7209037
0.008155158
-0.7249543
-0.0076464281
-0.72677502
-0.029072385
-0.72321573
-0.059299319
-0.70979966
-0.097064976
-0.68725275
-0.12750386
-0.66567891
-0.13261786
-0.64846624
-0.12410194
-0.63632406
-0.10916221
-0.62815567
-0.093521721
-0.62278849
-0.079138749
-0.61928235
-0.06663593
-0.61697865
-0.055985825
-0.61544464
-0.046937484
-0.61440498
-0.039196847
-0.61368709
-0.032494797
-0.6131834
-0.026605274
-0.61282689
-0.021343988
-0.61257588
-0.016561458
-0.61240452
-0.012136107
-0.61229709
-0.0079657157
-0.0039534007
-0.63043977
0.020181498
-0.63057813
0.020515847
-0.6307393
0.021107344
-0.63092681
0.022012117
-0.63114966
0.023249336
-0.63142451
0.024855978
-0.63177777
0.026879217
-0.63224954
0.029378083
-0.63289879
0.032423408
-0.63381208
0.036100652
-0.63512015
0.040508244
-0.63700955
0.04571842
-0.63970337
0.051715659
-0.64347532
0.058462586
-0.64877657
0.065919259
-0.65600537
0.07316237
-0.66458262
0.077547912
-0.67300128
0.077033278
-0.68016205
0.072487793
-0.68579952
0.06607009
-0.69044735
0.059832451
-0.69468909
0.054265436
-0.69883987
0.049019697
-0.70307928
0.043863044
-0.70790133
0.039046977
-0.71374346
0.033848794
-0.72053111
0.026525861
-0.7276861
0.01531015
-0.73420537
-0.001127161
-0.7391316
-0.024146151
-0.73828365
-0.060147269
-0.72348286
-0.11186577
-0.69250082
-0.15848589
-0.66472345
-0.16039522
-0.64432865
-0.14449675
-0.63141679
-0.12207407
-0.62360478
-0.10133373
-0.61898437
-0.083759159
-0.61627248
-0.069347825
-0.6146763
-0.057582001
-0.61372787
-0.047885917
-0.61315614
-0.039768577
-0.61280518
-0.032845753
-0.61258532
-0.026825134
-0.61244492
-0.02148439
-0.61235427
-0.016652107
-0.61229635
-0.012194032
-0.61226158
-0.0080004846
-0.003970028
-0.63004284
0.020096641
-0.63000509
0.020478089
-0.62998392
0.021086173
-0.62997621
0.022004414
-0.6299844
0.023257522
-0.63001861
0.024890188
-0.63009808
0.026958688
-0.63025536
0.029535368
-0.63054228
0.032710325
-0.63103948
0.036597852
-0.63187975
0.04134851
-0.63328031
0.047118986
-0.63552527
0.053960619
-0.63894326
0.061880569
-0.64418221
0.071158215
-0.65218901
0.081169165
-0.66240034
0.087759246
-0.67226713
0.086900069
-0.68014341
0.080364067
-0.68565527
0.071581949
-0.68987382
0.064051002
-0.69377226
0.058163881
-0.69779411
0.053041547
-0.70196901
0.048037939
-0.70705691
0.044134874
-0.71394166
0.040733549
-0.72253387
0.035118075
-0.73247293
0.025249206
-0.74174646
0.0081463765
-0.75039094
-0.015501671
-0.75412569
-0.056412519
-0.74044255
-0.12554892
-0.69643856
-0.20248988
-0.66058766
-0.19624613
-0.63706667
-0.16801773
-0.62418186
-0.13495888
-0.61754035
-0.10797524
-0.61425759
-0.087041918
-0.61271893
-0.070886483
-0.61205857
-0.058242364
-0.61182937
-0.048115115
-0.61180304
-0.03979491
-0.61186389
-0.032784902
-0.61195395
-0.026735075
-0.61204486
-0.021393482
-0.61212341
-0.016573557
-0.61218398
-0.012133454
-0.61222465
-0.0079598155
-0.0039497308
-0.62619776
0.019764275
-0.62591503
0.02019536
-0.62562952
0.020800663
-0.62533351
0.021708398
-0.62502183
0.022945849
-0.62469609
0.024564447
-0.62436521
0.026627802
-0.62405016
0.029220315
-0.62379135
0.032451518
-0.62365854
0.036465047
-0.62377736
0.041467329
-0.62439046
0.047732084
-0.62586853
0.055438685
-0.6285904
0.064602442
-0.63332082
0.075888636
-0.64196211
0.089810456
-0.65440896
0.10020609
-0.66594587
0.098436982
-0.67421544
0.088633635
-0.67858787
0.075954375
-0.68130708
0.06677021
-0.68394855
0.06080536
-0.68716496
0.056257955
-0.69040741
0.051280386
-0.69454468
0.048272148
-0.70156873
0.047757602
-0.71092951
0.044478849
-0.72377825
0.038097949
-0.7352762
0.019644326
-0.74962184
-0.0011560247
-0.76228588
-0.043748485
-0.75909628
-0.12873851
-0.69461412
-0.26697204
-0.65077646
-0.24008379
-0.62534231
-0.19345188
-0.61399463
-0.14630657
-0.60978828
-0.11218158
-0.60862912
-0.088201079
-0.60869872
-0.070816888
-0.60920284
-0.057738235
-0.60981067
-0.047507287
-0.61038999
-0.039215589
-0.61089333
-0.032281565
-0.61130877
-0.026319639
-0.61163859
-0.021063655
-0.61188993
-0.016322218
-0.61207059
-0.011952793
-0.61218734
-0.0078430676
-0.0038922706
-0.61288075
0.018954119
-0.61215863
0.019473234
-0.61141877
0.020060811
-0.61063575
0.020925375
-0.60979265
0.022102747
-0.60887804
0.023649836
-0.60788381
0.025633572
-0.6068089
0.028145413
-0.60566668
0.031309291
-0.60449251
0.035290878
-0.60336182
0.040336637
-0.60247165
0.04684192
-0.60224086
0.055207887
-0.60308998
0.065451565
-0.60561878
0.078417435
-0.61313736
0.097329037
-0.6277612
0.11482993
-0.63999102
0.1106668
-0.64721421
0.095856824
-0.64801603
0.076756202
-0.64714021
0.065894381
-0.64667317
0.060338322
-0.64769475
0.057279534
-0.6483225
0.051908142
-0.64896235
0.048911997
-0.65584301
0.054638267
-0.66551943
0.054155272
-0.68320299
0.055781506
-0.69839236
0.034833698
-0.72745186
0.02790347
-0.74998747
-0.021212869
-0.77311126
-0.10561472
-0.67721012
-0.36287317
-0.63082777
-0.28646614
-0.60627089
-0.21800875
-0.59995651
-0.15262095
-0.60029271
-0.11184538
-0.60226864
-0.086225142
-0.60438786
-0.06869767
-0.60624242
-0.055883673
-0.60776305
-0.045986655
-0.60897693
-0.038001712
-0.60993188
-0.031326619
-0.61067372
-0.025577798
-0.6112405
-0.020496877
-0.61166191
-0.015900803
-0.61196019
-0.011654511
-0.61215124
-0.0076520202
-0.0037985593
-0.58511975
0.017691383
-0.58383548
0.018188967
-0.58245082
0.018676148
-0.58096157
0.019436126
-0.57934239
0.020483563
-0.5775631
0.021870551
-0.57558721
0.023657684
-0.57337401
0.025932206
-0.57088409
0.028819372
-0.56808595
0.032492742
-0.56496215
0.037212831
-0.56159076
0.043470532
-0.55841685
0.052033981
-0.55617527
0.063209983
-0.55514591
0.077388074
-0.55969389
0.10187702
-0.57985162
0.13498767
-0.59369577
0.12451095
-0.6003769
0.10253795
-0.59497583
0.071355135
-0.58808593
0.059004478
-0.5822754
0.054527796
-0.58049733
0.055501467
-0.57805868
0.049469494
-0.57105983
0.041913144
-0.58303199
0.031796714
-0.59350613
0.036588234
-0.60291224
0.039754605
-0.60196427
0.020344174
-0.63418149
0.039653712
-0.71373258
0.019661972
-0.66890397
-0.054735989
-0.60687986
-0.22726775
-0.57387459
-0.31947141
-0.57156102
-0.22032232
-0.58117427
-0.1430077
-0.58947911
-0.10354054
-0.59563781
-0.080066445
-0.60010035
-0.064235126
-0.60337082
-0.052613202
-0.60580334
-0.043554134
-0.60763435
-0.036170699
-0.60902202
-0.029938951
-0.61007404
-0.024525774
-0.61086498
-0.019705945
-0.61144689
-0.015318894
-0.61185602
-0.011245375
-0.61211705
-0.0073909888
-0.0036707065
-0.52767351
0.015232229
-0.52511204
0.015627502
-0.52238813
0.015952241
-0.51946319
0.016511183
-0.5162852
0.017305571
-0.51278743
0.018372788
-0.50888441
0.01975466
-0.50446984
0.021517635
-0.49941696
0.023766494
-0.49358442
0.026660205
-0.48681421
0.030442613
-0.47895182
0.035608145
-0.4701651
0.043247261
-0.461436
0.054480883
-0.45254577
0.068497845
-0.44328256
0.092613805
-0.46823644
0.15994155
-0.46995938
0.12623389
-0.46009307
0.092671648
-0.42354864
0.034810707
-0.38973492
0.025190751
-0.36042398
0.025216861
-0.29419588
0.019202608
-0.14946584
0.012710152
-0.032151328
0.0056785049
0
0
0
0
0
0
0
0
0
0
0
0
0
0
-0.21948916