/*--------------------------------*- C++ -*----------------------------------*\
| =========                 |                                                 |
| \\      /  F ield         | foam-extend: Open Source CFD                    |
|  \\    /   O peration     | Version:     4.1                                |
|   \\  /    A nd           | Web:         http://www.foam-extend.org         |
|    \\/     M anipulation  |                                                 |
\*---------------------------------------------------------------------------*/
FoamFile
{
    version     2.0;
    format      ascii;
    class       volVectorField;
    location    "0.25";
    object      U;
}
// * * * * * * * * * * * * * * * * * * * * * * * * * * * * * * * * * * * * * //

dimensions      [0 1 -1 0 0 0 0];

internalField   nonuniform List<vector> 
4393
(
(146.03495 -0.15728556 0)
(146.5866 -0.16378309 0)
(147.00339 -0.1668624 0)
(147.44738 -0.17058005 0)
(147.9014 -0.17505588 0)
(148.37036 -0.18037464 0)
(148.85647 -0.18645708 0)
(149.36188 -0.19315536 0)
(149.88818 -0.20026157 0)
(150.43627 -0.20750964 0)
(151.00616 -0.21457526 0)
(151.59678 -0.22107906 0)
(152.2059 -0.22659529 0)
(152.8299 -0.230668 0)
(153.46379 -0.23283484 0)
(154.10121 -0.23265621 0)
(154.73453 -0.22974457 0)
(155.35505 -0.22378745 0)
(155.95326 -0.21455945 0)
(156.51912 -0.20192226 0)
(157.0423 -0.18581653 0)
(157.51235 -0.16625194 0)
(157.91899 -0.14330257 0)
(158.25222 -0.11711303 0)
(158.5026 -0.087919517 0)
(158.66158 -0.056082837 0)
(158.72201 -0.022109249 0)
(158.67884 0.013341188 0)
(158.52884 0.049191989 0)
(158.27301 0.084033164 0)
(157.91642 0.11643054 0)
(157.46845 0.144982 0)
(156.94252 0.16846654 0)
(156.35527 0.18599721 0)
(155.7254 0.1971198 0)
(155.07224 0.20183269 0)
(154.41453 0.20053324 0)
(153.76932 0.19391538 0)
(153.15129 0.18284882 0)
(152.57243 0.16826573 0)
(152.04202 0.15107067 0)
(151.56677 0.13207942 0)
(151.15123 0.11198594 0)
(150.79814 0.091363831 0)
(150.50886 0.070717334 0)
(150.2838 0.050504938 0)
(150.12237 0.030882214 0)
(150.02096 0.011749677 0)
(149.97389 -0.0031630501 0)
(149.45847 -0.39717372 0)
(149.93087 -0.40831473 0)
(150.27957 -0.4166095 0)
(150.65229 -0.427351 0)
(151.03485 -0.44065325 0)
(151.43226 -0.45655012 0)
(151.84686 -0.47476841 0)
(152.28091 -0.49485819 0)
(152.73608 -0.51620066 0)
(153.21336 -0.5380059 0)
(153.71282 -0.55931019 0)
(154.23351 -0.57898351 0)
(154.77322 -0.59575415 0)
(155.32841 -0.60825582 0)
(155.89406 -0.61509854 0)
(156.46378 -0.61495658 0)
(157.02985 -0.60665805 0)
(157.58349 -0.58925585 0)
(158.11506 -0.56206509 0)
(158.61441 -0.52466387 0)
(159.07109 -0.47686916 0)
(159.47458 -0.41870762 0)
(159.81446 -0.35040334 0)
(160.08063 -0.27240013 0)
(160.26348 -0.18543096 0)
(160.35428 -0.090632133 0)
(160.34564 0.010345881 0)
(160.23212 0.11527379 0)
(160.01175 0.22109072 0)
(159.68533 0.32400613 0)
(159.25769 0.4198532 0)
(158.73808 0.50446159 0)
(158.13991 0.57416212 0)
(157.47999 0.62626431 0)
(156.77724 0.65936148 0)
(156.05126 0.67339454 0)
(155.32097 0.66949302 0)
(154.60352 0.64966925 0)
(153.91361 0.616458 0)
(153.26317 0.57257793 0)
(152.66136 0.52066195 0)
(152.11479 0.46307201 0)
(151.62789 0.40179585 0)
(151.20336 0.3384365 0)
(150.84258 0.27431274 0)
(150.54585 0.21048336 0)
(150.31233 0.1472387 0)
(150.14091 0.084424295 0)
(150.03531 0.028601358 0)
(149.72511 -0.63317085 0)
(150.1823 -0.6426611 0)
(150.52002 -0.65513435 0)
(150.88088 -0.67245539 0)
(151.2516 -0.69447169 0)
(151.63728 -0.72095791 0)
(152.04042 -0.75139965 0)
(152.46339 -0.7850309 0)
(152.90798 -0.82081911 0)
(153.37532 -0.85744818 0)
(153.86568 -0.89330857 0)
(154.37823 -0.92650631 0)
(154.91095 -0.95490195 0)
(155.46038 -0.97618879 0)
(156.02159 -0.98801376 0)
(156.58817 -0.9881305 0)
(157.15233 -0.97455667 0)
(157.70518 -0.94569879 0)
(158.23697 -0.90041567 0)
(158.73743 -0.83801506 0)
(159.19601 -0.75820411 0)
(159.60211 -0.66103093 0)
(159.9452 -0.54685662 0)
(160.21502 -0.41638994 0)
(160.4017 -0.27080677 0)
(160.4961 -0.1119584 0)
(160.49032 0.057378669 0)
(160.37831 0.23334154 0)
(160.15657 0.41090723 0)
(159.82528 0.58387915 0)
(159.38901 0.74520164 0)
(158.85721 0.88771974 0)
(158.24397 1.0051115 0)
(157.5671 1.0927517 0)
(156.84674 1.1482545 0)
(156.10361 1.171577 0)
(155.35757 1.1647229 0)
(154.62641 1.1311927 0)
(153.92515 1.0753486 0)
(153.26576 1.0018274 0)
(152.65724 0.91508055 0)
(152.10591 0.81906507 0)
(151.61584 0.71707772 0)
(151.18943 0.61172896 0)
(150.82775 0.50503688 0)
(150.53065 0.39843016 0)
(150.29685 0.29242554 0)
(150.12706 0.18733684 0)
(150.02928 0.087448083 0)
(149.81769 -0.86365647 0)
(150.26696 -0.87386614 0)
(150.60009 -0.89056236 0)
(150.95614 -0.91456097 0)
(151.32229 -0.94547217 0)
(151.70375 -0.98284136 0)
(152.1032 -1.0259195 0)
(152.52321 -1.0736405 0)
(152.96581 -1.1245772 0)
(153.43236 -1.1769043 0)
(153.92336 -1.2283752 0)
(154.43822 -1.2763273 0)
(154.97507 -1.3177311 0)
(155.53058 -1.3492981 0)
(156.09979 -1.3676548 0)
(156.67614 -1.3695708 0)
(157.25162 -1.3521974 0)
(157.81696 -1.3132576 0)
(158.36206 -1.2511395 0)
(158.87631 -1.1648813 0)
(159.34884 -1.0540833 0)
(159.7688 -0.91880337 0)
(160.12538 -0.7594996 0)
(160.40799 -0.57706904 0)
(160.60629 -0.37301435 0)
(160.71049 -0.14974857 0)
(160.71186 0.089014716 0)
(160.60337 0.33794207 0)
(160.38049 0.58986846 0)
(160.04259 0.83583919 0)
(159.59385 1.0655767 0)
(159.04402 1.2685612 0)
(158.4082 1.4354599 0)
(157.70586 1.5594744 0)
(156.95899 1.6371778 0)
(156.19016 1.6686492 0)
(155.42067 1.6569886 0)
(154.66928 1.6074555 0)
(153.95147 1.5265022 0)
(153.27925 1.4209027 0)
(152.66135 1.29709 0)
(152.10361 1.1607277 0)
(151.60959 1.0164981 0)
(151.18112 0.86807677 0)
(150.81881 0.71822319 0)
(150.52195 0.56882038 0)
(150.28895 0.42090006 0)
(150.12125 0.27553034 0)
(150.02715 0.13507299 0)
(149.92648 -1.0887291 0)
(150.36771 -1.1006025 0)
(150.69553 -1.1216412 0)
(151.04621 -1.1524345 0)
(151.40736 -1.1924214 0)
(151.78431 -1.2409579 0)
(152.17996 -1.2970736 0)
(152.59713 -1.3594129 0)
(153.03814 -1.4261621 0)
(153.50466 -1.494988 0)
(153.99751 -1.5629965 0)
(154.51643 -1.6267283 0)
(155.05978 -1.6822135 0)
(155.62437 -1.7251069 0)
(156.20522 -1.7509218 0)
(156.79557 -1.7553483 0)
(157.38702 -1.7345964 0)
(157.96982 -1.6856706 0)
(158.53335 -1.6064974 0)
(159.06652 -1.495889 0)
(159.55808 -1.3533914 0)
(159.99683 -1.1791106 0)
(160.37167 -0.97360454 0)
(160.67162 -0.73791573 0)
(160.88578 -0.47378828 0)
(161.0035 -0.18408499 0)
(161.01495 0.12665681 0)
(160.91174 0.45174501 0)
(160.68785 0.78195059 0)
(160.34138 1.1053864 0)
(159.87586 1.4081272 0)
(159.30136 1.6757131 0)
(158.63448 1.8952421 0)
(157.897 2.0573741 0)
(157.11366 2.1575509 0)
(156.30959 2.1961421 0)
(155.50816 2.1776787 0)
(154.72941 2.1095697 0)
(153.98941 2.000713 0)
(153.30015 1.8602889 0)
(152.66989 1.6968744 0)
(152.10382 1.5179017 0)
(151.6047 1.3294154 0)
(151.17362 1.1360607 0)
(150.81049 0.94119773 0)
(150.51401 0.74702192 0)
(150.28233 0.55483437 0)
(150.1171 0.3658501 0)
(150.02586 0.18125228 0)
(150.0638 -1.3112228 0)
(150.49509 -1.3252514 0)
(150.81611 -1.3508197 0)
(151.16 -1.3886311 0)
(151.51482 -1.4380203 0)
(151.88604 -1.4982109 0)
(152.27682 -1.5680507 0)
(152.6903 -1.645929 0)
(153.12916 -1.7296749 0)
(153.59548 -1.8164656 0)
(154.09052 -1.9027595 0)
(154.61441 -1.9842743 0)
(155.16586 -2.0560385 0)
(155.74189 -2.11255 0)
(156.33751 -2.148074 0)
(156.9457 -2.1570752 0)
(157.55754 -2.1346993 0)
(158.16263 -2.0771632 0)
(158.74964 -1.981927 0)
(159.30686 -1.8476162 0)
(159.82256 -1.6737743 0)
(160.28518 -1.4605778 0)
(160.6833 -1.2086495 0)
(161.0055 -0.91906742 0)
(161.24022 -0.59363533 0)
(161.37579 -0.23543762 0)
(161.40093 0.15038177 0)
(161.30545 0.55586162 0)
(161.08124 0.96962867 0)
(160.72455 1.3765846 0)
(160.23784 1.7585577 0)
(159.63154 2.0963157 0)
(158.92419 2.3725697 0)
(158.14085 2.5749106 0)
(157.31005 2.6975512 0)
(156.46046 2.7414446 0)
(155.61813 2.7130853 0)
(154.80479 2.6226349 0)
(154.03712 2.4819827 0)
(153.32697 2.3031345 0)
(152.68191 2.0970883 0)
(152.10611 1.8731933 0)
(151.60129 1.6389037 0)
(151.1675 1.3998084 0)
(150.8037 1.1598044 0)
(150.50783 0.92132145 0)
(150.27761 0.68570646 0)
(150.11447 0.45382087 0)
(150.02513 0.22574457 0)
(150.23034 -1.5247642 0)
(150.65012 -1.5412387 0)
(150.96283 -1.5715996 0)
(151.29835 -1.616759 0)
(151.64531 -1.6759786 0)
(152.00937 -1.7483941 0)
(152.394 -1.8327115 0)
(152.80268 -1.9271043 0)
(153.23857 -2.0290788 0)
(153.70424 -2.1353464 0)
(154.2015 -2.2417212 0)
(154.73102 -2.3430699 0)
(155.292 -2.4333475 0)
(155.88173 -2.5057703 0)
(156.49525 -2.5531834 0)
(157.12522 -2.568635 0)
(157.76205 -2.5460504 0)
(158.39444 -2.4807863 0)
(159.01014 -2.3698629 0)
(159.59666 -2.2118203 0)
(160.14171 -2.0063185 0)
(160.63333 -1.7536879 0)
(161.05982 -1.4546173 0)
(161.40938 -1.1101156 0)
(161.66976 -0.72183014 0)
(161.82808 -0.29276504 0)
(161.87124 0.17165255 0)
(161.78675 0.66246276 0)
(161.56363 1.1662615 0)
(161.19545 1.6644327 0)
(160.68297 2.1337626 0)
(160.03685 2.5490594 0)
(159.27825 2.8874454 0)
(158.43667 3.1326677 0)
(157.54582 3.277578 0)
(156.6391 3.3241392 0)
(155.74606 3.281553 0)
(154.89042 3.163539 0)
(154.08952 2.9856699 0)
(153.35479 2.7632733 0)
(152.69276 2.5100619 0)
(152.10626 2.2374279 0)
(151.59556 1.9542411 0)
(151.1594 1.6669727 0)
(150.79557 1.3799787 0)
(150.50106 1.0958574 0)
(150.27297 0.8159143 0)
(150.11218 0.54061761 0)
(150.02456 0.26924923 0)
(150.42543 -1.7367905 0)
(150.83119 -1.7557282 0)
(151.13396 -1.7909053 0)
(151.45947 -1.8435246 0)
(151.79699 -1.9128244 0)
(152.15236 -1.997908 0)
(152.52939 -2.0973974 0)
(152.93204 -2.2093094 0)
(153.36395 -2.3308833 0)
(153.82834 -2.4584079 0)
(154.3277 -2.5870709 0)
(154.86341 -2.7108655 0)
(155.43528 -2.8225934 0)
(156.04104 -2.9140338 0)
(156.67583 -2.9763783 0)
(157.3319 -3.0009874 0)
(157.99876 -2.9803335 0)
(158.66395 -2.908798 0)
(159.314 -2.7829932 0)
(159.93541 -2.6015113 0)
(160.51525 -2.364294 0)
(161.04124 -2.0719361 0)
(161.50149 -1.7251922 0)
(161.88391 -1.324856 0)
(162.17561 -0.87212032 0)
(162.36237 -0.36948806 0)
(162.42891 0.1777984 0)
(162.35983 0.76014049 0)
(162.14029 1.3622397 0)
(161.76004 1.9616597 0)
(161.21713 2.5291274 0)
(160.5222 3.0318307 0)
(159.69978 3.4395672 0)
(158.78547 3.7311506 0)
(157.82001 3.8979571 0)
(156.84306 3.9436551 0)
(155.88862 3.8812623 0)
(154.98271 3.7291962 0)
(154.14317 3.5076441 0)
(153.38063 3.2358877 0)
(152.70007 2.930697 0)
(152.10246 2.6056207 0)
(151.58623 2.270901 0)
(151.14844 1.9337552 0)
(150.78548 1.5988222 0)
(150.49322 1.2686741 0)
(150.26796 0.94437046 0)
(150.10987 0.62588609 0)
(150.02402 0.31182763 0)
(150.64851 -1.9340749 0)
(151.03872 -1.9557071 0)
(151.32998 -1.9960976 0)
(151.64374 -2.0567291 0)
(151.97006 -2.1368322 0)
(152.31501 -2.2355255 0)
(152.68279 -2.3514075 0)
(153.07783 -2.4824058 0)
(153.50443 -2.6255607 0)
(153.96654 -2.776794 0)
(154.46749 -2.9306955 0)
(155.00956 -3.0803656 0)
(155.59341 -3.2173626 0)
(156.2174 -3.3318365 0)
(156.87687 -3.4130196 0)
(157.56357 -3.4502089 0)
(158.2659 -3.4340974 0)
(158.96979 -3.3579422 0)
(159.66016 -3.2180234 0)
(160.32228 -3.0132275 0)
(160.94248 -2.7440612 0)
(161.50827 -2.4115917 0)
(162.00776 -2.0166922 0)
(162.42884 -1.5597913 0)
(162.7581 -1.0412587 0)
(162.97993 -0.46253896 0)
(163.07648 0.17196829 0)
(163.02877 0.85264319 0)
(162.81684 1.5627161 0)
(162.42498 2.2757035 0)
(161.84701 2.9550016 0)
(161.09294 3.5578361 0)
(160.19167 4.0441154 0)
(159.18717 4.3861302 0)
(158.12982 4.5736936 0)
(157.06757 4.6132564 0)
(156.03992 4.5232503 0)
(155.07544 4.3283405 0)
(154.19212 4.0545226 0)
(153.39916 3.7257851 0)
(152.6993 3.3623222 0)
(152.09103 2.9799246 0)
(151.57043 2.590121 0)
(151.13249 2.2007041 0)
(150.7719 1.8163982 0)
(150.48327 1.4395472 0)
(150.26192 1.0707738 0)
(150.1072 0.70944059 0)
(150.02341 0.35343577 0)
(150.89935 -2.1331253 0)
(151.27072 -2.157323 0)
(151.54861 -2.2027737 0)
(151.84874 -2.2713298 0)
(152.16198 -2.3622771 0)
(152.49463 -2.4748172 0)
(152.85128 -2.6076062 0)
(153.23694 -2.7585767 0)
(153.65659 -2.9246693 0)
(154.11511 -3.1015315 0)
(154.61685 -3.2832185 0)
(155.16522 -3.4619504 0)
(155.762 -3.6279689 0)
(156.40647 -3.7695888 0)
(157.09433 -3.8737032 0)
(157.81682 -3.9270403 0)
(158.56083 -3.9180552 0)
(159.31013 -3.8386746 0)
(160.04749 -3.684978 0)
(160.75657 -3.456519 0)
(161.42295 -3.1547896 0)
(162.03407 -2.7816276 0)
(162.57844 -2.3381041 0)
(163.04428 -1.8240904 0)
(163.41798 -1.238642 0)
(163.68263 -0.58138782 0)
(163.81744 0.14503933 0)
(163.7991 0.93191448 0)
(163.60094 1.7616791 0)
(163.19959 2.6037923 0)
(162.58218 3.4128236 0)
(161.75697 4.1327513 0)
(160.75852 4.7097723 0)
(159.64242 5.1073343 0)
(158.47236 5.3137313 0)
(157.30725 5.3399193 0)
(156.19333 5.212089 0)
(155.16179 4.9632724 0)
(154.23007 4.6267857 0)
(153.405 4.2321829 0)
(152.68612 3.8034161 0)
(152.06864 3.3585046 0)
(151.54568 2.9100568 0)
(151.10976 2.4661575 0)
(150.75361 2.0313252 0)
(150.47039 1.6074101 0)
(150.25434 1.1943826 0)
(150.10394 0.79085419 0)
(150.02268 0.3938953 0)
(151.17622 -2.3072547 0)
(151.52772 -2.334154 0)
(151.79062 -2.3850541 0)
(152.07523 -2.4621382 0)
(152.37343 -2.5647631 0)
(152.69171 -2.6922798 0)
(153.03513 -2.8434948 0)
(153.40928 -3.016459 0)
(153.81996 -3.2081395 0)
(154.27308 -3.4140311 0)
(154.77426 -3.6277473 0)
(155.3283 -3.8406599 0)
(155.93849 -4.0416254 0)
(156.6054 -4.2168785 0)
(157.3254 -4.3504646 0)
(158.08923 -4.4258039 0)
(158.88178 -4.4283995 0)
(159.68388 -4.3485036 0)
(160.47535 -4.182174 0)
(161.23782 -3.9301887 0)
(161.95607 -3.5956587 0)
(162.61783 -3.1816551 0)
(163.21252 -2.6896283 0)
(163.72931 -2.1187339 0)
(164.15493 -1.4661567 0)
(164.47136 -0.72876408 0)
(164.65467 0.09380273 0)
(164.67638 0.99509206 0)
(164.5012 1.9579549 0)
(164.09501 2.9481958 0)
(163.43456 3.9099548 0)
(162.52414 4.7693479 0)
(161.40559 5.4530254 0)
(160.15103 5.9121013 0)
(158.84274 6.1336936 0)
(157.55413 6.1360204 0)
(156.33959 5.9564769 0)
(155.23255 5.6393357 0)
(154.24876 5.22711 0)
(153.39123 4.7558524 0)
(152.65504 4.2535211 0)
(152.03115 3.7402042 0)
(151.50899 3.2292381 0)
(151.07818 2.7285945 0)
(150.72924 2.2422032 0)
(150.45372 1.7710917 0)
(150.24475 1.3143205 0)
(150.09986 0.86956834 0)
(150.02177 0.43294101 0)
(151.48041 -2.4917339 0)
(151.8076 -2.5213693 0)
(152.05334 -2.5776414 0)
(152.32024 -2.6631798 0)
(152.60114 -2.7774921 0)
(152.90269 -2.9201593 0)
(153.23038 -3.090243 0)
(153.59044 -3.2860436 0)
(153.98957 -3.5047091 0)
(154.43488 -3.7417445 0)
(154.93349 -3.9904618 0)
(155.49197 -4.2414658 0)
(156.11554 -4.4822071 0)
(156.80668 -4.6966133 0)
(157.56294 -4.8652816 0)
(158.37459 -4.9673351 0)
(159.22395 -4.9843208 0)
(160.08774 -4.9043718 0)
(160.94167 -4.7239111 0)
(161.76469 -4.4459113 0)
(162.54079 -4.0761446 0)
(163.25849 -3.6196426 0)
(163.90885 -3.0785238 0)
(164.48292 -2.4510441 0)
(164.96855 -1.7317733 0)
(165.34718 -0.91348529 0)
(165.59164 0.0089086046 0)
(165.66701 1.0331946 0)
(165.52819 2.1444546 0)
(165.12572 3.3062116 0)
(164.42019 4.4507362 0)
(163.40795 5.4798551 0)
(162.14005 6.2915767 0)
(160.71256 6.8192778 0)
(159.23421 7.0499422 0)
(157.79771 7.0135172 0)
(156.46687 6.7636992 0)
(155.27641 6.3598615 0)
(154.23838 5.8559658 0)
(153.34993 5.2954688 0)
(152.60002 4.7103727 0)
(151.97411 4.1224227 0)
(151.45724 3.5451098 0)
(151.03564 2.9857216 0)
(150.69742 2.4471055 0)
(150.43244 1.9290727 0)
(150.2327 1.4294823 0)
(150.0948 0.94487494 0)
(150.02065 0.47022937 0)
(151.80649 -2.6338113 0)
(152.10927 -2.665816 0)
(152.33627 -2.7273521 0)
(152.58352 -2.8214256 0)
(152.84499 -2.9477129 0)
(153.12748 -3.1061187 0)
(153.43691 -3.2961012 0)
(153.78014 -3.5163973 0)
(154.16488 -3.7645661 0)
(154.59957 -4.0363816 0)
(155.09311 -4.3251017 0)
(155.65422 -4.6207532 0)
(156.29061 -4.9094667 0)
(157.00745 -5.1727091 0)
(157.80429 -5.386929 0)
(158.6712 -5.5255445 0)
(159.58706 -5.564544 0)
(160.52278 -5.489109 0)
(161.44826 -5.2964515 0)
(162.33886 -4.9930234 0)
(163.17795 -4.5885836 0)
(163.95566 -4.0909352 0)
(164.66585 -3.5031215 0)
(165.30271 -2.8222968 0)
(165.85654 -2.0396197 0)
(166.30911 -1.1422123 0)
(166.63017 -0.11812959 0)
(166.77718 1.0370144 0)
(166.69389 2.3131763 0)
(166.30973 3.6745989 0)
(165.56026 5.0410406 0)
(164.42653 6.281262 0)
(162.97101 7.250109 0)
(161.32532 7.8544943 0)
(159.63668 8.0838591 0)
(158.02337 7.9871723 0)
(156.55959 7.6420086 0)
(155.27906 7.1279496 0)
(154.187 6.5129758 0)
(153.27183 5.8486517 0)
(152.51419 5.170678 0)
(151.89269 4.5016672 0)
(151.38713 3.8543944 0)
(150.98 3.2346879 0)
(150.65681 2.6436918 0)
(150.40577 2.0795381 0)
(150.21777 1.538558 0)
(150.08858 1.0159325 0)
(150.01928 0.50534927 0)
(152.15929 -2.8031377 0)
(152.43183 -2.8382521 0)
(152.63759 -2.9056172 0)
(152.86268 -3.0087669 0)
(153.10206 -3.1476532 0)
(153.36252 -3.3226099 0)
(153.65036 -3.5336268 0)
(153.97306 -3.7800507 0)
(154.33935 -4.0600712 0)
(154.75917 -4.3699899 0)
(155.2435 -4.7032653 0)
(155.80367 -5.049535 0)
(156.45059 -5.3937024 0)
(157.1932 -5.7146348 0)
(158.03441 -5.9837566 0)
(158.9648 -6.166719 0)
(159.95881 -6.2314044 0)
(160.97902 -6.1587184 0)
(161.98696 -5.9475112 0)
(162.95315 -5.6100924 0)
(163.86065 -5.1627123 0)
(164.7024 -4.6176235 0)
(165.47649 -3.979647 0)
(166.18183 -3.2450844 0)
(166.81292 -2.401026 0)
(167.35323 -1.4268983 0)
(167.76993 -0.30071652 0)
(168.01273 0.99205766 0)
(168.01199 2.4504939 0)
(167.66988 4.0450675 0)
(166.8835 5.6848143 0)
(165.60523 7.1940085 0)
(163.9107 8.3606974 0)
(161.98594 9.0504915 0)
(160.03542 9.2613528 0)
(158.21112 9.0732494 0)
(156.59743 8.5989449 0)
(155.22275 7.9448064 0)
(154.08052 7.1955091 0)
(153.14643 6.4108995 0)
(152.39014 5.6293782 0)
(151.78186 4.8730857 0)
(151.29538 4.1528251 0)
(150.90917 3.4719507 0)
(150.60617 2.829154 0)
(150.373 2.2203641 0)
(150.19963 1.6400393 0)
(150.08106 1.0817789 0)
(150.01763 0.53783128 0)
(152.52615 -2.9025769 0)
(152.76956 -2.9393269 0)
(152.95255 -3.0112005 0)
(153.15344 -3.1220941 0)
(153.36839 -3.2722045 0)
(153.60418 -3.4623699 0)
(153.86739 -3.6932649 0)
(154.1661 -3.9650849 0)
(154.51006 -4.2769942 0)
(154.91087 -4.6262842 0)
(155.38187 -5.0071501 0)
(155.9375 -5.4093594 0)
(156.59264 -5.8170811 0)
(157.36142 -6.2069723 0)
(158.25219 -6.5449483 0)
(159.25738 -6.7864392 0)
(160.34566 -6.8875559 0)
(161.46728 -6.8229529 0)
(162.57122 -6.5945091 0)
(163.62121 -6.2239032 0)
(164.60063 -5.7370455 0)
(165.50715 -5.151897 0)
(166.34521 -4.4747956 0)
(167.12077 -3.7003436 0)
(167.83532 -2.810018 0)
(168.47664 -1.7725688 0)
(169.01047 -0.55194029 0)
(169.37864 0.88056147 0)
(169.49752 2.5375314 0)
(169.23485 4.4036469 0)
(168.42932 6.3838279 0)
(166.9803 8.2444547 0)
(164.97585 9.6677885 0)
(162.68785 10.451208 0)
(160.40853 10.615056 0)
(158.33329 10.29001 0)
(156.55399 9.6409516 0)
(155.08563 8.8091037 0)
(153.90246 7.8981099 0)
(152.96211 6.9751943 0)
(152.22009 6.0794224 0)
(151.63661 5.2303628 0)
(151.17891 4.4351145 0)
(150.82134 3.6932849 0)
(150.54446 3.0002417 0)
(150.33357 2.3491493 0)
(150.17799 1.7322478 0)
(150.07215 1.1413536 0)
(150.01568 0.56716002 0)
(152.92108 -3.0571443 0)
(153.12803 -3.097611 0)
(153.2857 -3.1757942 0)
(153.45992 -3.2962002 0)
(153.64773 -3.4594796 0)
(153.85562 -3.6671953 0)
(154.09032 -3.9209716 0)
(154.36033 -4.2221713 0)
(154.6763 -4.5713246 0)
(155.05153 -4.9672027 0)
(155.50198 -5.4052812 0)
(156.04567 -5.8759051 0)
(156.70225 -6.3628512 0)
(157.49284 -6.8409079 0)
(158.43452 -7.2697844 0)
(159.52438 -7.5906103 0)
(160.72406 -7.7407494 0)
(161.96566 -7.6839912 0)
(163.17939 -7.4265067 0)
(164.31976 -7.0045346 0)
(165.37222 -6.458819 0)
(166.34261 -5.8156437 0)
(167.24454 -5.0839932 0)
(168.09339 -4.2583577 0)
(168.90084 -3.3162211 0)
(169.66199 -2.2148369 0)
(170.34233 -0.90027527 0)
(170.87559 0.67574057 0)
(171.16542 2.546581 0)
(171.03989 4.7259637 0)
(170.25222 7.1333048 0)
(168.60502 9.4655257 0)
(166.19006 11.23434 0)
(163.41898 12.116244 0)
(160.72328 12.185799 0)
(158.35158 11.656809 0)
(156.39509 10.771601 0)
(154.84121 9.7152634 0)
(153.63412 8.6112184 0)
(152.70652 7.5311933 0)
(151.99633 6.5113276 0)
(151.45237 5.5655236 0)
(151.0351 4.6949018 0)
(150.71509 3.8937997 0)
(150.47095 3.1533083 0)
(150.28714 2.463264 0)
(150.15271 1.8133789 0)
(150.06178 1.1935296 0)
(150.01342 0.59279066 0)
(153.31589 -3.1015655 0)
(153.489 -3.1426077 0)
(153.61982 -3.2240134 0)
(153.76509 -3.3505913 0)
(153.92295 -3.5232635 0)
(154.09956 -3.7442308 0)
(154.30166 -4.0160373 0)
(154.53805 -4.3412673 0)
(154.82022 -4.7220166 0)
(155.16316 -5.158989 0)
(155.58582 -5.6496929 0)
(156.11045 -6.1859267 0)
(156.76228 -6.7520492 0)
(157.5715 -7.3225909 0)
(158.56887 -7.852314 0)
(159.76164 -8.2644632 0)
(161.10329 -8.468373 0)
(162.49818 -8.4113097 0)
(163.84706 -8.1084923 0)
(165.09067 -7.6215374 0)
(166.21893 -7.0157039 0)
(167.25062 -6.3289782 0)
(168.21133 -5.5720301 0)
(169.12798 -4.7377535 0)
(170.02688 -3.7975351 0)
(170.9167 -2.689986 0)
(171.76691 -1.3312897 0)
(172.50556 0.35809078 0)
(173.02891 2.4402531 0)
(173.12567 4.972304 0)
(172.42711 7.9170348 0)
(170.55985 10.899111 0)
(167.58797 13.154087 0)
(164.15717 14.128346 0)
(160.93007 14.024724 0)
(158.21272 13.192492 0)
(156.07692 11.989025 0)
(154.45808 10.651255 0)
(153.25504 9.3197131 0)
(152.36732 8.0644367 0)
(151.71186 6.9128394 0)
(151.22545 5.8688531 0)
(150.86217 4.924796 0)
(150.58965 4.0680293 0)
(150.38536 3.2844062 0)
(150.23365 2.5599341 0)
(150.12379 1.8815654 0)
(150.04997 1.237156 0)
(150.01084 0.61417042 0)
(153.74021 -3.2431912 0)
(153.87029 -3.2894322 0)
(153.97187 -3.3778542 0)
(154.08613 -3.5139262 0)
(154.21185 -3.6991837 0)
(154.35445 -3.9369019 0)
(154.5204 -4.2311161 0)
(154.7185 -4.5863754 0)
(154.96065 -5.0072988 0)
(155.26318 -5.4977956 0)
(155.64798 -6.0590557 0)
(156.1418 -6.6860007 0)
(156.77578 -7.3648732 0)
(157.59074 -8.0719142 0)
(158.63801 -8.7593354 0)
(159.94501 -9.32714 0)
(161.45736 -9.6378857 0)
(163.03673 -9.6065824 0)
(164.53745 -9.2598114 0)
(165.88078 -8.6965075 0)
(167.06769 -8.0170595 0)
(168.14021 -7.2711712 0)
(169.14181 -6.4658282 0)
(170.11397 -5.590569 0)
(171.10444 -4.6154296 0)
(172.14501 -3.4628672 0)
(173.21324 -2.0184543 0)
(174.22897 -0.17345966 0)
(175.07577 2.158004 0)
(175.52761 5.0862249 0)
(175.0508 8.6975066 0)
(172.96524 12.590896 0)
(169.22021 15.56752 0)
(164.86058 16.602239 0)
(160.95297 16.194648 0)
(157.84254 14.91165 0)
(155.54406 13.281539 0)
(153.90017 11.595374 0)
(152.74411 10.00106 0)
(151.93328 8.5555063 0)
(151.36139 7.2686836 0)
(150.95375 6.1289381 0)
(150.65961 5.1165284 0)
(150.44517 4.2101043 0)
(150.28804 3.3894389 0)
(150.17339 2.6363599 0)
(150.09142 1.9349632 0)
(150.03681 1.2711132 0)
(150.00798 0.63076539 0)
(154.12052 -3.2185756 0)
(154.21131 -3.2636607 0)
(154.28216 -3.3524787 0)
(154.36274 -3.4913325 0)
(154.45269 -3.6822592 0)
(154.55648 -3.9294469 0)
(154.67999 -4.2381482 0)
(154.83163 -4.614503 0)
(155.02329 -5.0651946 0)
(155.27223 -5.5969528 0)
(155.60339 -6.2146755 0)
(156.04893 -6.9167339 0)
(156.64652 -7.6912506 0)
(157.44899 -8.517815 0)
(158.53799 -9.3523229 0)
(159.98047 -10.070235 0)
(161.71936 -10.461316 0)
(163.54937 -10.386067 0)
(165.24908 -9.8975744 0)
(166.71029 -9.162273 0)
(167.95577 -8.343908 0)
(169.0665 -7.511082 0)
(170.10831 -6.665124 0)
(171.13296 -5.7957741 0)
(172.21166 -4.8862389 0)
(173.40961 -3.8442116 0)
(174.71742 -2.5058051 0)
(176.0448 -0.70106132 0)
(177.28149 1.7206512 0)
(178.23904 4.9717578 0)
(178.20959 9.368365 0)
(175.98154 14.565142 0)
(171.15601 18.699078 0)
(165.44921 19.707609 0)
(160.67547 18.77353 0)
(157.13831 16.818026 0)
(154.72814 14.620793 0)
(153.12817 12.511906 0)
(152.08168 10.623238 0)
(151.39617 8.9793505 0)
(150.94257 7.5605772 0)
(150.63757 6.3329357 0)
(150.42865 5.2612683 0)
(150.28297 4.3140292 0)
(150.18007 3.4643769 0)
(150.1071 2.6898722 0)
(150.05603 1.9718574 0)
(150.02246 1.294378 0)
(150.00486 0.64209196 0)
(154.4356 -3.3451519 0)
(154.4742 -3.4011419 0)
(154.50965 -3.5005624 0)
(154.55191 -3.6508944 0)
(154.60112 -3.8546597 0)
(154.66044 -4.1171364 0)
(154.73494 -4.4451462 0)
(154.83234 -4.8471253 0)
(154.96396 -5.3330768 0)
(155.14713 -5.9147155 0)
(155.40906 -6.6044856 0)
(155.78741 -7.4099503 0)
(156.32547 -8.326867 0)
(157.08517 -9.3447613 0)
(158.18721 -10.438835 0)
(159.77001 -11.469405 0)
(161.78877 -12.108342 0)
(163.93001 -12.102249 0)
(165.84634 -11.542383 0)
(167.38654 -10.691678 0)
(168.61697 -9.8107046 0)
(169.68777 -8.9806641 0)
(170.69526 -8.174112 0)
(171.69329 -7.3590138 0)
(172.7847 -6.534161 0)
(174.09992 -5.5794369 0)
(175.66897 -4.2433889 0)
(177.40334 -2.2710695 0)
(179.20938 0.55478981 0)
(180.9818 4.3839032 0)
(181.85276 9.8089095 0)
(179.76271 16.862339 0)
(173.46065 22.979873 0)
(165.75255 23.70475 0)
(159.91101 21.848112 0)
(155.95671 18.888141 0)
(153.54747 15.950091 0)
(152.10298 13.345333 0)
(151.25308 11.142677 0)
(150.7533 9.3050605 0)
(150.45762 7.7676904 0)
(150.28054 6.4671708 0)
(150.17273 5.350147 0)
(150.10579 4.3740812 0)
(150.06337 3.5055399 0)
(150.03602 2.7181235 0)
(150.01828 1.9907854 0)
(150.00721 1.3060972 0)
(150.00155 0.64775147 0)
(154.37365 -3.2449383 0)
(154.3541 -3.2963992 0)
(154.34789 -3.3875136 0)
(154.34408 -3.5297002 0)
(154.34349 -3.7267749 0)
(154.34746 -3.9856388 0)
(154.35942 -4.3150837 0)
(154.38527 -4.7262148 0)
(154.43423 -5.2326001 0)
(154.52136 -5.8508493 0)
(154.67369 -6.6007928 0)
(154.93372 -7.4992472 0)
(155.35017 -8.5466517 0)
(155.98853 -9.7346402 0)
(157.01648 -11.064746 0)
(158.70405 -12.402602 0)
(161.06757 -13.23226 0)
(163.61897 -13.069346 0)
(165.79652 -12.111949 0)
(167.38295 -10.800084 0)
(168.52535 -9.5869072 0)
(169.49889 -8.5573696 0)
(170.44627 -7.6212787 0)
(171.40262 -6.6950582 0)
(172.49994 -5.8527448 0)
(173.97257 -5.0188787 0)
(175.90268 -3.8502221 0)
(178.18114 -2.0714999 0)
(180.64161 0.60069689 0)
(183.33539 4.0722193 0)
(185.56672 9.8860897 0)
(184.20373 19.160399 0)
(175.99438 28.876624 0)
(165.33292 28.739962 0)
(158.34934 25.438537 0)
(154.10337 21.037222 0)
(151.91252 17.167096 0)
(150.79342 14.013865 0)
(150.25449 11.503041 0)
(150.01114 9.4966482 0)
(149.91526 7.8678461 0)
(149.89049 6.5181831 0)
(149.89794 5.3750253 0)
(149.91795 4.3853314 0)
(149.94079 3.509937 0)
(149.96184 2.7193034 0)
(149.97905 1.9906699 0)
(149.9914 1.3056642 0)
(149.99813 0.64746561 0)
(153.47883 -3.3127841 0)
(153.38102 -3.3891508 0)
(153.31518 -3.5004684 0)
(153.2438 -3.6631873 0)
(153.16927 -3.8814215 0)
(153.09055 -4.1629309 0)
(153.00883 -4.5173682 0)
(152.92738 -4.9571347 0)
(152.8523 -5.4977733 0)
(152.79485 -6.1590415 0)
(152.77986 -6.9674866 0)
(152.85524 -7.9535346 0)
(153.07763 -9.1327352 0)
(153.50397 -10.509242 0)
(154.33681 -12.148957 0)
(156.06271 -14.029543 0)
(158.86696 -15.414595 0)
(161.95104 -15.320229 0)
(164.36849 -14.185949 0)
(165.81187 -12.647174 0)
(166.59512 -11.451373 0)
(167.23586 -10.607614 0)
(167.94457 -9.9277271 0)
(168.66522 -9.2310973 0)
(169.49982 -8.789446 0)
(170.86524 -8.6722047 0)
(172.93121 -8.1256337 0)
(175.58542 -6.91994 0)
(178.49499 -4.4011863 0)
(182.36248 -0.68090101 0)
(187.10852 7.2475188 0)
(188.21831 20.228197 0)
(177.92544 36.678949 0)
(163.25717 34.983993 0)
(155.60462 29.555972 0)
(151.35963 23.122521 0)
(149.74359 18.110957 0)
(149.19016 14.405129 0)
(149.10131 11.636434 0)
(149.18953 9.5156363 0)
(149.33256 7.8397892 0)
(149.4802 6.4743162 0)
(149.61317 5.3295085 0)
(149.72534 4.3442652 0)
(149.81604 3.475638 0)
(149.88675 2.6923597 0)
(149.93948 1.9709473 0)
(149.97548 1.2927901 0)
(149.99468 0.641109 0)
(150.30493 -3.1643848 0)
(150.06115 -3.2312987 0)
(149.89145 -3.316292 0)
(149.70492 -3.4466774 0)
(149.50647 -3.627787 0)
(149.29147 -3.8684302 0)
(149.05758 -4.1793127 0)
(148.8035 -4.5749554 0)
(148.52946 -5.0749515 0)
(148.23803 -5.706054 0)
(147.94279 -6.5082755 0)
(147.68588 -7.5401536 0)
(147.52292 -8.8564236 0)
(147.47027 -10.479407 0)
(147.70249 -12.522258 0)
(149.03852 -15.177378 0)
(152.13336 -17.457137 0)
(155.64886 -17.05367 0)
(157.98842 -15.036934 0)
(158.77193 -12.26279 0)
(158.62283 -10.281075 0)
(158.46844 -9.0088419 0)
(158.57338 -8.1560851 0)
(158.6409 -7.2159716 0)
(158.65066 -6.7139974 0)
(159.57157 -6.8221393 0)
(161.66664 -5.7691596 0)
(164.79544 -4.7101201 0)
(168.54289 -1.8596638 0)
(174.95055 4.2101197 0)
(183.96033 12.193329 0)
(189.60681 24.101975 0)
(176.91918 49.629504 0)
(157.56192 45.400091 0)
(150.92821 34.339186 0)
(147.4129 24.814412 0)
(146.96483 18.511107 0)
(147.32162 14.367865 0)
(147.83853 11.467789 0)
(148.32609 9.3262636 0)
(148.73619 7.6667811 0)
(149.06744 6.3278478 0)
(149.3299 5.2101369 0)
(149.53518 4.2494359 0)
(149.69349 3.4021331 0)
(149.81322 2.6371964 0)
(149.90081 1.9316774 0)
(149.95994 1.267562 0)
(149.99131 0.62873502 0)
(143.59661 -2.9879262 0)
(143.19132 -3.0853582 0)
(142.87752 -3.1910426 0)
(142.52516 -3.3453012 0)
(142.14631 -3.5532233 0)
(141.73192 -3.8249589 0)
(141.27403 -4.1726566 0)
(140.76335 -4.6131751 0)
(140.18941 -5.1697459 0)
(139.53894 -5.8737945 0)
(138.80175 -6.7712904 0)
(137.99959 -7.9348708 0)
(137.1914 -9.4419579 0)
(136.35794 -11.284068 0)
(135.55618 -13.506202 0)
(136.07046 -16.720314 0)
(139.83186 -20.312111 0)
(144.36697 -18.933968 0)
(146.79169 -15.875709 0)
(146.56892 -12.074858 0)
(144.79779 -10.704657 0)
(143.27988 -10.647855 0)
(142.48525 -10.884658 0)
(141.7083 -10.401972 0)
(140.63546 -9.9877209 0)
(141.45205 -10.351277 9.1888907e-18)
(142.74263 -11.612224 -2.6434717e-19)
(145.09516 -13.381862 0)
(146.25905 -7.416116 9.968067e-18)
(143.68528 -14.428373 -7.4772769e-18)
(161.31667 -10.091814 4.4199715e-18)
(180.29428 5.4496757 -9.8868671e-18)
(167.91357 72.326369 6.3369962e-18)
(142.1366 58.057551 0)
(140.686 37.150557 0)
(141.64463 24.730468 0)
(143.57844 17.852384 0)
(145.30383 13.71175 0)
(146.55865 10.929344 0)
(147.48012 8.9052684 0)
(148.16237 7.341732 0)
(148.67414 6.0774849 0)
(149.06143 5.017577 0)
(149.35549 4.102036 0)
(149.57789 3.290611 0)
(149.74392 2.5548119 0)
(149.86439 1.8736127 0)
(149.94531 1.2304778 0)
(149.98815 0.61059048 0)
(129.75505 -2.866418 0)
(128.95316 -2.9411315 0)
(128.33288 -3.0028956 0)
(127.64048 -3.1025823 0)
(126.89705 -3.2421419 0)
(126.08387 -3.428468 0)