/*--------------------------------*- C++ -*----------------------------------*\
| =========                 |                                                 |
| \\      /  F ield         | foam-extend: Open Source CFD                    |
|  \\    /   O peration     | Version:     4.1                                |
|   \\  /    A nd           | Web:         http://www.foam-extend.org         |
|    \\/     M anipulation  |                                                 |
\*---------------------------------------------------------------------------*/
FoamFile
{
    version     2.0;
    format      ascii;
    class       volScalarField;
    location    "1.7";
    object      p;
}
// * * * * * * * * * * * * * * * * * * * * * * * * * * * * * * * * * * * * * //

dimensions      [0 2 -2 0 0 0 0];

internalField   nonuniform List<scalar> 
4393
(
-46.418273
-92.981812
-146.7466
-201.53768
-258.52847
-318.02964
-380.42417
-446.02159
-515.04615
-587.60802
-663.67515
-743.04512
-825.31982
-909.88667
-995.91041
-1082.3385
-1167.9204
-1251.2387
-1330.7464
-1404.8061
-1471.7266
-1529.7974
-1577.324
-1612.6685
-1634.3034
-1640.8855
-1631.3607
-1605.1088
-1562.0232
-1502.6041
-1428.0626
-1340.3042
-1241.8235
-1135.5208
-1024.4767
-911.726
-800.06804
-691.93547
-589.32541
-493.78605
-406.44482
-328.0628
-259.10053
-199.78387
-150.17416
-110.24043
-79.76335
-57.832407
-43.62811
-45.166109
-92.395991
-146.03402
-200.67387
-257.49553
-316.84192
-379.10961
-444.62021
-513.60984
-586.2007
-662.37235
-741.93244
-824.48991
-909.43466
-995.92824
-1082.9091
-1169.113
-1253.1061
-1333.3246
-1408.1151
-1475.7718
-1534.5697
-1582.7974
-1618.7956
-1641.0076
-1648.057
-1638.854
-1612.7039
-1569.4362
-1509.5442
-1434.2449
-1345.4786
-1245.8056
-1138.2118
-1025.8681
-911.88888
-799.13381
-690.07212
-586.71539
-490.60841
-402.86294
-324.21748
-255.10995
-195.75337
-146.20061
-106.36033
-75.961691
-54.862756
-44.264585
-44.36187
-91.499238
-144.77574
-199.05481
-255.52565
-314.5608
-376.57894
-441.92399
-510.85518
-583.5184
-659.91606
-739.87544
-823.01882
-908.73994
-996.19242
-1084.2947
-1171.7533
-1257.0997
-1338.7354
-1414.9751
-1484.0844
-1544.3102
-1593.9092
-1631.1786
-1654.5014
-1662.4209
-1653.7592
-1627.7381
-1584.0957
-1523.2534
-1446.4222
-1355.612
-1253.5194
-1143.3092
-1028.3381
-911.88395
-796.92636
-686.00507
-581.15573
-483.9106
-395.34382
-316.14226
-246.68999
-187.1564
-137.55087
-97.688036
-67.257928
-46.703003
-37.920475
-43.571151
-90.203492
-142.87202
-196.57257
-252.49938
-311.05362
-372.68277
-437.76273
-506.58752
-579.33955
-656.05705
-736.59872
-820.60895
-907.489
-996.38132
-1086.1741
-1175.528
-1262.9214
-1346.7026
-1425.1388
-1496.4547
-1558.8584
-1610.5623
-1649.803
-1674.8751
-1684.1996
-1676.4524
-1650.7043
-1606.5451
-1544.2895
-1465.1356
-1371.1993
-1265.3941
-1151.1696
-1032.1789
-911.95614
-793.66721
-679.95756
-572.89557
-473.98969
-384.25283
-304.29111
-234.40482
-174.68811
-125.07534
-85.291505
-55.022317
-34.934367
-26.790243
-42.746017
-88.586071
-140.40163
-193.29787
-248.47665
-306.36999
-367.46085
-432.16662
-500.82794
-573.67711
-650.80216
-732.10635
-817.26636
-905.69541
-996.52124
-1088.5891
-1180.4947
-1270.6405
-1357.3007
-1438.6792
-1512.9483
-1578.2703
-1632.8045
-1674.7132
-1702.1783
-1713.459
-1707.0292
-1681.7392
-1636.9531
-1572.8178
-1490.4978
-1392.2538
-1281.3118
-1161.5349
-1037.0028
-911.61342
-788.78909
-671.31385
-561.29035
-460.18311
-368.91171
-287.96555
-217.52592
-157.57776
-107.95377
-68.296712
-38.299859
-18.6835
-10.927091
-41.737439
-86.536882
-137.25307
-189.114
-243.3304
-300.36945
-360.75691
-424.96194
-493.3848
-566.32291
-643.9307
-726.1723
-812.77023
-903.15685
-996.44223
-1091.4142
-1186.5794
-1280.2368
-1370.5626
-1455.6798
-1533.7004
-1602.737
-1660.8937
-1706.2493
-1736.8502
-1750.7507
-1746.1566
-1721.6153
-1676.1691
-1609.7099
-1523.3303
-1419.4774
-1301.809
-1174.766
-1043.0179
-910.95477
-782.3333
-660.10558
-546.40017
-442.60531
-349.5032
-267.41974
-196.37236
-136.1952
-86.586826
-47.090551
-17.368802
1.8952482
9.4340707
-40.595509
-84.127166
-133.49118
-184.07008
-237.08793
-293.05303
-352.54163
-416.08551
-484.15863
-557.14075
-635.27217
-718.59814
-806.90503
-899.65531
-995.93953
-1094.4705
-1193.6351
-1291.5941
-1386.3954
-1476.064
-1558.6464
-1632.2099
-1694.8103
-1744.4436
-1779.005
-1796.3014
-1794.1938
-1770.8251
-1724.7865
-1655.5863
-1564.1764
-1453.2323
-1326.9989
-1190.712
-1049.8415
-909.42606
-773.64359
-645.63672
-527.53723
-420.60881
-325.43863
-242.13267
-170.49427
-110.16506
-60.679925
-21.460795
7.9040134
26.82358
34.190844
-39.186007
-81.205546
-128.95644
-178.0016
-229.57703
-284.23734
-342.61691
-405.32135
-472.91374
-545.87576
-624.55666
-709.10813
-799.40453
-894.95492
-994.83044
-1097.6468
-1201.6306
-1304.7573
-1404.9089
-1499.9924
-1587.989
-1666.935
-1734.8568
-1789.6814
-1829.1469
-1850.7726
-1851.9889
-1830.4105
-1784.0055
-1711.7093
-1614.2143
-1494.4634
-1357.4975
-1209.6432
-1057.4496
-906.79894
-762.38325
-627.54434
-504.37062
-393.92814
-296.53043
-211.99159
-139.84092
-79.481458
-30.253273
8.5655677
37.490068
56.043704
63.248461
-37.653447
-77.930932
-123.79687
-171.03285
-220.89023
-273.97552
-330.98876
-392.62111
-459.54168
-532.35656
-611.55199
-697.41829
-789.95111
-888.73184
-992.81696
-1100.6983
-1210.3874
-1319.6103
-1426.0329
-1527.423
-1621.7034
-1706.9072
-1781.0687
-1842.0771
-1887.5232
-1914.6051
-1920.2265
-1901.3235
-1855.0122
-1779.3762
-1674.6457
-1544.0581
-1393.7395
-1231.5243
-1065.4181
-902.39135
-747.74715
-605.01092
-476.14662
-361.9167
-262.25666
-176.59951
-104.13053
-43.963299
4.7912564
43.023583
71.374692
89.494018
96.516831
-35.748814
-74.004823
-117.69207
-162.83153
-210.68185
-261.90424
-317.27076
-377.56964
-443.59413
-516.1004
-595.74481
-682.99671
-778.01794
-880.5011
-989.50002
-1103.349
-1219.7672
-1336.1398
-1449.8472
-1558.4922
-1659.957
-1752.3187
-1833.6805
-1901.9528
-1954.6113
-1988.5131
-1999.9354
-1984.9554
-1939.5404
-1860.5127
-1747.2975
-1603.422
-1436.5076
-1256.501
-1073.383
-895.51893
-728.91368
-577.21794
-442.13801
-323.98107
-222.16739
-135.63962
-63.159645
-3.4981586
44.496456
81.904288
109.5074
127.08881
133.89252
-33.798633
-69.806236
-111.02788
-153.76791
-199.29481
-248.32732
-301.71455
-360.35252
-425.17741
-497.12412
-577.05828
-665.67864
-763.37421
-870.00864
-984.66025
-1105.4662
-1229.7463
-1354.4138
-1476.4674
-1593.3173
-1702.8403
-1803.2314
-1892.7563
-1969.4402
-2030.7077
-2073.0756
-2092.1039
-2082.793
-2039.5858
-1957.4489
-1834.4244
-1674.2475
-1486.6345
-1284.5445
-1080.6577
-885.11621
-704.69079
-543.0276
-401.36519
-279.34235
-175.686
-88.716683
-16.683948
42.03937
88.898364
125.17868
151.81117
168.71709
175.24985
-31.322728
-64.74835
-103.16397
-143.1671
-186.01793
-232.49045
-283.51346
-340.10046
-403.35028
-474.40914
-554.39865
-644.30972
-744.84103
-856.1186
-977.29919
-1106.2778
-1239.8197
-1374.1695
-1505.8015
-1631.8966
-1750.3827
-1859.6802
-1958.3492
-2044.6714
-2116.1358
-2168.9574
-2197.92
-2196.691
-2157.7328
-2073.3256
-1939.1485
-1758.8898
-1545.2552
-1315.6019
-1086.3279
-869.81869
-673.60699
-501.08709
-352.70801
-227.1461
-122.2087
-35.439876
35.518189
92.742854
137.99728
172.78072
198.17293
214.23493
220.43246
-28.935352
-59.575012
-94.898065
-131.84687
-171.67524
-215.21022
-263.45972
-317.56073
-378.79209
-448.54485
-528.24829
-619.25856
-722.68951
-839.06436
-967.71684
-1106.2533
-1250.6596
-1396.2154
-1538.6636
-1674.9221
-1803.0779
-1921.9454
-2030.5695
-2127.7
-2211.0802
-2276.7107
-2318.5367
-2328.6707
-2297.0938
-2212.1924
-2065.6521
-1860.4854
-1613.7495
-1349.4071
-1089.0113
-847.73857
-633.73487
-449.70529
-294.82745
-166.41711
-61.08159
24.585838
93.645665
148.66919
191.75092
224.60048
248.43726
263.45891
269.2461
-25.834184
-53.293412
-85.133321
-118.63357
-155.00884
-195.12764
-240.07114
-291.10193
-349.69469
-417.52244
-496.38352
-588.08844
-694.30535
-816.16077
-953.35351
-1103.1788
-1260.522
-1419.2473
-1574.0534
-1721.5575
-1860.1747
-1989.3363
-2108.797
-2218.04
-2315.3462
-2396.6702
-2455.0971
-2481.0201
-2461.4978
-2379.4191
-2219.7583
-1983.4126
-1693.8849
-1385.4102
-1086.7047
-816.33273
-582.61628
-386.8335
-226.18378
-96.09597
8.3585055
91.72257
157.84457
209.816
250.05825
280.47294
302.39841
316.15948
321.45227
-22.988273
-47.105608
-75.194242
-104.93106
-137.49258
-173.78002
-214.93911
-262.35453
-317.70635
-382.98377
-460.41861
-552.37011
-661.2209
-788.98799
-936.05541
-1099.4242
-1272.3863
-1446.659
-1615.3977
-1774.8822
-1924.1582
-2063.6286
-2194.0748
-2316.1135
-2429.0549
-2529.1509
-2608.6687
-2656.1734
-2655.5156
-2582.0936
-2409.6777
-2133.8912
-1787.8784
-1422.533
-1076.4504
-772.13854
-517.10661
-310.00248
-145.03293
-15.064711
86.748797
166.26551
228.17986
276.09988
312.74378
340.16711
359.7927
372.05508
376.76292
-19.234004
-39.566129
-63.483978
-89.02867
-117.28552
-149.16098
-185.84182
-228.81608
-279.96339
-341.61497
-416.50494
-507.64538
-618.31833
-751.84292
-909.86991
-1089.2875
-1281.1052
-1473.7727
-1658.174
-1830.2918
-1990.374
-2140.3277
-2282.2799
-2418.3714
-2549.5399
-2672.7616
-2779.4824
-2856.4149
-2884.4364
-2829.5604
-2647.2462
-2321.0873
-1898.5227
-1458.8319
-1053.8858
-710.45814
-433.22547
-216.2971
-49.46707
77.789526
174.63807
248.39162
304.59727
347.33008
379.54021
403.375
420.29157
430.80744
434.8365
-15.90956
-32.367245
-51.889447
-72.946153
-96.528099
-123.52998
-155.16114
-192.99622
-239.1068
-296.19286
-367.57398
-457.0301
-568.92178
-708.39596
-879.34024
-1079.0098
-1295.0591
-1510.7437
-1713.4128
-1898.7626
-2069.1472
-2228.6987
-2381.1218
-2530.4775
-2680.3857
-2829.6039
-2969.1768
-3084.3381
-3154.099
-3134.0112
-2949.9602
-2559.1609
-2029.2979
-1490.9056
-1012.5347
-624.92473
-325.99172
-102.3635
62.502457
183.47649
272.40168
338.09591
386.87959
423.18026
450.07127
469.70175
483.4962
492.01867
495.27595
-11.483934
-23.591264
-38.294698
-54.438669
-72.848137
-94.363239
-120.16999
-151.87516
-191.68071
-242.61947
-308.63689
-394.36261
-505.33312
-649.1081
-833.41844
-1057.1181
-1303.0126
-1546.0299
-1768.1209
-1964.981
-2142.9743
-2309.8848
-2471.3081
-2633.6119
-2804.7355
-2986.7702
-3170.3481
-3338.4984
-3469.9068
-3511.2591
-3344.1368
-2870.7985
-2184.1433
-1512.8702
-942.74524
-506.96187
-189.2948
35.49849
192.78341
302.75045
380.12558
435.11284
474.59754
503.15998
523.83627
538.65817
548.93466
555.23078
557.6291
-7.5459553
-15.399267
-25.214372
-36.272643
-49.208318
-64.768123
-84.068992
-108.69892
-140.93297
-184.11087
-242.90334
-322.9825
-431.14915
-577.96565
-777.58727
-1033.2898
-1320.8803
-1601.2875
-1847.8979
-2056.6838
-2241.3072
-2415.2343
-2585.4242
-2759.525
-2951.4776
-3168.7938
-3401.8415
-3630.6653
-3839.9342
-3979.4507
-3868.022
-3294.1304
-2367.8699
-1515.4536
-830.29348
-345.15984
-15.872156
201.09499
342.92628
435.89021
497.45809
538.82653
567.05976
586.58902
600.19871
609.6572
616.06247
619.92832
621.39192
-2.4940626
-5.6554241
-10.105322
-15.573862
-22.445034
-31.34244
-43.273922
-59.749456
-83.013089
-116.56761
-165.75621
-237.36429
-339.18041
-484.64168
-697.71903
-992.0395
-1333.7673
-1659.6115
-1930.1031
-2142.1467
-2323.12
-2495.6059
-2666.793
-2843.1723
-3048.9949
-3303.174
-3599.0877
-3914.1977
-4241.4072
-4553.2176
-4583.0235
-3903.4785
-2589.3113
-1483.2204
-653.43105
-124.34847
202.50722
397.84702
513.68335
582.39873
623.43312
648.17721
663.2684
672.57986
678.38225
682.01625
684.26783
685.54467
686.01523
2.9587827
3.9729727
4.5462325
4.3727309
3.3872816
1.1546166
-3.1202262
-10.724113
-23.6524
-45.261246
-81.374448
-140.13093
-230.27342
-367.38841
-589.87769
-934.91051
-1357.8538
-1750.6934
-2054.8901
-2266.9252
-2439.8808
-2611.5591
-2788.5989
-2969.4139
-3193.9263
-3500.0128
-3883.2974
-4313.0923
-4763.9034
-5291.5203
-5573.8104
-4825.3578
-2837.3021
-1376.242
-376.92589
174.90833
474.14901
627.8343
704.33997
740.62118
756.28024
761.57909
761.89109
760.03419
757.47727
754.9672
752.88219
751.47247
750.91495
8.2851083
13.265311
19.323507
25.157945
31.020621
36.677841
41.595088
44.763059
44.510392
37.799806
18.452088
-23.5392
-98.146775
-220.10642
-443.94197
-853.46422
-1397.2821
-1876.4149
-2210.7431
-2392.8796
-2530.4287
-2685.6837
-2862.7829
-3027.8152
-3238.6403
-3573.5318
-4023.714
-4561.7462
-5089.7119
-5960.3611
-6823.7182
-6299.5146
-3074.013
-1170.9516
36.506606
572.65482
805.01195
890.17355
911.79901
907.31713
893.25916
876.87527
861.26368
847.66112
836.46168
827.67539
821.19672
817.07813
815.48581
17.841138
25.859697
36.761731
47.719736
59.416621
71.801364
84.631529
97.258476
108.5223
116.23579
114.9665
93.715369
41.620013
-49.538309
-244.67533
-715.15123
-1441.8801
-2033.6101
-2413.3732
-2545.7125
-2643.0184
-2787.1993
-2982.1463
-3113.68
-3276.6776
-3677.699
-4224.3716
-4961.7035
-5679.3057
-7242.8541
-8882.0927
-9068.3529
-3578.1299
-1038.2195
635.19313
1099.092
1197.3509
1178.9794
1129.5273
1077.2884
1030.5875
991.36654
959.44114
934.02431
914.23851
899.26855
888.48473
881.72021
879.11824
22.15058
30.895241
46.136742
62.238228
80.17155
100.10829
122.29214
146.74786
173.26292
201.23849
227.41508
240.7146
225.96325
180.34563
45.40885
-483.2842
-1555.1588
-2311.4994
-2773.6626
-2771.0092
-2749.666
-2813.1454
-3022.6412
-3099.906
-3207.1639
-3763.2636
-4232.9948
-5185.2221
-6470.8433
-7863.4478
-9589.1443
-12103.54
-4823.2659
-72.51506
1722.8306
1811.9826
1641.1421
1478.7601
1346.2295
1243.2033
1163.5571
1101.9565
1054.3113
1017.6217
989.69032
968.87436
954.02877
944.77057
941.21728
36.937087
46.533239
66.460104
87.314016
110.74808
137.07743
166.90661
200.72087
238.86213
281.66269
327.57464
365.355
371.82659
347.26637
293.74188
-191.10928
-1818.0783
-2617.1353
-3115.4965
-2772.7581
-2626.8086
-2732.5432
-3131.7562
-3271.1278
-3302.4341
0
0
0
0
0
0
0
0
6202.3751
3402.4561
2582.4953
2068.2384
1755.8594
1545.1252
1396.0883
1287.0013
1205.4549
1143.7777
1096.995
1061.7468
1035.664
1017.1504
1005.6368
1001.2224
35.366747
42.182742
64.028416
87.07509
113.20493
142.73974
176.57932
215.67663
261.07483
314.42463
377.59022
445.98936
502.79964
560.82593
710.68119
552.80472
-1996.7854
-2776.9629
-3646.9058
-2968.6378
-3044.3365
-3012.3249
0
0
0
0
0
0
0
0
0
0
10129.574
6286.2536
4123.9547
3000.3242
2361.3128
1969.178
1709.0491
1527.5631
1396.2858
1299.0426
1225.9923
1170.8553
1129.4569
1098.8966
1077.2396
1063.7839
1058.6264
44.263796
54.950259
80.950054
106.9776
136.15441
169.03604
206.87574
251.10422
303.5062
367.08046
447.11664
546.08856
653.28882
754.39137
842.19631
568.47358
-3108.2259
-3581.5993
-3205.2814
0
0
0
0
0
0
0
0
0
0
0
1780.6716
3364.5942
5756.1163
5236.0895
3961.3822
3100.1683
2507.1429
2107.74
1830.6542
1632.992
1488.4297
1380.7308
1299.5696
1238.1935
1192.0513
1157.9575
1133.7806
1118.7535
1112.9924
22.191612
42.166345
66.37103
91.284942
118.75242
149.5473
184.74329
225.50537
273.13249
329.82985
399.49995
478.0273
537.53027
536.24778
558.10734
702.38691
0
0
0
0
0
0
-1132.0677
-1103.5234
-1011.3057
-917.55633
-790.08519
-495.29901
-94.947423
697.08371
2026.4396
3361.9104
4750.9872
4489.8575
3714.802
3058.6865
2552.6654
2182.2202
1911.4455
1711.6614
1562.3546
1449.5319
1363.6923
1298.3449
1248.9833
1212.3853
1186.3703
1170.1778
1163.9661
19.953999
50.022195
74.970509
100.54384
127.96161
158.05678
191.47967
228.66494
269.57202
313.41803
357.89981
396.56235
406.14915
338.09197
142.01818
-338.1348
-1284.4156
-1227.4738
-1147.1011
-1100.478
-1051.081
-1021.6126
-1010.364
-803.2892
-838.68219
-583.18177
-362.34512
-204.61744
259.08269
904.85444
1960.2925
3049.3232
3956.5653
3851.8965
3404.2979
2933.597
2528.4616
2206.0155
1956.7039
1765.4223
1618.5287
1505.3808
1418.1053
1351.0012
1299.9422
1261.8832
1234.7283
1217.7884
1211.2838
20.663331
46.485429
72.120286
97.971806
125.28641
154.81517
187.13916
222.625
261.25918
302.13424
342.03518
373.7358
384.81895
353.15868
205.21627
-227.92148
-792.3041
-920.95827
-962.54754
-966.1504
-887.80256
-842.32008
-818.54935
-691.80004
-620.94368
-417.54037
-179.14338
77.742821
510.88683
1096.4661
1896.1867
2721.5881
3334.8854
3356.8266
3105.6567
2777.143
2463.3573
2193.81
1973.5973
1797.6785
1658.5137
1548.943
1463.0387
1396.1803
1344.8434
1306.3176
1278.6978
1261.4184
1254.7756
14.996595
36.23061
58.797008
81.291039
104.29084
128.0355
152.53049
177.41598
201.79004
223.68926
238.89702
240.18129
218.24918
159.21477
15.075562
-283.91149
-606.90246
-732.46401
-784.518
-794.28606
-753.12495
-703.47395
-642.23484
-537.76205
-423.88636
-238.24317
-11.498633
269.88374
668.60835
1187.7221
1823.2422
2450.8963
2889.5204
2967.0585
2834.972
2613.001
2376.1814
2157.6761
1969.1883
1812.3855
1684.4721
1581.3761
1499.0909
1434.1696
1383.7999
1345.7038
1318.2393
1300.9994
1294.3626
23.838372
46.444904
70.18989
93.656171
117.54424
141.96101
166.72599
191.21051
214.09582
232.81525
242.6845
236.67015
205.98899
135.3979
-7.25897
-236.55056
-460.15416
-579.80527
-635.38278
-644.54056
-615.83436
-568.29253
-497.28093
-394.45992
-264.34908
-82.932904
139.16097
416.1134
777.02652
1223.772
1735.5101
2221.7453
2557.2299
2658.5601
2599.6226
2454.8462
2280.1778
2107.1227
1949.7496
1813.4689
1698.7941
1604.1108
1527.1061
1465.4575
1417.085
1380.1845
1353.4178
1336.5533
1330.0511
12.024209
29.927715
50.032208
70.035766
90.041044
109.92727
129.3862
147.74698
163.76085
175.18285
178.31585
168.06176
137.63878
74.654614
-40.054804
-203.5073
-358.80675
-456.74709
-506.07867
-514.23332
-488.92986
-440.00544
-365.68915
-262.6008
-128.53852
46.964172
261.85444
525.1909
849.67423
1232.3373
1648.6362
2032.8056
2301.9487
2411.5831
2398.1276
2308.5354
2183.1594
2048.9509
1920.3867
1804.4653
1703.831
1618.675
1548.064
1490.6661
1445.0903
1410.005
1384.3868
1368.1813
1361.9232
21.407266
40.632436
60.854109
80.367746
99.453613
117.84349
135.02369
150.10178
161.62906
167.32378
163.94558
147.54874
113.0813
52.273892
-43.556645
-165.61499
-279.00301
-356.12443
-395.68972
-400.45647
-375.18726
-324.72546
-248.67398
-145.28266
-11.774196
156.79241
361.05907
606.02189
895.9517
1224.4159
1567.8663
1878.5075
2101.997
2212.1874
2227.1465
2176.7606
2089.8436
1988.0676
1885.0998
1788.3897
1701.7411
1626.5696
1562.9907
1510.4909
1468.2865
1435.4858
1411.3698
1396.0507
1390.1248
11.864143
27.968661
45.959764
63.611641
80.820544
97.231965
112.31671
125.22212
134.61722
138.50978
134.225
118.55926
87.502496
35.679904
-40.001993
-130.43146
-213.52449
-271.83042
-300.84878
-300.62629
-273.46188
-221.63377
-145.03187
-42.5111
87.994203
248.90858
441.01367
666.30038
924.57408
1207.7343
1495.1768
1752.1622
1942.6281
2049.7638
2082.4752
2059.9381
2002.6781
1927.6335
1846.8493
1767.6915
1694.4092
1629.1882
1572.8938
1525.6523
1487.1884
1456.9987
1434.643
1420.3805
1414.8537
17.14036
33.237325
50.220015
66.36479
81.714345
95.886758
108.3293
118.22221
124.38336
125.18573
118.6124
102.36261
73.691241
29.625654
-29.988628
-97.381896
-158.13622
-200.46187
-219.38469
-213.53423
-183.55761
-130.3431
-53.764258
46.960338
173.10552
325.77658
505.1749
711.24629
941.41822
1187.1581
1431.2312
1648.3113
1813.9321
1916.4938
1960.2186
1957.4978
1922.961
1869.6951
1807.8366
1744.3104
1683.4265
1627.775
1578.719
1536.8592
1502.3256
1474.9437
1454.5174
1441.4277
1436.3463
11.965877
26.365721
42.104202
57.216617
71.535776
84.633776
95.95554
104.72786
109.89852
110.11359
103.80215
89.27682
64.758468
28.907534
-17.019419
-66.703429
-110.24982
-139.22862
-148.99432
-137.55115
-104.5477
-50.079515
26.067988
124.39884
245.54586
389.78543
556.64726
744.78757
950.46861
1165.4733
1375.7034
1562.5375
1708.9272
1806.4498
1856.889
1868.299
1851.131
1815.4434
1769.5685
1719.7247
1670.0958
1623.4068
1581.3248
1544.783
1514.2209
1489.7314
1471.3238
1459.4741
1454.8658
13.672522
27.359585
41.871676
55.550772
68.315744
79.771211
89.415481
96.581196
100.40725
99.849066
93.763712
81.007334
60.559724
32.098648
-2.5891846
-38.476371
-68.501477
-86.407462
-88.109843
-71.431096
-35.489478
20.054131
95.479414
191.0738
307.00127
442.97349
597.96294
769.86566
954.48566
1144.3018
1327.8969
1491.4045
1622.6061
1715.1566
1769.5576
1791.0636
1787.1664
1765.5771
1733.0732
1695.0579
1655.4634
1616.9944
1581.4709
1550.0421
1523.3733
1501.7673
1485.3999
1474.815
1470.6912
11.353749
24.027842
37.64513
50.500578
62.432392
73.04681
81.880078
88.352074
91.760768
91.312746
86.20621
75.732879
59.446182
37.651236
12.276224
-12.652194
-31.896679
-40.644949
-35.404905
-14.037709
24.575555
80.988425
155.49851
248.21856
358.97847
487.10016
631.16253
788.66197
955.34892
1124.5373
1286.9998
1432.2481
1551.2803
1639.1809
1695.7796
1724.5052
1730.75
1720.4242
1699.0133
1671.1268
1640.3514
1609.2936
1579.8155
1553.1932
1530.2478
1511.4413
1497.0798
1487.7492
1484.1076
11.407416
23.296005
35.923482
47.754356
58.666204
68.305046
76.268491
82.07677
85.182632
85.010466
81.033369
72.876477
60.489247
44.522226
26.847424
10.721318
0.16263411
-1.0281383
10.105539
35.554042
76.498858
133.57356
207.05508
296.91483
402.7467
523.60909
657.83534
802.75902
954.29707
1106.6005
1252.1843
1382.9754
1492.1644
1575.8546
1633.5313
1667.4213
1681.4223
1680.072
1667.8002
1648.5063
1625.3921
1600.9184
1576.9177
1554.7269
1535.2678
1519.1186
1506.6845
1498.5703
1495.3985
10.3437
21.51522
33.418484
44.560546
54.805676
63.829441
71.285756
76.787058
79.922907
80.301725
77.620723
71.762812
62.951223
52.01967
40.711897
31.704982
28.182224
33.206583
49.281412
78.204499
121.12222
178.66796
251.07263
338.19327
439.45898
553.75811
679.29311
813.38246
952.21534
1090.7114
1222.7513
1342.0031
1443.185
1523.1434
1581.1971
1618.7738
1638.7037
1644.4828
1639.6903
1627.6166
1611.0827
1592.3712
1573.2514
1555.0721
1538.8129
1525.1349
1514.5164
1507.5609
1504.8393
9.9406097
20.476368
31.670312
42.130018
51.740069
60.21331
67.259727
72.575201
75.86531
76.886793
75.510503
71.807593
66.178433
59.538362
53.481662
50.250172
52.431963
62.544183
82.715355
114.54307
159.08963
216.94404
288.27815
372.85685
469.99606
578.48216
696.46768
821.34171
949.60207
1076.8385
1197.9926
1307.9982
1402.6584
1479.3699
1537.3814
1577.5851
1602.0457
1613.4716
1614.7641
1608.7016
1597.7596
1584.0283
1569.1942
1554.5865
1541.2123
1529.7896
1520.8525
1514.9872
1512.6934
9.3564918
19.364692
30.008325
39.956334
49.101872
57.19186
63.988287
69.261524
72.815999
74.529353
74.40808
72.661296
69.801811
66.769871
65.018203
66.459754
73.249678
87.495699
111.02132
145.23587
191.09843
249.13293
319.44855
401.73661
495.23708
598.68207
710.22643
827.37305
946.9237
1065.0319
1177.4571
1280.0603
1369.4252
1443.36
1501.0941
1543.1582
1571.0666
1586.9345
1593.1293
1592.0068
1585.7416
1576.2383
1565.0919
1553.5959
1542.7635
1533.3523
1525.9435
1521.0959
1519.2104
8.9349294
18.485946
28.650084
38.160472
46.922835
54.715677
61.346559
66.648568
70.50636
72.892331
73.91527
73.881856
73.373047
73.323812
75.062261
80.252217
90.730084
108.29464
134.52481
170.66352
217.56529
275.68328
345.06672
425.34908
515.72092
614.89171
721.04864
831.82326
944.29371
1055.0745
1160.5505
1257.264
1342.365
1413.9706
1471.3163
1514.6884
1545.2057
1564.5396
1574.6426
1577.529
1575.12
1569.1526
1561.1297
1552.3025
1543.6751
1536.0296
1529.9955
1526.1074
1524.6261
8.5490943
17.743446
27.539683
36.720613
45.20114
52.788116
59.328787
64.708714
68.877139
71.880017
73.902302
75.31843
76.748861
79.109799
83.625744
91.773114
105.15339
125.33325
153.69939
191.35478
239.05864
297.19704
365.76616
444.35499
532.12325
627.77712
729.54967
835.19745
942.03521
1047.0435
1147.0791
1239.1826
1320.9147
1390.6224
1447.5582
1491.8425
1524.3118
1546.3085
1559.468
1565.5344
1566.222
1563.1244
1557.6591
1551.0352
1544.2388
1538.0664
1533.2129
1530.2279
1529.1731
8.1798011
17.102088
26.616384
35.549382
43.82169
51.264871
57.75895
63.231162
67.680423
71.20764
74.052714
76.635931
79.599564
83.837554
90.492515
100.90248
116.49805
138.67462
168.67223
207.48195
255.78282
313.90307
381.79486
459.01402
544.70182
637.57107
735.90255
837.56219
940.05594
1040.6445
1136.5325
1225.1188
1304.2583
1372.4659
1429.0138
1473.912
1507.7982
1531.7772
1547.2489
1555.7519
1558.8386
1557.9874
1554.5457
1549.6888
1544.386
1539.4366
1535.6168
1533.5682
1533.0776
7.8074717
16.603266
25.940283
34.712478
42.846987
50.199342
56.676584
62.238019
66.919299
70.860839
74.340619
77.808738
81.918391
87.542487
95.761791
107.81615
125.0175
148.64082
179.82028
219.4635
268.1877
326.27585
393.64657
469.83231
553.96409
644.76493
740.55741
839.29435
938.62559
1036.0147
1128.9109
1214.9612
1292.2229
1359.3286
1415.5683
1460.88
1495.7668
1521.1688
1538.3192
1548.6077
1553.468
1554.2918
1552.3721
1548.8588
1544.7053
1540.6821
1537.6139
1536.3935
1536.6787
7.3041666
16.167698
25.424181
34.111398
42.165201
49.465578
55.940352
61.571001
66.417279
70.644644
74.554408
78.613746
83.480088
90.010606
99.246163
112.36664
130.6104
155.17379
187.1207
227.3033
276.29699
334.35391
401.37016
476.8633
559.95902
649.38926
743.50675
840.32383
937.58584
1032.8878
1123.8345
1208.2291
1284.2562
1350.6233
1406.6334
1452.1813
1487.6869
1513.986
1532.2047
1543.6366
1549.637
1551.5381
1550.5925
1547.9359
1544.5154
1541.047
1538.3505
1537.9198
1540.113
6.0814662
15.835481
25.143179
33.82281
41.845926
49.124549
55.60072
61.268115
66.198795
70.570746
74.697027
79.053562
84.300653
91.290303
101.04816
114.71794
133.49035
158.52486
190.85544
231.30738
280.43519
338.47534
405.31245
480.45652
563.03068
651.77174
745.04812
840.90274
937.12926
1031.3884
1121.3624
1204.9312
1280.3423
1346.3405
1402.2363
1447.9043
1483.7237
1510.4797
1529.2464
1541.2702
1547.8633
1550.327
1549.902
1547.7273
1544.7602
1541.6759
1539.2602
1539.7832
1545.6254
-2227.7586
-2483.6251
-2699.5392
-2881.484
-3023.9678
-3106.215
-3108.2259
-3029.2216
-2857.2788
-2664.0035
-3205.3894
-3205.2814
-3198.4359
-3187.449
-3173.3348
-3160.582
-3148.7462
-3158.2129
-3158.815
-3131.4106
-3183.0317
-3181.9072
-3167.1529
-3150.1897
-3133.2745
-3124.2837
-3105.9911
-3113.2082
-3100.0766
-3046.5504
-3137.8423
-3135.1802
-3126.577
-3117.8813
-3109.0877
-3112.0999
-3101.0043
-3098.9717
-3085.5704
-3048.7085
-3078.1501
-3076.7156
-3072.17
-3066.2527
-3057.7471
-3058.1471
-3057.8128
-3057.1427
-3055.6642
-3059.401
-3030.1694
-3029.3771
-3023.6163
-3013.4551
-2998.2002
-2968.6378
-2990.8019
-3003.1027
-3009.7483
-3023.0971
-3013.4132
-3015.1073
-3018.359
-3021.7462
-3032.6629
-3008.537
-3008.215
-3004.5877
-2989.6696
-2966.6815
-3027.9235
-3029.5543
-3035.6401
-3044.3365
-3068.3865
-3076.103
-3056.7218
-3030.7043
-3000.8675
-2965.4636
-3848.4529
-3860.7652
-3831.7264
-3787.3168
-3749.757
-3717.6919
-3696.1886
-3682.4624
-3673.5225
-3675.2646
-2986.9818
-2985.7896
-2977.9087
-2960.9536
-2921.5854
-2946.9464
-2958.9512
-2961.1439
-2950.658
-2923.5511
-3009.2484
-3012.3249
-3018.6882
-3037.9315
-3013.9714
-3005.251
-3001.2993
-2993.8837
-2979.8936
-2964.7519
-3048.507
-3050.9596
-3056.1375
-3080.7267
-3093.4964
-3069.4242
-3042.6922
-3022.4076
-3003.5388
-2987.053
-2999.6598
-2995.8311
-2976.9423
-2951.6614
-2974.5983
-2992.0793
-3003.3184
-3010.7383
-3013.0014
-3020.0188
-3033.2655
-3035.7259
-3034.8623
-2997.9712
-3007.1045
-3020.7173
-3031.5175
-3038.7506
-3041.8
-3051.3647
-3156.8905
-3164.6845
-3188.9178
-3187.447
-3159.5472
-3131.7562
-3111.0627
-3095.6698
-3080.2524
-3063.0196
-3141.9783
-3137.1436
-3129.66
-3149.8311
-3150.425
-3144.6322
-3138.4097
-3132.9746
-3126.9766
-3128.8789
-3162.7558
-3162.0352
-3137.7508
-3147.9049
-3159.3505
-3167.4866
-3171.9067
-3173.7105
-3173.001
-3177.7024
-3277.1165
-3289.5198
-3285.4691
-3271.1278
-3255.8061
-3243.7652
-3235.0337
-3229.24
-3222.4247
-3213.8643
-3282.4891
-3286.5606
-3294.0152
-3285.9373
-3276.2942
-3270.7942
-3270.5591
-3275.0002
-3280.0409
-3292.3433
-3186.3251
-3172.215
-3189.5515
-3215.4284
-3244.9017
-3273.5987
-3300.5726
-3325.1454
-3345.2983
-3370.2635
-3326.0532
-3302.4341
-3312.0416
-3332.3492
-3359.1126
-3384.3605
-3406.826
-3425.2573
-3437.7757
-3453.4906
-3701.675
-3692.6556
-3661.9568
-3627.8858
-3602.8069
-3583.3217
-3571.2316
-3564.0737
-3557.9587
-3555.0927
-3016.679
-3015.1534
-3009.7383
-2998.12
-2992.634
-2999.8928
-2999.53
-2994.1794
-2984.9472
-2983.9235
-3540.5386
-3549.1354
-3563.5697
-3610.8536
-3667.0292
-3718.8607
-3739.943
-3721.8039
-3638.1032
-3466.2536
-3268.7591
-3268.9939
-3271.9434
-3276.8114
-3277.9222
-3277.0261
-3275.0648
-3269.9202
-3265.7625
-3219.2853
-3179.5263
-3227.5523
-3289.6669
-3394.37
-3505.6955
-3592.5212
-3635.0769
-3595.2075
-3447.0642
-3214.6353
-3480.2775
-3490.321
-3511.2518
-3547.951
-3581.5993
-3610.2589
-3618.8299
-3618.3252
-3582.5471
-3470.1579
-3367.3459
-3371.7358
-3385.9154
-3409.8736
-3430.8345
-3448.4904
-3456.616
-3446.1971
-3433.5793
-3381.8278
11318.722
10715.546
10129.574
9489.939
8832.8459
8179.5389
7545.1801
6936.7836
6347.3439
5770.3039
8301.8482
8224.5313
8101.2594
7839.6073
7501.719
7111.2847
6689.6063
6254.566
5816.3988
5360.0009
-3709.5009
-3727.9365
-3745.3442
-3751.3106
-3759.9993
-3763.2636
-3768.0591
-3771.4949
-3772.8201
-3776.3117
-3705.8521
-3709.7033
-3745.0496
-3776.2803
-3815.3393
-3842.511
-3866.4373
-3882.4673
-3891.1148
-3895.3027
-3946.5156
-3939.2802
-3955.509
-3963.0861
-3991.466
-4009.8457
-4029.6727
-4042.6489
-4048.0683
-4043.6184
-4222.4233
-4212.0683
-4226.3372
-4216.9236
-4232.9948
-4234.8767
-4241.3994
-4242.448
-4238.8759
-4234.5148
-4544.8768
-4526.7371
-4538.4823
-4511.4471
-4515.2329
-4497.386
-4484.9279
-4464.9009
-4437.2334
-4404.8727
-4901.1056
-4873.8834
-4883.4905
-4837.0692
-4828.6373
-4790.1483
-4757.3174
-4713.8953
-4659.2258
-4599.0148
-5281.8497
-5243.3993
-5252.0394
-5185.2221
-5165.672
-5107.5833
-5056.1879
-4992.7189
-4916.4636
-4831.1516
-5682.8603
-5630.7852
-5639.6099
-5550.5888
-5519.7719
-5441.5439
-5370.8776
-5288.4427
-5198.4687
-5115.9183
-6105.0441
-6035.9216
-6045.7707
-5931.7764
-5888.3057
-5787.8969
-5693.5294
-5583.5009
-5458.1877
-5322.5873
-6548.5004
-6458.4126
-6470.8433
-6329.1984
-6271.9442
-6149.0595
-6030.8965
-5896.7844
-5747.1783
-5585.4189
-7019.3415
-6902.2105
-6917.9745
-6744.4918
-6670.3455
-6522.7546
-6376.8533
-6214.6284
-6036.1369
-5850.2664
-7516.4403
-7366.2089
-7388.3264
-7179.887
-7085.724
-6911.6635
-6733.8686
-6537.7862
-6319.165
-6081.8849
-8058.1148
-7863.4478
-7892.3977
-7643.1907