/*--------------------------------*- C++ -*----------------------------------*\
| =========                 |                                                 |
| \\      /  F ield         | foam-extend: Open Source CFD                    |
|  \\    /   O peration     | Version:     4.1                                |
|   \\  /    A nd           | Web:         http://www.foam-extend.org         |
|    \\/     M anipulation  |                                                 |
\*---------------------------------------------------------------------------*/
FoamFile
{
    version     2.0;
    format      ascii;
    class       surfaceScalarField;
    location    "1.7";
    object      phi;
}
// * * * * * * * * * * * * * * * * * * * * * * * * * * * * * * * * * * * * * //

dimensions      [0 3 -1 0 0 0 0];

internalField   nonuniform List<scalar> 
8438
(
-0.59743948
0.0016736068
-0.59917839
0.0017389125
-0.60095223
0.0017738345
-0.60276999
0.0018177609
-0.60464143
0.0018714463
-0.606577
0.0019355672
-0.60858609
0.0020090924
-0.61067632
0.0020902304
-0.61285281
0.0021764831
-0.61511746
0.0022646583
-0.61746833
0.0023508664
-0.61989889
0.0024305546
-0.6223975
0.0024986109
-0.62494705
0.0025495553
-0.62752487
0.002577817
-0.63010297
0.0025780981
-0.63264864
0.0025456735
-0.63512533
0.0024766906
-0.63749363
0.0023682989
-0.63971227
0.002218641
-0.64173905
0.0020267781
-0.64353164
0.0017925962
-0.64504843
0.0015167894
-0.64624941
0.001200979
-0.64709744
0.00084802675
-0.64755999
0.00046254981
-0.64761129
5.1303387e-05
-0.64723397
-0.00037732275
-0.64642303
-0.00081093902
-0.64518995
-0.0012330765
-0.64356363
-0.0016263273
-0.64159011
-0.0019735223
-0.63933046
-0.0022596422
-0.63685674
-0.0024737194
-0.63424669
-0.0026100504
-0.63157826
-0.0026684376
-0.62892473
-0.0026535301
-0.62635115
-0.0025735767
-0.62391219
-0.0024389559
-0.6216514
-0.0022607963
-0.61960152
-0.0020498778
-0.61778564
-0.0018158772
-0.61621871
-0.0015669345
-0.61490914
-0.001309563
-0.61386002
-0.0010491201
-0.61306955
-0.00079047377
-0.61253403
-0.0005355215
-0.6122586
-0.00027542644
-1.3651926e-05
-0.61123168
0.003139402
-0.61269087
0.003198101
-0.61417722
0.0032601879
-0.61570401
0.0033445427
-0.61728367
0.0034511063
-0.61892741
0.0035793114
-0.62064509
0.0037267693
-0.62244466
0.003889803
-0.62433158
0.0040634055
-0.62630812
0.0042411921
-0.62837262
0.0044153676
-0.63051884
0.0045767823
-0.63273536
0.00471513
-0.63500514
0.0048193302
-0.63730542
0.004878095
-0.63960799
0.0048806761
-0.64187982
0.0048174991
-0.64408391
0.0046807821
-0.64618041
0.0044647996
-0.64812762
0.0041658513
-0.64988292
0.0037820803
-0.65140358
0.0033132557
-0.65264751
0.0027607118
-0.65357411
0.0021275819
-0.6541455
0.0014194159
-0.65432813
0.00064518648
-0.65409532
-0.00018151581
-0.6534312
-0.0010414389
-0.65233266
-0.0019094834
-0.65081061
-0.0027551213
-0.64889312
-0.0035438144
-0.64662593
-0.0042407108
-0.64407045
-0.0048151227
-0.64129955
-0.0052446255
-0.63839198
-0.0055176178
-0.63542661
-0.0056338034
-0.63247737
-0.0056027793
-0.62960953
-0.0054414161
-0.62687767
-0.0051708124
-0.624325
-0.0048134694
-0.62198381
-0.004391065
-0.61987674
-0.0039229484
-0.61801836
-0.0034253106
-0.61641688
-0.0029110457
-0.6150756
-0.0023903964
-0.61399478
-0.0018712942
-0.61317391
-0.0013563889
-0.61260473
-0.00084461094
-0.00037358179
-0.61227723
0.0045550613
-0.61369116
0.0046120374
-0.61512994
0.0046989658
-0.61660852
0.0048231193
-0.61814019
0.004982781
-0.61973677
0.0051758881
-0.62140858
0.0053985827
-0.6231641
0.0056453161
-0.62500932
0.005908632
-0.62694714
0.0061790134
-0.62897657
0.0064447897
-0.63109197
0.0066921889
-0.63328246
0.0069056135
-0.63553133
0.0070682096
-0.63781598
0.0071627405
-0.64010807
0.0071727639
-0.64237423
0.0070836569
-0.64457704
0.0068835976
-0.64667621
0.0065639701
-0.64862963
0.0061192738
-0.65039433
0.0055467723
-0.65192715
0.0048460789
-0.65318544
0.0040190007
-0.65412772
0.0030698591
-0.65471473
0.0020064292
-0.65491107
0.00084152977
-0.6546876
-0.00040498644
-0.65402425
-0.0017047871
-0.65291358
-0.0030201583
-0.65136452
-0.0043041787
-0.64940498
-0.0055033507
-0.64708243
-0.0065632695
-0.64446168
-0.0074358664
-0.64162017
-0.0080861408
-0.63864147
-0.0084963145
-0.63560876
-0.0086665103
-0.63259921
-0.0086123329
-0.62968007
-0.008360554
-0.62690667
-0.0079442143
-0.62432196
-0.0073981769
-0.62195733
-0.0067556999
-0.61983409
-0.0060461847
-0.61796538
-0.0052940188
-0.616358
-0.0045184248
-0.61501433
-0.0037340679
-0.61393452
-0.0029511063
-0.61311684
-0.002174071
-0.61255277
-0.0014086742
-0.00068140666
-0.61263408
0.0059413362
-0.61402765
0.0060056058
-0.61544671
0.0061180209
-0.6169062
0.0062826146
-0.6184199
0.0064964853
-0.62000033
0.0067563094
-0.62165857
0.0070568274
-0.62340395
0.0073906923
-0.62524338
0.0077480671
-0.62718071
0.0081163392
-0.62921585
0.0084799348
-0.631344
0.0088203359
-0.63355479
0.0091164085
-0.63583174
0.0093451536
-0.63815192
0.0094829215
-0.64048625
0.0095070975
-0.64280022
0.0093976233
-0.64505505
0.0091384241
-0.64720905
0.0087179715
-0.64921885
0.0081290738
-0.65104032
0.0073682443
-0.65262921
0.0064349734
-0.65394159
0.0053313799
-0.6549343
0.0040625706
-0.65556579
0.0026379181
-0.65579759
0.001073324
-0.65559672
-0.00060585411
-0.65493907
-0.0023624376
-0.65381347
-0.0041457528
-0.65222632
-0.0058913337
-0.6502052
-0.007524475
-0.64780017
-0.008968293
-0.64508149
-0.01015455
-0.64213378
-0.011033849
-0.63904828
-0.011581811
-0.63591493
-0.011799861
-0.63281591
-0.011711352
-0.62982145
-0.011355014
-0.62698791
-0.010777757
-0.62435776
-0.010028331
-0.62196086
-0.0091526004
-0.61981646
-0.0081905768
-0.61793546
-0.0071750239
-0.61632253
-0.0061313515
-0.61497836
-0.0050782401
-0.6139015
-0.0040279608
-0.61308837
-0.0029872067
-0.61253356
-0.0019634831
-0.00097001601
-0.61305858
0.0073005604
-0.61442892
0.0073759494
-0.61582571
0.0075148126
-0.6172641
0.0077210005
-0.61875834
0.0079907263
-0.62032173
0.0083196953
-0.62196631
0.0087014129
-0.6237025
0.0091268779
-0.62553842
0.0095839912
-0.62747919
0.010057111
-0.62952599
0.010526735
-0.6316751
0.01096944
-0.63391691
0.011358223
-0.63623518
0.011663425
-0.63860658
0.011854319
-0.64100091
0.011901427
-0.64338199
0.011778704
-0.64570911
0.011465541
-0.64793865
0.010947516
-0.65002555
0.010215972
-0.65192424
0.009266935
-0.65358916
0.008099887
-0.65497486
0.0067170865
-0.65603618
0.0051238901
-0.65672864
0.0033303803
-0.65700974
0.0013544151
-0.65684134
-0.00077425292
-0.65619356
-0.0030102178
-0.65504964
-0.0052896744
-0.65341191
-0.0075290553
-0.65130716
-0.0096292255
-0.64878898
-0.01148648
-0.64593531
-0.013008213
-0.64284125
-0.014127917
-0.639609
-0.014814061
-0.63633807
-0.015070787
-0.63311758
-0.014931844
-0.63002164
-0.014450947
-0.62710778
-0.013691625
-0.62441748
-0.012718622
-0.62197831
-0.011591775
-0.61980649
-0.010362394
-0.61790975
-0.0090717659
-0.61628988
-0.0077512229
-0.61494512
-0.0064230007
-0.61387187
-0.00510121
-0.61306519
-0.0037938836
-0.61252118
-0.0025074958
-0.0012463954
-0.61359577
0.0086275475
-0.61493646
0.0087166319
-0.61630495
0.0088833037
-0.61771656
0.0091326086
-0.61918612
0.0094602871
-0.62072782
0.0098613961
-0.62235485
0.010328449
-0.62407899
0.010851011
-0.6259099
0.011414908
-0.62785438
0.012001587
-0.62991526
0.012587617
-0.63209032
0.013144495
-0.63437103
0.013638942
-0.63674156
0.014033955
-0.63917807
0.014290826
-0.64164889
0.014372249
-0.6441156
0.014245409
-0.64653485
0.013884789
-0.64886049
0.013273156
-0.6510453
0.012400785
-0.65304203
0.011263667
-0.65480366
0.0098615196
-0.65628315
0.0081965704
-0.65743299
0.0062737299
-0.65820518
0.0041025717
-0.65855208
0.0017013118
-0.6584288
-0.00089753117
-0.6577976
-0.0036414132
-0.65663377
-0.0064535067
-0.65493354
-0.009229285
-0.65272193
-0.011840834
-0.650057
-0.014151413
-0.64702731
-0.016037903
-0.64374245
-0.017412778
-0.6403198
-0.018236706
-0.63687182
-0.018518769
-0.63349666
-0.01830701
-0.63027318
-0.017674419
-0.62725991
-0.016704896
-0.62449659
-0.015481949
-0.62200728
-0.014081083
-0.61980398
-0.012565689
-0.61789008
-0.01098567
-0.61626339
-0.0093779097
-0.61491874
-0.0077676537
-0.61384967
-0.006170277
-0.61304958
-0.0045939731
-0.6125142
-0.0030428802
-0.0015156426
-0.61424878
0.0099185559
-0.61555386
0.010021715
-0.61688765
0.010217096
-0.61826617
0.010511122
-0.61970503
0.010899144
-0.62121947
0.011375845
-0.62282406
0.011933036
-0.62453219
0.012559143
-0.62635547
0.013238184
-0.62830277
0.013948892
-0.63037911
0.014663957
-0.63258424
0.015349625
-0.63491116
0.01596586
-0.63734466
0.016467456
-0.63986035
0.016806516
-0.64242466
0.016936562
-0.64499618
0.016816923
-0.64752807
0.016416677
-0.64997088
0.015715973
-0.65227479
0.014704691
-0.65439066
0.013379542
-0.65627009
0.011740942
-0.65786449
0.0097909706
-0.65912399
0.0075332352
-0.6599966
0.0049751831
-0.66042847
0.0021331756
-0.6603661
-0.00095989949
-0.65976131
-0.0042462038
-0.65857826
-0.0076365532
-0.65680408
-0.011003463
-0.65446037
-0.014184543
-0.65161055
-0.017001232
-0.64835748
-0.019290974
-0.64483063
-0.02093963
-0.64116794
-0.021899401
-0.63749893
-0.022187781
-0.63393315
-0.021872781
-0.63055496
-0.021052613
-0.62742333
-0.019836521
-0.62457504
-0.018330242
-0.6220292
-0.016626927
-0.61979207
-0.014802816
-0.61786139
-0.012916348
-0.61622991
-0.011009392
-0.61488812
-0.0091094456
-0.61382609
-0.0072323051
-0.61303485
-0.0053852081
-0.61250837
-0.0035693664
-0.0017790607
-0.61501204
0.011165145
-0.61627427
0.011283946
-0.61756658
0.011509402
-0.61890539
0.011849936
-0.62030717
0.012300927
-0.62178836
0.012857034
-0.62336506
0.013509737
-0.62505262
0.014246705
-0.62686496
0.015050524
-0.62881358
0.015897505
-0.63090621
0.016756594
-0.63314524
0.01758865
-0.63552573
0.018346349
-0.6380335
0.018975226
-0.64064358
0.019416595
-0.64331997
0.019612959
-0.6460173
0.019514254
-0.64868412
0.01908349
-0.65126672
0.018298579
-0.65371213
0.017150096
-0.65596928
0.015636699
-0.65798864
0.013760298
-0.6597205
0.011522828
-0.66111284
0.0089255761
-0.66210943
0.0059717713
-0.66264918
0.0026729279
-0.66266794
-0.00094113382
-0.66210393
-0.0048102175
-0.66090603
-0.0088344513
-0.65904788
-0.012861611
-0.65654483
-0.016687598
-0.6534664
-0.020079665
-0.64993461
-0.022822757
-0.64610612
-0.024768119
-0.64214654
-0.02585898
-0.63820763
-0.026126693
-0.63441293
-0.025667482
-0.63085258
-0.024612964
-0.62758492
-0.023104183
-0.62464185
-0.021273313
-0.62203547
-0.019233304
-0.61976444
-0.017073848
-0.61781926
-0.01486153
-0.61618637
-0.012642282
-0.61485105
-0.010444761
-0.61379933
-0.0082840282
-0.61301931
-0.0061652256
-0.61250257
-0.0040861077
-0.0020368292
-0.61588663
0.012363915
-0.61710003
0.012497341
-0.61834396
0.012753334
-0.61963598
0.01314196
-0.6209936
0.013658549
-0.62243461
0.014298037
-0.62397686
0.015051988
-0.62563796
0.015907809
-0.62743459
0.016847156
-0.62938144
0.017844352
-0.63148971
0.01886486
-0.63376516
0.019864101
-0.63620573
0.020786921
-0.63879884
0.021568336
-0.64151903
0.022136786
-0.64432726
0.022421186
-0.64717289
0.022359888
-0.64999833
0.021908925
-0.65274438
0.021044633
-0.65535431
0.019760031
-0.65777525
0.01805764
-0.65995712
0.015942166
-0.6618499
0.013415607
-0.6634001
0.010475773
-0.66454734
0.0071190142
-0.66522244
0.0033480224
-0.6653483
-0.00081527155
-0.66484562
-0.0053128944
-0.66364251
-0.010037561
-0.66169276
-0.014811362
-0.65900069
-0.019379668
-0.65564225
-0.023438104
-0.65176525
-0.02669976
-0.64756372
-0.028969652
-0.64324062
-0.030182076
-0.63897646
-0.030390852
-0.63491151
-0.029732436
-0.63114145
-0.028383021
-0.62772194
-0.026523696
-0.62467726
-0.024317988
-0.62200978
-0.021900783
-0.61970818
-0.019375448
-0.6177539
-0.016815812
-0.61612572
-0.014270468
-0.61480276
-0.011767713
-0.61376638
-0.0093204078
-0.61300127
-0.0069303392
-0.61249631
-0.0045910677
-0.0022881902
-0.61686594
0.013502944
-0.61802177
0.01365317
-0.61920957
0.013941141
-0.62044716
0.014379544
-0.62175295
0.014964344
-0.62314614
0.015691226
-0.62464654
0.016552381
-0.6262743
0.017535571
-0.62804933
0.018622192
-0.62999019
0.01978521
-0.63211238
0.020987048
-0.63442606
0.022177785
-0.63693309
0.023293949
-0.63962335
0.024258595
-0.64247116
0.02498459
-0.64543364
0.025383671
-0.64845316
0.025379412
-0.6514638
0.024919557
-0.65439914
0.023979979
-0.657198
0.022558891
-0.659806
0.02066564
-0.66217359
0.018309752
-0.66425181
0.015493832
-0.665987
0.012210957
-0.66731527
0.008447288
-0.66815873
0.0041914822
-0.66842503
-0.00054897101
-0.66801261
-0.0057253201
-0.66682162
-0.01122855
-0.66477686
-0.016856116
-0.66186375
-0.022292776
-0.65816393
-0.027137925
-0.65386015
-0.031003545
-0.64919855
-0.033631253
-0.64443279
-0.034947834
-0.63978035
-0.035043289
-0.63540088
-0.034111912
-0.63139425
-0.032389644
-0.62781003
-0.030107924
-0.62466092
-0.027467089
-0.62193595
-0.024625756
-0.61961095
-0.021700448
-0.6176562
-0.018770558
-0.61604142
-0.015885255
-0.6147387
-0.013070432
-0.61372417
-0.010334935
-0.61297876
-0.0076757522
-0.61248854
-0.005081284
-0.0025317821
-0.61794895
0.014581517
-0.61904172
0.014745932
-0.62016616
0.015065582
-0.62134151
0.015554897
-0.62258733
0.016210168
-0.6239243
0.017028193
-0.62537431
0.018002386
-0.62696037
0.019121631
-0.62870611
0.020367937
-0.63063469
0.021713791
-0.63276693
0.023119285
-0.63511864
0.024529496
-0.63769701
0.025872316
-0.6404957
0.027057289
-0.64348939
0.02797828
-0.64663052
0.0285248
-0.64985202
0.028600909
-0.65307657
0.028144113
-0.65622821
0.027131615
-0.65924043
0.025571118
-0.6620581
0.023483302
-0.66463388
0.020885537
-0.66692206
0.01778201
-0.66887089
0.014159786
-0.6704144
0.0099908041
-0.67146579
0.0052428726
-0.67191539
-9.9371119e-05
-0.67163351
-0.0060072041
-0.6704832
-0.012378865
-0.66834727
-0.018992045
-0.6651792
-0.025460837
-0.66106337
-0.031253756
-0.65623044
-0.035836479
-0.65100052
-0.038861171
-0.64569671
-0.040251644
-0.64058384
-0.040156159
-0.63584299
-0.038852763
-0.63157504
-0.036657588
-0.627818
-0.033864972
-0.62456742
-0.030717663
-0.62179429
-0.027398886
-0.61945815
-0.024036592
-0.61751579
-0.020712917
-0.61592641
-0.017474631
-0.6146543
-0.014342547
-0.61366995
-0.011319287
-0.61295033
-0.0083953683
-0.61247875
-0.0055528674
-0.002765729
-0.61913236
0.015582691
-0.6201512
0.015764764
-0.6212032
0.016117582
-0.62230724
0.016658943
-0.62348364
0.017386562
-0.62475445
0.018299006
-0.62614374
0.019391678
-0.62767765
0.020655534
-0.62938403
0.022074323
-0.6312915
0.023621262
-0.63342741
0.025255198
-0.63581483
0.026916911
-0.63846819
0.028525673
-0.64138695
0.029976049
-0.6445473
0.03113864
-0.64789608
0.031873576
-0.65135337
0.032058201
-0.65482597
0.031616707
-0.65822478
0.030530433
-0.66147692
0.02882325
-0.66452758
0.026533971
-0.66733421
0.023692166
-0.66985736
0.020305154
-0.67205042
0.016352847
-0.67384796
0.011788347
-0.67515483
0.0065497377
-0.67584079
0.00058659049
-0.67574313
-0.0061048608
-0.67467791
-0.013444086
-0.67246652
-0.02120344
-0.66900908
-0.028918276
-0.66438493
-0.035877906
-0.65889126
-0.041330142
-0.65295569
-0.044796743
-0.64699739
-0.046209945
-0.64134143
-0.045812123
-0.63619075
-0.044003438
-0.63164093
-0.041207411
-0.62770999
-0.037795917
-0.62436862
-0.034059031
-0.62156383
-0.030203678
-0.61923482
-0.026365596
-0.61732246
-0.022625277
-0.6157741
-0.019022992
-0.61454558
-0.015571068
-0.61360158
-0.012263288
-0.61291514
-0.0090818063
-0.61246693
-0.0060010737
-0.0029877131
-0.62040602
0.016510207
-0.62134653
0.016705273
-0.62231879
0.017089846
-0.62334327
0.017683427
-0.62444122
0.018484507
-0.62563606
0.019493848
-0.62695404
0.020709656
-0.62842457
0.022126071
-0.63008025
0.023729998
-0.631956
0.02549701
-0.63408709
0.027386287
-0.63650571
0.029335536
-0.63923604
0.031255998
-0.64228618
0.033026195
-0.64563595
0.034488412
-0.64922563
0.035463253
-0.65295763
0.035790196
-0.65671607
0.035375152
-0.66039366
0.034208026
-0.66390979
0.032339376
-0.66721231
0.029836487
-0.67026739
0.026747247
-0.67304641
0.02308418
-0.67551274
0.018819173
-0.67760578
0.013881386
-0.67922408
0.0081680449
-0.68021532
0.0015778254
-0.68037699
-0.0059431949
-0.67946454
-0.014356533
-0.67721305
-0.023454931
-0.67343472
-0.032696602
-0.66818636
-0.041126272
-0.66185853
-0.047657963
-0.65503966
-0.051615613
-0.64828329
-0.052966324
-0.64199015
-0.05210526
-0.63638188
-0.049611703
-0.63153733
-0.04605196
-0.62744188
-0.041891366
-0.62403089
-0.037470025
-0.62122006
-0.033014504
-0.61892378
-0.028661876
-0.61706454
-0.024484519
-0.61557678
-0.020510749
-0.61440763
-0.016740225
-0.61351604
-0.013154875
-0.61287141
-0.0097264316
-0.61245212
-0.0064203725
-0.0031950282
-0.62177367
0.017341075
-0.62262266
0.017554263
-0.62350477
0.017971958
-0.62443908
0.01861774
-0.625447
0.019492425
-0.62655298
0.020599822
-0.62778527
0.021941946
-0.62917666
0.023517462
-0.63076484
0.025318183
-0.63259203
0.0273242
-0.63470304
0.029497298
-0.63714159
0.031774085
-0.63994486
0.034059264
-0.64313398
0.036215318
-0.64669634
0.038050771
-0.6505655
0.039332414
-0.65461957
0.039844263
-0.65870999
0.039465574
-0.66270362
0.038201658
-0.66651047
0.03614623
-0.67008458
0.033410589
-0.6734063
0.030068972
-0.67646334
0.026141219
-0.67923491
0.021590746
-0.68167152
0.016317995
-0.68366948
0.010166001
-0.6850536
0.0029619499
-0.68557516
-0.0054216367
-0.68491543
-0.015016269
-0.68269068
-0.025679673
-0.67856996
-0.036817327
-0.67254994
-0.047146286
-0.66515278
-0.055055123
-0.65721618
-0.059552215
-0.64948312
-0.060699386
-0.64244736
-0.059141017
-0.63633859
-0.055720471
-0.63119939
-0.051191162
-0.62696386
-0.0461269
-0.62351822
-0.040915663
-0.62073823
-0.035794497
-0.61850873
-0.030891373
-0.61673178
-0.026261465
-0.61532838
-0.021914156
-0.61423712
-0.017831482
-0.6134118
-0.013980191
-0.61281876
-0.010319481
-0.61243457
-0.00680456
-0.0033846462
-0.62320196
0.018084271
-0.62395633
0.01830863
-0.62474099
0.018756619
-0.62557643
0.019453182
-0.6264844
0.020400398
-0.62749017
0.02160559
-0.62862383
0.023075604
-0.62992149
0.024815126
-0.63142627
0.02682296
-0.63318855
0.029086479
-0.63526449
0.031573243
-0.63771209
0.034221687
-0.64058552
0.036932688
-0.64392485
0.039554647
-0.64773156
0.041857488
-0.65193336
0.04353421
-0.65637402
0.044284929
-0.66085609
0.043947645
-0.6652082
0.042553763
-0.66932845
0.040266484
-0.6731831
0.037265236
-0.67677533
0.033661208
-0.68011713
0.029483017
-0.68321247
0.024686086
-0.68603375
0.019139275
-0.68848359
0.012615843
-0.69036528
0.0048436401
-0.69137765
-0.0044092656
-0.69111424
-0.01527968
-0.68903285
-0.027761064
-0.68457258
-0.041277599
-0.67759205
-0.054126815
-0.66879632
-0.063850858
-0.65942642
-0.068922111
-0.6504934
-0.069632405
-0.64260064
-0.067033781
-0.63596081
-0.062360296
-0.63054788
-0.056604095
-0.62621793
-0.050456844
-0.62279056
-0.044343039
-0.62009186
-0.038493197
-0.61797281
-0.033010423
-0.61631378
-0.027920491
-0.61502263
-0.023205311
-0.61403039
-0.018823715
-0.61328676
-0.014723821
-0.61275597
-0.010850274
-0.61241361
-0.0071469219
-0.0035533041
-0.62472578
0.01871094
-0.62537102
0.018953867
-0.62604776
0.019433359
-0.62677356
0.020178983
-0.6275692
0.021196039
-0.62845996
0.022496355
-0.62947716
0.024092798
-0.63065977
0.025997734
-0.63205617
0.028219358
-0.63372549
0.0307558
-0.63573702
0.033584774
-0.63816619
0.036650858
-0.64108893
0.039855433
-0.64457249
0.043038206
-0.64864391
0.045928908
-0.65322981
0.048120111
-0.65812656
0.049181681
-0.66306361
0.048884695
-0.66781372
0.047303865
-0.67226155
0.044714322
-0.67639752
0.041401204
-0.68026132
0.037525011
-0.6838984
0.033120093
-0.68734608
0.028133766
-0.6906111
0.02240429
-0.69361315
0.015617895
-0.69613541
0.0073659016
-0.69781788
-0.0027267914
-0.69815596
-0.014941604
-0.696412
-0.029505021
-0.69166774
-0.046021864
-0.68348663
-0.062307925
-0.67281444
-0.074523044
-0.66157802
-0.080158537
-0.65116572
-0.080044698
-0.64229971
-0.075899793
-0.63512337
-0.069536633
-0.62949003
-0.062237438
-0.62514068
-0.054806191
-0.62180712
-0.047676608
-0.61925604
-0.041044276
-0.61730148
-0.034964974
-0.61580245
-0.02941953
-0.61465525
-0.024352507
-0.61378531
-0.019693659
-0.61313993
-0.015369198
-0.61268266
-0.011307547
-0.61238912
-0.0074404625
-0.0036976198
-0.62625456
0.019234814
-0.62678842
0.019487731
-0.6273494
0.019994338
-0.62795558
0.020785165
-0.62862682
0.021867272
-0.62938795
0.023257492
-0.63027102
0.024975868
-0.63131752
0.02704423
-0.63258101
0.029482854
-0.63413004
0.032304828
-0.63604922
0.035503958
-0.63843553
0.039037167
-0.6413925
0.042812403
-0.64502517
0.046670868
-0.64940478
0.050308527
-0.65446887
0.053184192
-0.65994711
0.054659922
-0.66545462
0.054392205
-0.67067736
0.052526614
-0.6754814
0.049518363
-0.67989831
0.045818113
-0.68402225
0.041648948
-0.68794037
0.03703821
-0.69173125
0.03192465
-0.69545683
0.026129869
-0.69907938
0.019240444
-0.70237623
0.01066275
-0.70493197
-0.00017105353
-0.70613904
-0.013734533
-0.7050414
-0.030602659
-0.7001778
-0.050885461
-0.69050387
-0.071981853
-0.67723235
-0.087794573
-0.66352296
-0.093867919
-0.65128452
-0.092283138
-0.6413435
-0.085840817
-0.63367147
-0.077208662
-0.62791998
-0.067988927
-0.6236657
-0.059060474
-0.62052916
-0.050813138
-0.61820975
-0.043363688
-0.61648431
-0.03669042
-0.61519319
-0.030710642
-0.61422469
-0.025321013
-0.6135017
-0.020416649
-0.61297167
-0.015899224
-0.61259931
-0.011679908
-0.61236157
-0.0076782035
-0.0038142407
-0.62788109
0.019621717
-0.62828919
0.019895826
-0.6287256
0.020430752
-0.6292034
0.02126296
-0.62973973
0.022403602
-0.63035782
0.02387559
-0.63108925
0.025707289
-0.63197668
0.027931663
-0.6330775
0.030583679
-0.63446861
0.033695938
-0.6362506
0.037285941
-0.6385453
0.041331869
-0.64148905
0.045756151
-0.64523565
0.050417469
-0.64992874
0.055001619
-0.6555444
0.058799857
-0.66172099
0.060836508
-0.66789276
0.060563982
-0.67361373
0.058247582
-0.67872934
0.054633968
-0.68335057
0.050439345
-0.6876636
0.045961982
-0.69181349
0.041188093
-0.69592935
0.036040518
-0.70015987
0.030360386
-0.70454616
0.023626737
-0.70887152
0.014988101
-0.71262719
0.0035846216
-0.71510139
-0.011260337
-0.71514746
-0.030556589
-0.71054399
-0.055488927
-0.69906612
-0.083459725
-0.68205729
-0.1048034
-0.66501671
-0.1109085
-0.65053215
-0.10676769
-0.63946246
-0.096910509
-0.63141603
-0.085255094
-0.62572044
-0.073684517
-0.62172705
-0.063053858
-0.61892312
-0.053617077
-0.6169379
-0.045348907
-0.61551579
-0.038112523
-0.61448501
-0.031741429
-0.61373158
-0.026074439
-0.61318048
-0.02096775
-0.6127826
-0.016297106
-0.61250608
-0.011956423
-0.61233073
-0.0078535531
-0.0039000227
-0.62933472
0.019883635
-0.6296137
0.020174801
-0.62991594
0.020732992
-0.6302524
0.02159942
-0.63063689
0.02278809
-0.63108979
0.024328496
-0.63164074
0.026258237
-0.6323321
0.028623027
-0.63322366
0.031475231
-0.63439972
0.034872006
-0.63597823
0.03886445
-0.63811208
0.043465718
-0.64097934
0.04862341
-0.64479591
0.054234042
-0.64982127
0.060026976
-0.65613292
0.065111509
-0.66325077
0.067954359
-0.67031084
0.067624052
-0.67666072
0.064597465
-0.68211592
0.060089166
-0.68692854
0.055251959
-0.69142769
0.050461139
-0.69581881
0.045579213
-0.70025555
0.040477255
-0.70499595
0.035100784
-0.71020327
0.028834064
-0.71569829
0.020483114
-0.7208836
0.0087699332
-0.7249707
-0.0071732385
-0.72680118
-0.028726105
-0.72323323
-0.059056879
-0.70979863
-0.09689432
-0.68723512
-0.12736692
-0.66565505
-0.13248857
-0.6484414
-0.12398134
-0.63630082
-0.10905109
-0.62813544
-0.093420478
-0.6227717
-0.079048254
-0.61926895
-0.066556611
-0.6169683
-0.055917719
-0.61543692
-0.046880289
-0.61439944
-0.039150008
-0.61368329
-0.032457577
-0.61318093
-0.026576798
-0.61282541
-0.021323273
-0.61257509
-0.016547427
-0.61240419
-0.01212732
-0.61229701
-0.0079607334
-0.003952234
-0.630489
0.019982328
-0.63061859
0.020304384
-0.63076963
0.020884031
-0.63094648
0.021776269
-0.63115815
0.02299976
-0.63142119
0.024591536
-0.63176205
0.026599101
-0.63222112
0.029082093
-0.63285823
0.03211234
-0.63376176
0.035775539
-0.63506382
0.040166508
-0.63695014
0.045352037
-0.63964571
0.051318988
-0.64343015
0.058018478
-0.64872278
0.065319611
-0.65582235
0.072211073
-0.66411024
0.076242253
-0.6722062
0.075720011
-0.67914683
0.071538096
-0.68470404
0.065646378
-0.6893943
0.059942212
-0.69378004
0.054846888
-0.69813974
0.049938906
-0.70260226
0.044939777
-0.70761399
0.040112511
-0.71359558
0.034815655
-0.72050435
0.027391885
-0.72773377
0.015999362
-0.73428096
-0.00062605079
-0.73920477
-0.023802294
-0.73833331
-0.059928342
-0.72349693
-0.1117307
-0.69248427
-0.15837957
-0.66469737
-0.16027547
-0.64430154
-0.14437718
-0.63139173
-0.1219609
-0.62358333
-0.10122888
-0.61896686
-0.083664727
-0.61625867
-0.069264794
-0.61466575
-0.057510642
-0.61372005
-0.047825991
-0.61315054
-0.039719517
-0.61280134
-0.032806777
-0.61258282
-0.026795313
-0.61244341
-0.021462684
-0.61235345
-0.016637385
-0.612296
-0.012184776
-0.61226149
-0.0079952414
-0.0039687729
-0.63007725
0.019881154
-0.63002674
0.020253877
-0.62999415
0.020851439
-0.62997511
0.021757235
-0.62997167
0.022996316
-0.62999375
0.024613614
-0.63006064
0.026665988
-0.63020528
0.029226737
-0.63048067
0.032387729
-0.63097035
0.036265222
-0.63181076
0.041006914
-0.63321915
0.046760424
-0.63548161
0.053581458
-0.63894656
0.061483423
-0.64424013
0.070613179
-0.65213588
0.080106821
-0.66194876
0.086055135
-0.6713513
0.085122554
-0.67893693
0.079123729
-0.6843677
0.07107715
-0.68865831
0.064232818
-0.69275331
0.058941891
-0.69705361
0.054239204
-0.70151611
0.049402278
-0.70684002
0.045436424
-0.71386066
0.041836293
-0.72259778
0.036129002
-0.73262069
0.026022274
-0.74190604
0.0086592987
-0.75053142
-0.015176914
-0.75422028
-0.05623948
-0.74047817
-0.12547282
-0.69642175
-0.20243598
-0.66055655
-0.19614067
-0.63703553
-0.1678982
-0.62415401
-0.13484241
-0.61751727
-0.10786562
-0.61423922
-0.086942772
-0.61270473
-0.070799285
-0.61204786
-0.058167514
-0.6118215
-0.04805235
-0.61179743
-0.039743591
-0.61186004
-0.032744166
-0.61195144
-0.026703915
-0.61204333
-0.021370791
-0.61212257
-0.016558145
-0.61218362
-0.012123726
-0.61222456
-0.0079543062
-0.0039483785
-0.62618275
0.019549772
-0.6258951
0.019966232
-0.62560331
0.020559644
-0.62530078
0.021454707
-0.62498222
0.022677755
-0.62464891
0.024280302
-0.62430971
0.026326789
-0.62398596
0.02890299
-0.62371923
0.032120998
-0.62358293
0.036128924
-0.62370958
0.041133562
-0.62434455
0.047395395
-0.62585769
0.055094592
-0.62866628
0.064292014
-0.63355952
0.075506419
-0.64216297
0.088710271
-0.65403866
0.097930831
-0.66487539
0.095959281
-0.67275901
0.087007348
-0.67707309
0.075391235
-0.67991253
0.067072259
-0.68282425
0.061853607
-0.68643123
0.057846181
-0.69004713
0.053018182
-0.69450766
0.049896958
-0.70161563
0.048944254
-0.71115828
0.045671655
-0.72409982
0.038963819
-0.73556754
0.020127014
-0.74986197
-0.00088248223
-0.76245079
-0.043650655
-0.7591672
-0.12875641
-0.69459174
-0.26701143
-0.65073508
-0.23999733
-0.62530445
-0.19332883
-0.61396301
-0.14618385
-0.60976336
-0.11206527
-0.60860997
-0.088096158
-0.60868426
-0.070724995
-0.60919212
-0.057659659
-0.60980286
-0.047441601
-0.61038445
-0.039162002
-0.61088953
-0.032239089
-0.61130628
-0.026287167
-0.61163707
-0.021040001
-0.61188909
-0.016306127
-0.61207022
-0.011942593
-0.61218724
-0.007837291
-0.0038908136
-0.61276604
0.018730638
-0.61203579
0.019235984
-0.61128936
0.019813212
-0.61049988
0.020665227
-0.60964964
0.021827517
-0.60872658
0.023357246
-0.60772241
0.025322615
-0.60663648
0.027817064
-0.6054833
0.030967817
-0.60430229
0.034947912
-0.60318031
0.040011582
-0.60232579
0.046540878
-0.60215329
0.054922093
-0.60313629
0.065275011
-0.60601308
0.078383211
-0.6137273
0.096424492
-0.62752843
0.11173196
-0.6386916
0.10712245
-0.6454583
0.093774052
-0.64634669
0.076279624
-0.64573835
0.066463912
-0.64567549
0.061790751
-0.64728259
0.059453282
-0.64831346
0.054049052
-0.64944603
0.051029528
-0.65617094
0.05566917
-0.66607589
0.0555766
-0.68384118
0.056729111
-0.6988889
0.035174739
-0.72786092
0.028089534
-0.75027292
-0.021238649
-0.77323596
-0.10579337
-0.67715964
-0.36308776
-0.63076827
-0.2863887
-0.60622364
-0.21787346
-0.59992104
-0.15248645
-0.60026631
-0.11172
-0.60224911
-0.086113361
-0.60437348
-0.068600625
-0.60623192
-0.055801217
-0.60775548
-0.045918036
-0.60897158
-0.037945903
-0.60992821
-0.031282463
-0.6106713
-0.025544069
-0.61123901
-0.0204723
-0.61166108
-0.015884058
-0.61195982
-0.011643851
-0.61215113
-0.00764598
-0.003796992
-0.58478056
0.017487196
-0.58351118
0.0179666
-0.58214254
0.018444579
-0.58067043
0.019193115
-0.57906862
0.020225703
-0.57730623
0.021594855
-0.57534663
0.023363019
-0.57314998
0.025620415
-0.5706787
0.028496529
-0.56790559
0.032174804
-0.56482937
0.036935364
-0.56155733
0.043268833
-0.55853346
0.051898231
-0.55652851
0.063270053
-0.55614982
0.078004524
-0.56153287
0.10180754
-0.58049401
0.1306931
-0.59265846
0.1192869
-0.59891136
0.10002695
-0.59405574
0.071424004
-0.58776513
0.06017331
-0.58244407
0.056469682
-0.5815774
0.058586618
-0.57952901
0.052000661
-0.57387592
0.045376446
-0.5851942
0.032529291
-0.5956186
0.0374384
-0.60467838
0.04031272
-0.603423
0.020480165
-0.63524934
0.039878003
-0.71434543
0.019774347
-0.66918738
-0.054713968
-0.60685912
-0.22710921
-0.57379939
-0.31944843
-0.57150803
-0.22016482
-0.58113689
-0.14285759
-0.58945238
-0.10340451
-0.59561863
-0.079947109
-0.60008654
-0.064132715
-0.60336088
-0.052526876
-0.60579624
-0.043482682
-0.60762935
-0.036112791
-0.60901858
-0.029893231
-0.61007177
-0.024490881
-0.61086356
-0.019680512
-0.61144608
-0.015301535
-0.61185565
-0.011234277
-0.61211694
-0.007384695
-0.0036690264
-0.52687457
0.015077277
-0.52437787
0.015469906
-0.52172556
0.015792269
-0.51887542
0.016342975
-0.51577319
0.017123465
-0.51235104
0.018172708
-0.5085233
0.019535279
-0.50418482
0.02128194
-0.49921139
0.023523095
-0.49346508
0.026428488
-0.48680278
0.030273064
-0.47911995
0.035586009
-0.47061255
0.043390826
-0.46224869
0.054906197
-0.45438173
0.070137566
-0.44763259
0.095058396
-0.47081238
0.15387288
-0.47005535
0.11852988
-0.46091608
0.090887679
-0.4270999
0.037607817
-0.39543259
0.028506001
-0.36803813
0.029075226
-0.30348303
0.020768318
-0.16298975
0.013453102
-0.041141842
0.0077700643
0
0
0
0
0
0
0
0
0
0
0
0
0
0