/*--------------------------------*- C++ -*----------------------------------*\
| =========                 |                                                 |
| \\      /  F ield         | foam-extend: Open Source CFD                    |
|  \\    /   O peration     | Version:     4.1                                |
|   \\  /    A nd           | Web:         http://www.foam-extend.org         |
|    \\/     M anipulation  |                                                 |
\*---------------------------------------------------------------------------*/
FoamFile
{
    version     2.0;
    format      ascii;
    class       volScalarField;
    location    "1.7";
    object      rAU;
}
// * * * * * * * * * * * * * * * * * * * * * * * * * * * * * * * * * * * * * //

dimensions      [0 0 1 0 0 0 0];

internalField   nonuniform List<scalar> 
4393
(
0.00022764417
0.00022727036
0.00022690431
0.00022653042
0.00022614657
0.00022575134
0.00022534235
0.00022491841
0.00022447867
0.00022402294
0.00022355181
0.00022306679
0.00022257038
0.00022206612
0.00022155838
0.00022105331
0.00022055671
0.00022007556
0.00021961751
0.00021919013
0.00021880116
0.00021845828
0.00021816899
0.00021794048
0.00021777939
0.00021769166
0.00021768193
0.00021768193
0.0002177535
0.00021790748
0.00021814203
0.00021845217
0.00021882969
0.00021926355
0.00021974049
0.00022024598
0.00022076518
0.00022128392
0.00022178936
0.00022227049
0.00022271835
0.00022312599
0.00022348834
0.00022380197
0.00022406476
0.00022427573
0.00022443495
0.00022454294
0.00022458507
0.00022451175
0.00022419126
0.0002238857
0.00022357109
0.00022324466
0.00022290478
0.0002225492
0.00022217708
0.00022178799
0.00022138232
0.00022096132
0.00022052728
0.00022008357
0.00021963467
0.00021918589
0.00021874426
0.00021831636
0.00021790982
0.0002175327
0.00021719284
0.00021689811
0.00021665619
0.00021647449
0.00021636002
0.00021631909
0.00021635709
0.00021644377
0.00021641669
0.0002164599
0.00021658679
0.0002167989
0.00021709465
0.00021746892
0.00021791293
0.00021841471
0.00021895998
0.00021953326
0.00022011903
0.00022070272
0.0002212714
0.00022181419
0.00022232237
0.00022278935
0.00022321038
0.00022358222
0.00022390273
0.00022417102
0.00022438861
0.00022454271
0.00022400637
0.0002236977
0.00022339757
0.00022308587
0.00022275989
0.00022241812
0.00022205856
0.00022168063
0.00022128434
0.00022087056
0.00022044122
0.00021999936
0.00021954924
0.00021909629
0.00021864686
0.00021820896
0.00021779007
0.00021739853
0.00021704295
0.00021673151
0.00021647225
0.00021627292
0.0002161409
0.00021608312
0.00021610574
0.00021621381
0.00021630059
0.0002161815
0.00021614322
0.00021619278
0.00021633509
0.00021657182
0.00021690042
0.00021731374
0.00021780022
0.00021834496
0.00021893102
0.00021954091
0.00022015785
0.00022076677
0.00022135482
0.00022191164
0.00022242932
0.00022290211
0.00022332601
0.00022369841
0.0002240182
0.0002242855
0.00022448062
0.00022365102
0.00022334774
0.00022304752
0.00022273269
0.00022240078
0.0002220505
0.00022167999
0.00022128894
0.00022087765
0.00022044749
0.00022000093
0.00021954179
0.00021907522
0.00021860769
0.00021814668
0.00021770135
0.00021728027
0.00021689269
0.00021654792
0.00021625463
0.00021602115
0.00021585541
0.00021576496
0.00021575685
0.00021583732
0.00021601143
0.00021609297
0.00021588782
0.00021576522
0.00021573571
0.00021580799
0.00021598729
0.00021627373
0.00021666158
0.00021713929
0.00021769075
0.0002182969
0.00021893775
0.00021959395
0.00022024804
0.00022088515
0.00022149333
0.00022206344
0.00022258891
0.00022306523
0.00022348958
0.00022386074
0.00022417774
0.00022442243
0.00022328912
0.00022299
0.0002226901
0.00022237245
0.00022203476
0.00022167586
0.00022129403
0.00022088911
0.0002204617
0.00022001351
0.0002195476
0.00021906846
0.00021858215
0.00021809627
0.00021761951
0.00021716233
0.00021673455
0.00021634645
0.00021600813
0.00021572879
0.00021551709
0.00021538119
0.00021532883
0.00021536734
0.0002155033
0.00021574212
0.00021582923
0.00021553358
0.0002153227
0.00021521113
0.00021521198
0.00021533455
0.00021558197
0.00021594979
0.00021642597
0.00021699243
0.00021762728
0.00021830729
0.00021901007
0.00021971547
0.00022040652
0.0002210697
0.00022169481
0.00022227463
0.00022280436
0.00022328115
0.00022370369
0.00022407085
0.00022436675
0.00022291143
0.00022261699
0.00022231846
0.00022199895
0.00022165626
0.00022128928
0.00022089635
0.00022047741
0.00022003323
0.00021956585
0.00021907875
0.00021857713
0.00021806796
0.00021755997
0.00021706325
0.00021658974
0.00021615068
0.00021575755
0.00021542135
0.00021515181
0.00021495791
0.00021484803
0.00021483017
0.00021491208
0.00021510099
0.00021540306
0.00021551084
0.00021511889
0.00021481409
0.00021461567
0.00021454198
0.00021460727
0.00021481817
0.00021517145
0.000215654
0.00021624481
0.0002169181
0.0002176466
0.00021840421
0.00021916777
0.00021991809
0.00022064016
0.00022132291
0.00022195874
0.00022254282
0.00022307252
0.00022354674
0.00022396476
0.00022431252
0.00022251842
0.00022222935
0.00022193321
0.00022161283
0.000221266
0.00022089155
0.00022048779
0.00022005468
0.00021959307
0.00021910519
0.00021859492
0.00021806806
0.00021753248
0.00021699819
0.00021647681
0.000215982
0.00021552667
0.00021512374
0.00021478515
0.0002145212
0.00021434111
0.0002142534
0.00021426636
0.0002143883
0.00021462738
0.00021499104
0.00021513982
0.0002146443
0.00021423812
0.00021394598
0.00021379271
0.00021379878
0.00021397513
0.0002143198
0.00021481777
0.00021544387
0.00021616711
0.00021695503
0.00021777705
0.00021860664
0.00021942226
0.00022020752
0.00022095072
0.00022164415
0.00022228327
0.00022286593
0.00022339156
0.0002238603
0.00022425949
0.0002221121
0.00022182975
0.00022153719
0.00022121697
0.00022086682
0.00022048549
0.00022007115
0.00021962365
0.00021914382
0.00021863395
0.0002180982
0.00021754292
0.00021697688
0.00021641141
0.00021585991
0.00021533808
0.00021486089
0.0002144429
0.00021409715
0.00021383441
0.00021366401
0.00021359448
0.0002136343
0.00021379247
0.00021407843
0.00021450151
0.00021471776
0.00021410972
0.00021359249
0.00021319724
0.00021295688
0.00021289999
0.00021304313
0.0002133857
0.00021390969
0.00021458403
0.00021537074
0.00021623075
0.00021712814
0.00021803253
0.00021892001
0.00021977302
0.00022057954
0.00022133212
0.00022202684
0.00022266237
0.00022323897
0.00022375786
0.00022420763
0.00022169416
0.00022141938
0.00022113148
0.00022081249
0.00022045996
0.00022007243
0.00021964785
0.00021918585
0.00021868705
0.00021815368
0.00021759003
0.00021700287
0.00021640186
0.00021579975
0.00021521197
0.00021465673
0.00021415149
0.00021371284
0.000213355
0.00021308912
0.00021292434
0.00021286893
0.00021293145
0.00021312159
0.00021345044
0.00021392989
0.00021424754
0.00021351623
0.00021287571
0.00021236482
0.00021202676
0.00021190091
0.00021201153
0.00021235954
0.00021292238
0.00021366066
0.00021452702
0.00021547401
0.00021645927
0.00021744819
0.00021841456
0.00021933992
0.0002202124
0.00022102528
0.00022177571
0.0002224635
0.00022309012
0.00022365802
0.00022415708
0.00022126662
0.00022100129
0.00022071946
0.00022040289
0.000220049
0.00021965604
0.00021922164
0.00021874505
0.00021822654
0.00021766807
0.00021707385
0.00021645095
0.00021580982
0.00021516473
0.00021453349
0.00021393735
0.00021339697
0.00021293146
0.00021255636
0.00021228294
0.00021211975
0.00021207437
0.00021215509
0.00021237228
0.000212739
0.00021327054
0.00021373254
0.00021286522
0.00021208618
0.00021144323
0.00021099271
0.00021078888
0.00021086681
0.00021122933
0.00021184696
0.00021266853
0.00021363409
0.00021468553
0.0002157729
0.00021685704
0.00021790963
0.00021891187
0.00021985262
0.00022072649
0.00022153219
0.0002222711
0.00022294624
0.00022356148
0.00022410811
0.00022083211
0.00022057682
0.00022030217
0.00021998921
0.00021963505
0.00021923757
0.00021879394
0.00021830288
0.00021776406
0.00021717897
0.00021655149
0.00021588877
0.00021520189
0.00021450671
0.00021382378
0.00021317822
0.00021259481
0.00021209588
0.00021169842
0.00021141345
0.00021124824
0.00021120897
0.00021130322
0.00021154185
0.00021194015
0.00021251773
0.0002131781
0.00021215987
0.00021122354
0.0002104272
0.00020984396
0.00020954886
0.00020959283
0.0002099812
0.00021067395
0.00021160308
0.00021269165
0.00021386812
0.00021507369
0.00021626452
0.00021741072
0.00021849394
0.00021950461
0.00022043939
0.00022129915
0.00022208734
0.00022280881
0.00022346913
0.0002240611
0.00022039159
0.00022014892
0.00021988322
0.00021957537
0.00021922235
0.00021882157
0.00021836964
0.00021786453
0.00021730514
0.00021669211
0.00021602872
0.00021532183
0.00021458296
0.00021382946
0.0002130851
0.00021237987
0.00021174408
0.00021120429
0.00021077918
0.00021047886
0.0002103083
0.00021027134
0.00021037407
0.00021062749
0.00021104931
0.00021166446
0.0002124846
0.00021140478
0.00021028864
0.00020931144
0.00020856769
0.00020816194
0.00020816912
0.00020859814
0.00020939257
0.00021046015
0.00021170095
0.00021302664
0.0002143684
0.00021567798
0.00021692491
0.00021809245
0.00021917369
0.00022016829
0.00022107994
0.00022191468
0.00022267954
0.00022338199
0.00022401651
0.00021995029
0.0002197203
0.00021946461
0.00021916322
0.00021881269
0.00021840989
0.00021795069
0.00021743214
0.00021685205
0.00021620989
0.00021550787
0.00021475219
0.00021395438
0.00021313313
0.00021231582
0.00021153877
0.0002108398
0.00021025132
0.00020979392
0.0002094758
0.00020929803
0.00020926065
0.00020936724
0.00020962822
0.00021006371
0.00021070495
0.00021159198
0.00021060795
0.00020928492
0.00020809168
0.00020714927
0.00020660444
0.00020656961
0.00020705934
0.00020799093
0.00020923684
0.00021066592
0.00021216913
0.00021366685
0.00021510739
0.00021646131
0.00021771521
0.00021886627
0.00021991822
0.00022087841
0.00022175591
0.00022256034
0.00022330122
0.00022397489
0.00021950689
0.00021929294
0.00021904945
0.00021875647
0.0002184104
0.00021800755
0.00021754294
0.0002170125
0.00021641259
0.00021574107
0.00021499856
0.00021418998
0.00021332627
0.00021242694
0.00021152329
0.00021065974
0.00020988466
0.00020923868
0.00020874466
0.00020840723
0.00020822121
0.00020818088
0.00020828604
0.00020854563
0.00020898181
0.00020963318
0.00021055273
0.00020978115
0.00020821937
0.00020676554
0.00020557202
0.00020484591
0.00020476002
0.00020533872
0.00020645597
0.00020793234
0.00020959424
0.00021130778
0.00021298262
0.00021456572
0.00021603129
0.00021737162
0.00021858982
0.00021969495
0.00022069883
0.00022161414
0.00022245331
0.00022322812
0.00022393683
0.00021907216
0.00021887371
0.00021864346
0.00021836047
0.00021802066
0.00021761965
0.00021715147
0.00021661066
0.0002159918
0.00021529059
0.00021450536
0.00021363899
0.00021270094
0.00021171068
0.00021070331
0.00020973382
0.00020886571
0.00020815174
0.00020761768
0.00020726212
0.00020706994
0.00020702694
0.00020712749
0.0002073776
0.00020780032
0.00020844203
0.00020937153
0.00020894096
0.00020710422
0.00020533442
0.00020381774
0.00020284681
0.00020269406
0.00020340327
0.00020477379
0.00020654951
0.00020849917
0.00021046043
0.00021233403
0.0002140695
0.00021564869
0.00021707269
0.00021835278
0.00021950479
0.00022054583
0.00022149263
0.00022236067
0.00022316405
0.00022390299
0.00021863761
0.00021845866
0.00021824407
0.00021797331
0.00021764224
0.00021724587
0.00021677715
0.00021622904
0.00021559398
0.00021486495
0.00021403711
0.0002131103
0.00021209132
0.00021099795
0.00020986823
0.0002087704
0.00020779009
0.00020699829
0.00020642441
0.00020605666
0.00020586404
0.00020581999
0.00020591175
0.00020614093
0.00020652966
0.00020713249
0.00020803778
0.00020811305
0.00020595994
0.0002038066
0.0002018684
0.00020055531
0.00020030727
0.0002012106
0.00020293052
0.00020509751
0.00020740223
0.00020965251
0.00021174529
0.00021363937
0.00021532993
0.00021683096
0.00021816447
0.0002193545
0.00022042424
0.00022139477
0.0002222847
0.00022311041
0.00022387404
0.0002182261
0.00021806548
0.00021786767
0.00021761121
0.00021729155
0.00021690295
0.00021643715
0.00021588529
0.00021523725
0.00021448252
0.00021361199
0.00021262103
0.00021151218
0.00021029905
0.00020902
0.0002077594
0.00020663596
0.0002057494
0.0002051343
0.00020476207
0.00020457704
0.00020453555
0.00020461707
0.00020481756
0.00020515448
0.00020568876
0.00020653111
0.00020732603
0.00020481614
0.00020220255
0.00019971087
0.0001979043
0.00019750681
0.00019870604
0.0002009144
0.0002035962
0.00020633706
0.00020891964
0.00021124783
0.00021330048
0.00021509399
0.00021666025
0.00021803471
0.000219251
0.00022033887
0.00022132387
0.0002222276
0.00022306858
0.00022385065
0.00021781707
0.000217679
0.00021750034
0.00021726045
0.00021695498
0.00021657755
0.0002161187
0.00021556765
0.00021491147
0.0002141356
0.00021322549
0.00021217043
0.00021096693
0.0002096211
0.00020816621
0.00020670431
0.00020540422
0.00020441215
0.00020376952
0.00020341996
0.00020326757
0.00020324378
0.00020331998
0.00020348516
0.00020374466
0.00020416134
0.00020487309
0.00020603984
0.00020373274
0.00020056991
0.0001973499
0.00019481248
0.00019415636
0.00019582011
0.00019872042
0.00020208336
0.00020535513
0.00020831079
0.00021088154
0.00021308261
0.000214962
0.00021657507
0.00021797336
0.00021920094
0.00022029422
0.00022128294
0.00022219138
0.00022303981
0.00022383345
0.00021746816
0.00021735094
0.00021719279
0.00021697241
0.00021668527
0.00021632441
0.00021587915
0.00021533675
0.00021468122
0.00021389323
0.00021295116
0.0002118356
0.00021053429
0.00020904121
0.00020737403
0.00020564892
0.00020411129
0.00020298586
0.00020232298
0.00020202175
0.00020192087
0.00020191731
0.00020197977
0.00020209588
0.00020224956
0.00020249974
0.0002030169
0.00020404769
0.00020277681
0.0001990009
0.00019484826
0.00019121004
0.00019005985
0.00019246909
0.00019635899
0.00020062658
0.00020453408
0.00020789225
0.00021069577
0.00021301976
0.00021495635
0.00021658985
0.0002179896
0.00021921019
0.0002202941
0.00022127452
0.00022217772
0.00022302515
0.00022382299
0.00021720051
0.00021710853
0.00021697484
0.00021677847
0.00021651526
0.00021617767
0.00021575388
0.00021522914
0.00021458426
0.00021379479
0.00021283075
0.00021166125
0.00021026264
0.00020861355
0.00020670049
0.00020463834
0.00020278999
0.00020151997
0.00020088589
0.00020071664
0.00020074033
0.00020080566
0.00020088995
0.00020099327
0.00020105223
0.00020109839
0.00020133205
0.00020206198
0.00020232321
0.00019782261
0.00019245163
0.00018712448
0.00018495887
0.0001885725
0.00019388249
0.00019934614
0.00020399043
0.000207752
0.00021074947
0.00021314873
0.00021509907
0.00021671749
0.00021809098
0.00021928324
0.00022034125
0.00022130036
0.00022218777
0.00022302538
0.00022381967
0.00021725963
0.00021719576
0.00021709254
0.00021692799
0.00021669828
0.00021639565
0.00021600762
0.00021551811
0.00021490544
0.00021414066
0.00021318498
0.00021199247
0.00021052277
0.00020873538
0.0002065621
0.00020406798
0.0002017868
0.00020035007
0.00019980481
0.00019987847
0.0002001047
0.00020026511
0.00020036267
0.00020044892
0.00020036908
0.00020009254
0.00019988235
0.00020010156
0.00020118317
0.0001974005
0.00019066054
0.00018291631
0.00017861407
0.00018416374
0.00019146779
0.00019845268
0.00020389544
0.00020800267
0.00021110901
0.00021350585
0.00021540911
0.00021696756
0.00021828223
0.00021942241
0.00022043688
0.00022136115
0.00022222204
0.00022304088
0.00022382376
0.00021801696
0.0002179881
0.00021792997
0.00021781538
0.00021764055
0.00021739765
0.00021707412
0.00021665312
0.00021611085
0.0002154139
0.00021451367
0.00021334371
0.00021183646
0.00020993044
0.00020748599
0.00020441469
0.00020147721
0.00019988105
0.00019958015
0.00020017685
0.0002008211
0.00020120578
0.00020138344
0.00020158179
0.00020150137
0.00020093306
0.00020031531
0.00019986115
0.00020080794
0.00019976174
0.00019129662
0.00018002095
0.00017094747
0.00017965742
0.0001894789
0.00019827151
0.00020448843
0.00020878046
0.00021184179
0.00021412116
0.00021589842
0.00021734392
0.00021856391
0.00021962716
0.00022058026
0.00022145636
0.00022228023
0.00022307158
0.0002238353
0.00022066369
0.00022071185
0.00022074168
0.00022072109
0.00022064824
0.00022051613
0.0002203135
0.00022002441
0.00021962513
0.00021908083
0.00021833763
0.00021731096
0.00021589785
0.0002140155
0.00021146337
0.00020778556
0.00020388286
0.00020236521
0.00020272393
0.00020450362
0.00020600867
0.00020690952
0.00020732153
0.00020797671
0.00020832149
0.00020732391
0.00020618935
0.00020432519
0.00020496019
0.00020348402
0.00019649971
0.00018118187
0.00016222028
0.00017630806
0.00018869719
0.00019949655
0.00020614877
0.00021024609
0.0002130038
0.00021500892
0.00021656659
0.00021784205
0.00021893119
0.00021989351
0.00022076849
0.00022158405
0.00022236118
0.00022311691
0.00022385411
0.00022642276
0.00022656592
0.0002267286
0.00022685623
0.00022694658
0.00022699474
0.00022699355
0.00022693216
0.00022679222
0.00022654407
0.00022613663
0.00022547203
0.0002243874
0.00022271794
0.00022021932
0.00021576558
0.00020956501
0.00020824556
0.0002094842
0.00021348389
0.00021646232
0.0002183526
0.00021896559
0.0002204049
0.00022210379
9.3007816e-05
9.5433499e-05
9.7691765e-05
9.9882304e-05
0.0001028826
9.4463784e-05
8.6204459e-05
0.00010657313
0.00017933314
0.00019343313
0.00020412668
0.00020945407
0.00021253429
0.00021460525
0.0002161518
0.00021739452
0.00021844671
0.000219373
0.00022021376
0.00022099637
0.00022174084
0.00022246287
0.00022317577
0.00022387978
0.0002392447
0.00023969232
0.00024019325
0.00024067942
0.00024115992
0.00024163886
0.00024212104
0.00024261022
0.00024310521
0.00024359528
0.00024404769
0.0002443697
0.00024434054
0.00024362401
0.00024200354
0.00023807191
0.00022682128
0.00022935326
0.00023549124
0.00025020848
0.00026144332
0.00027023538
0.00012828123
0.00016688462
0.00032276555
0.00046160127
0.00049956686
0.00049956686
0.00049956686
0.00049956686
0.00049956686
0.00045031229
0.00033649806
6.8075222e-05
0.00021297343
0.00021346057
0.00021437851
0.00021549415
0.00021653623
0.00021748093
0.0002183397
0.00021913118
0.00021987219
0.00022057677
0.00022125666
0.00022192213
0.00022258246
0.00022324663
0.00022391164
0.00026426626
0.00026527468
0.00026642829
0.00026762469
0.00026888446
0.00027023218
0.00027170198
0.00027333687
0.00027518999
0.00027732885
0.00027983985
0.00028282039
0.00028637171
0.0002905456
0.00029517719
0.00030233458
0.00027345557
0.00030500536
0.00035659339
0.000372556
0.00027819754
0.00031963978
0.00049956686
0.00049956686
0.00049956686
0.00049956686
0.00049956686
0.00049956686
0.00049956686
0.00049956686
0.00041263421
0.00041826982
0.00010203831
0.00026658968
0.00023113959
0.0002220967
0.00021927502
0.00021853462
0.00021855408
0.00021888162
0.00021934132
0.00021986037
0.00022040733
0.00022096894
0.00022154062
0.00022212231
0.0002227165
0.00022332752
0.00022394886
0.00030195062
0.00030409298
0.00030622305
0.00030842549
0.00031077482
0.00031334384
0.00031621852
0.00031951216
0.00032338417
0.00032807818
0.0003339904
0.00034169667
0.0003517301
0.0003647455
0.00038492147
0.00040158523
0.00025699812
0.00025320401
0.00026334811
0.00048921855
0.00047848217
0.00048856113
0.00047869856
0.00047372166
0.00047746536
0.0004586581
0.00045171934
0.00045351625
0.0004409362
0.00043652067
0.00010691844
0.00010767092
0.00021977694
0.00025235708
0.00023694798
0.00022741037
0.00022311556
0.00022121883
0.00022044921
0.00022024455
0.00022033807
0.00022059781
0.00022095572
0.00022137575
0.0002218388
0.00022233525
0.00022286114
0.00022341621
0.00022399042
0.00028856762
0.0002890859
0.00028927578
0.00028946225
0.00028964739
0.00028986316
0.00029013556
0.00029050146
0.00029101381
0.00029175022
0.00029283283
0.00029387842
0.00029481728
0.00029557487
0.00029293243
0.00010292876
0.00037622865
0.00047082572
0.00047253037
0.00049383688
0.00048613826
0.00048245084
0.00012421002
0.0001212793
0.00010077017
0.00010005423
0.00010062911
0.00010197294
0.00010292737
0.00010452174
0.00020120919
0.00020767851
0.00021808342
0.00023901632
0.00023962985
0.00023076118
0.00022595755
0.00022341679
0.00022210815
0.00022149265
0.00022128019
0.00022131139
0.00022149635
0.00022178324
0.00022214186
0.00022255476
0.00022301238
0.00022351035
0.00022403522
0.00022327598
0.00022310811
0.00022281965
0.00022254083
0.00022227947
0.00022205269
0.00022187649
0.0002217742
0.00022177814
0.00022193319
0.00022230431
0.00022209481
0.00022116348
0.00021941715
0.00021672894
0.00021314693
9.5859388e-05
9.9101899e-05
9.986915e-05
9.9773973e-05
0.00010014972
0.00010017648
0.00021254001
0.00021081382
0.00020892998
0.00020554396
0.00020443552
0.00020387916
0.0002021082
0.00020212643
0.0002033069
0.00020901314
0.00021823667
0.00023217592
0.00023802136
0.00023248178
0.00022785724
0.00022508926
0.00022347595
0.00022257909
0.00022213268
0.00022197613
0.00022201167
0.00022217914
0.00022244126
0.00022277497
0.00022316633
0.00022360753
0.00022408214
0.00021926591
0.00021934578
0.00021947214
0.00021960749
0.00021976307
0.00021995101
0.0002201839
0.00022047779
0.00022085201
0.00022132936
0.00022186428
0.00022156927
0.00022081383
0.00021957785
0.00021780394
0.00021498989
0.00021250706
0.00021402927
0.0002158795
0.00021421468
0.00021238162
0.00021121581
0.00021005917
0.00020833733
0.00020730352
0.00020568608
0.00020477992
0.00020420552
0.00020347971
0.00020394851
0.00020593253
0.00021088884
0.00021854866
0.00022810834
0.00023383187
0.00023318194
0.00022902049
0.00022628586
0.00022454823
0.00022348484
0.00022287564
0.00022257523
0.00022248856
0.00022255358
0.00022272974
0.00022299065
0.00022331939
0.00022370551
0.00022413004
0.00021788893
0.00021796851
0.00021809386
0.00021823263
0.00021838768
0.00021856655
0.00021877779
0.00021903248
0.00021934314
0.00021972348
0.00021997969
0.00021948765
0.00021872953
0.00021765517
0.00021622786
0.00021439223
0.00021326135
0.00021411292
0.00021527055
0.00021349522
0.00021190192
0.00021068277
0.00020952616
0.00020831115
0.00020735635
0.00020629738
0.00020564703
0.00020528644
0.0002052121
0.00020608785
0.00020833142
0.00021262052
0.00021875938
0.00022561487
0.00023030026
0.00023231276
0.00022962726
0.00022708126
0.0002253475
0.0002242103
0.00022350156
0.00022309943
0.0002229184
0.0002228993
0.00022300154
0.00022319745
0.00022346842
0.00022380222
0.0002241779
0.00021721063
0.0002173316
0.00021747134
0.00021762239
0.00021779071
0.00021798272
0.00021820459
0.00021846384
0.00021876748
0.00021912092
0.00021921524
0.00021877213
0.00021812057
0.00021723054
0.00021608169
0.00021482243
0.00021419555
0.00021469917
0.00021503901
0.0002134116
0.00021201408
0.00021086213
0.00020980461
0.00020882308
0.000208003
0.00020726744
0.00020684886
0.00020673406
0.00020703018
0.00020812322
0.00021033548
0.00021399265
0.00021887094
0.00022400972
0.00022786329
0.00023021886
0.00022984653
0.00022755945
0.00022591079
0.00022476849
0.00022401216
0.00022354572
0.0002232966
0.00022321164
0.00022325251
0.00022339195
0.00022361082
0.0002238959
0.00022422479
0.00021692137
0.00021699447
0.00021711048
0.00021724566
0.0002173981
0.00021757133
0.00021776915
0.00021799644
0.00021825709
0.0002185526
0.00021852353
0.00021813406
0.00021760155
0.00021691439
0.00021608508
0.00021529091
0.0002149774
0.00021536565
0.00021499581
0.00021359471
0.0002123693
0.00021132277
0.00021038931
0.0002095689
0.00020889454
0.00020837638
0.00020813559
0.00020820854
0.00020871227
0.00020988785
0.00021195317
0.00021505086
0.00021895121
0.00022294368
0.00022613941
0.00022830399
0.00022930045
0.00022779405
0.00022627857
0.0002251789
0.00022441519
0.00022391573
0.00022362192
0.00022348818
0.00022347998
0.00022357169
0.00022374456
0.00022398507
0.00022426991
0.00021677873
0.00021689175
0.00021701731
0.00021715302
0.00021730289
0.00021746999
0.000217656
0.00021786278
0.00021809041
0.0002183357
0.00021824934
0.00021790067
0.00021744846
0.00021689739
0.0002162875
0.00021577768
0.0002156352
0.00021596298
0.0002150486
0.00021385929
0.00021279609
0.00021187009
0.00021106092
0.00021037614
0.00020983864
0.00020948097
0.0002093784
0.00020958352
0.00021019771
0.00021137699
0.00021325725
0.00021588301
0.00021904275
0.00022223369
0.00022490837
0.00022685685
0.00022809026
0.0002278509
0.00022649042
0.00022546366
0.00022472187
0.00022421427
0.00022389562
0.00022372836
0.00022368259
0.00022373508
0.00022386818
0.00022406863
0.00022431263
0.00021670545
0.0002167756
0.00021688202
0.00021700531
0.00021714299
0.00021729616
0.00021746502
0.00021764975
0.00021784848
0.00021805572
0.00021796846
0.00021768329
0.00021732737
0.00021691381
0.00021649096
0.00021618373
0.00021615699
0.00021618167
0.00021514075
0.00021413973
0.00021322853
0.00021242692
0.0002117374
0.00021117333
0.00021075742
0.00021052522
0.00021053116
0.00021082782
0.00021149528
0.0002126352
0.00021432558
0.00021656011
0.00021915755
0.00022176475
0.00022402382
0.0002257605
0.00022694921
0.00022750558
0.00022658057
0.00022564452
0.00022494486
0.00022444807
0.00022412074
0.00022393309
0.00022386007
0.00022388133
0.00022398076
0.00022414576
0.00022435248
0.0002166522
0.00021674375
0.00021685058
0.00021696672
0.00021709374
0.0002172326
0.00021738243
0.00021754204
0.00021770808
0.00021787379
0.00021779707
0.00021755917
0.00021727677
0.00021696879
0.00021668296
0.00021651287
0.00021656386
0.00021610931
0.0002152541
0.00021441763
0.00021364674
0.00021296642
0.00021239051
0.00021193632
0.00021162731
0.00021149667
0.00021158732
0.00021194553
0.00021263142
0.00021371013
0.00021522116
0.00021713395
0.00021929958
0.00022146761
0.0002233925
0.00022493396
0.0002260521
0.00022677695
0.00022657915
0.00022574176
0.00022509704
0.00022462476
0.00022430142
0.00022410428
0.00022401301
0.00022401028
0.00022408182
0.00022421596
0.0002243891
0.00021662008
0.00021668678
0.00021678176
0.00021688913
0.0002170067
0.00021713419
0.00021726971
0.00021741107
0.00021755392
0.0002176908
0.00021764828
0.00021746026
0.00021724638
0.00021702773
0.0002168471
0.00021677411
0.00021670998
0.00021608852
0.00021538623
0.00021469269
0.0002140494
0.00021348321
0.00021301316
0.00021265876
0.00021244329
0.00021239628
0.00021255263
0.00021295044
0.00021363326
0.00021464128
0.00021598964
0.00021763823
0.00021946722
0.00022129592
0.00022294938
0.00022431589
0.0002253522
0.00022606794
0.00022637974
0.00022577293
0.00022519056
0.00022475218
0.0002244424
0.00022424454
0.00022414263
0.00022412233
0.00022417129
0.00022427898
0.00022442232
0.00021659629
0.00021666873
0.00021675917
0.00021685773
0.00021696408
0.00021707784
0.0002171967
0.000217318
0.00021743707
0.00021754654
0.00021753803
0.00021739167
0.00021723391
0.00021708574
0.00021698344
0.0002169516
0.00021664406
0.00021610976
0.00021553548
0.0002149663
0.00021443809
0.00021397722
0.00021360456
0.00021334024
0.0002132064
0.00021322877
0.00021343584
0.00021385764
0.00021452466
0.00021546009
0.00021666435
0.00021809558
0.00021965812
0.00022121899
0.00022264977
0.00022386169
0.00022481324
0.00022550263
0.00022595419
0.00022575329
0.00022523649
0.00022483797
0.00022454863
0.00022435688
0.00022425059
0.00022421823
0.0002242494
0.00022433481
0.00022445204
0.00021658542
0.00021664557
0.00021672821
0.00021681934
0.00021691703
0.0002170203
0.00021712641
0.00021723237
0.00021733341
0.00021742256
0.00021744916
0.00021734005
0.00021722955
0.0002171373
0.00021709344
0.00021696832
0.00021660054
0.00021616572
0.00021570015
0.00021523953
0.00021481448
0.00021444965
0.00021416574
0.00021398233
0.00021391976
0.0002140001
0.00021424634
0.00021468139
0.00021532576
0.00021619115
0.00021726958
0.00021852127
0.00021986986
0.00022121551
0.00022246172
0.00022353779
0.00022440611
0.00022505895
0.00022551005
0.00022566438
0.00022524457
0.00022488922
0.00022462502
0.00022444449
0.00022433883
0.00022429907
0.00022431666
0.00022438361
0.00022447828
0.00021658178
0.00021664047
0.00021671751
0.00021680086
0.00021688918
0.00021698146
0.00021707485
0.00021716633
0.00021725136
0.0002173236
0.00021736695
0.00021730105
0.00021722886
0.00021717993
0.0002171143
0.00021689992
0.00021659951
0.0002162494
0.00021587738
0.00021551201
0.00021517927
0.00021490143
0.00021469796
0.00021458709
0.00021458695
0.00021471613
0.00021499291
0.00021543418
0.00021605294
0.00021685329
0.00021782284
0.00021892546
0.00022009995
0.00022126998
0.00022236163
0.0002233184
0.00022410729
0.00022471789
0.00022515718
0.00022544331
0.00022522317
0.00022491236
0.00022467624
0.0002245106
0.00022440946
0.00022436609
0.00022437372
0.00022442566
0.00022450113
0.00021658663
0.00021663887
0.00021671009
0.00021678693
0.00021686754
0.00021695077
0.00021703371
0.00021711346
0.00021718585
0.00021724534
0.00021728483
0.00021726903
0.00021722802
0.00021717791
0.00021706199
0.00021687262
0.00021663159
0.00021635486
0.00021606429
0.00021578298
0.00021553288
0.00021533368
0.00021520299
0.00021515722
0.00021521212
0.00021538303
0.00021568412
0.00021612736
0.00021672021
0.00021746175
0.00021833763
0.00021931583
0.00022034697
0.00022137174
0.00022233268
0.00022318441
0.00022389862
0.00022446412
0.00022488376
0.00022517012
0.00022517961
0.00022491321
0.00022470669
0.00022455838
0.00022446462
0.00022442067
0.00022442138
0.00022446135
0.00022452073
0.00021659742
0.00021664638
0.00021671262
0.0002167832
0.00021685644
0.00021693123
0.00021700475
0.00021707436
0.00021713636
0.00021718603
0.00021721759
0.00021722439
0.00021719925
0.00021713533
0.0002170277
0.00021687685
0.00021668875
0.00021647645
0.00021625755
0.0002160509
0.00021587501
0.00021574694
0.00021568222
0.00021569515
0.00021579903
0.00021600623
0.00021632735
0.00021677037
0.00021733862
0.000218028
0.0002188236
0.00021969737
0.00022060917
0.00022151229
0.00022236149
0.00022312029
0.00022376472
0.000224284
0.00022467861
0.00022495731
0.00022509781
0.00022489671
0.00022472029
0.00022459078
0.00022450643
0.00022446421
0.00022446047
0.00022449111
0.00022453726
0.00021661359
0.00021665859
0.00021672034
0.00021678555
0.00021685247
0.00021692004
0.00021698561
0.00021704687
0.00021710064
0.00021714306
0.0002171696
0.00021717522
0.00021715482
0.00021710397
0.00021702008
0.00021690505
0.00021676453
0.00021660944
0.00021645421
0.00021631436
0.00021620544
0.00021614199
0.00021613735
0.00021620363
0.00021635173
0.00021659126
0.00021692974
0.00021737188
0.00021791797
0.00021856189
0.00021928892
0.00022007462
0.0002208861
0.00022168614
0.00022243884
0.00022311481
0.00022369413
0.00022416702
0.0002245328