/*--------------------------------*- C++ -*----------------------------------*\
| =========                 |                                                 |
| \\      /  F ield         | foam-extend: Open Source CFD                    |
|  \\    /   O peration     | Version:     4.1                                |
|   \\  /    A nd           | Web:         http://www.foam-extend.org         |
|    \\/     M anipulation  |                                                 |
\*---------------------------------------------------------------------------*/
FoamFile
{
    version     2.0;
    format      ascii;
    class       volVectorField;
    location    "1.7";
    object      U;
}
// * * * * * * * * * * * * * * * * * * * * * * * * * * * * * * * * * * * * * //

dimensions      [0 1 -1 0 0 0 0];

internalField   nonuniform List<vector> 
4393
(
(146.04865 -0.15650748 0)
(146.59727 -0.16294168 0)
(147.01158 -0.16595605 0)
(147.45282 -0.16960706 0)
(147.90388 -0.17401521 0)
(148.3697 -0.17926597 0)
(148.85245 -0.18528117 0)
(149.35431 -0.19191454 0)
(149.87687 -0.19896041 0)
(150.42105 -0.20615574 0)
(150.98687 -0.21318031 0)
(151.57333 -0.21965993 0)
(152.17823 -0.22517521 0)
(152.79805 -0.22927748 0)
(153.42789 -0.23151177 0)
(154.06153 -0.2314448 0)
(154.69145 -0.22869249 0)
(155.30913 -0.2229415 0)
(155.90518 -0.21396021 0)
(156.46968 -0.20159893 0)
(156.99234 -0.18578295 0)
(157.46276 -0.16650474 0)
(157.87061 -0.1438216 0)
(158.20579 -0.11786404 0)
(158.45876 -0.088858302 0)
(158.62082 -0.057159954 0)
(158.68465 -0.023275673 0)
(158.64505 0.012127697 0)
(158.49869 0.047975031 0)
(158.24643 0.082851151 0)
(157.89325 0.1153099 0)
(157.44848 0.14394035 0)
(156.92549 0.16751412 0)
(156.34092 0.18513844 0)
(155.71343 0.19635485 0)
(155.06239 0.20115881 0)
(154.40654 0.19994591 0)
(153.76293 0.1934091 0)
(153.14628 0.18241768 0)
(152.56859 0.1679037 0)
(152.03915 0.15077177 0)
(151.5647 0.13183778 0)
(151.1498 0.11179572 0)
(150.7972 0.091219212 0)
(150.50829 0.070612435 0)
(150.28349 0.050433781 0)
(150.12223 0.030838442 0)
(150.02092 0.011723718 0)
(149.97389 -0.0031697041 0)
(149.4717 -0.3949277 0)
(149.94111 -0.40587998 0)
(150.28737 -0.41398047 0)
(150.65737 -0.42452339 0)
(151.03702 -0.43762401 0)
(151.43131 -0.45331815 0)
(151.84259 -0.47133561 0)
(152.27313 -0.49123095 0)
(152.72459 -0.51239174 0)
(153.19798 -0.53403695 0)
(153.69341 -0.55521477 0)
(154.20994 -0.57481057 0)
(154.74545 -0.59157167 0)
(155.29644 -0.60415373 0)
(155.85803 -0.61118948 0)
(156.42393 -0.61137288 0)
(156.98659 -0.60354344 0)
(157.53735 -0.58675226 0)
(158.06674 -0.56029642 0)
(158.56472 -0.52372003 0)
(159.0209 -0.47679369 0)
(159.42479 -0.41949161 0)
(159.76593 -0.35198651 0)
(160.03413 -0.27467861 0)
(160.21966 -0.18826955 0)
(160.31362 -0.093878347 0)
(160.30846 0.0068461716 0)
(160.19859 0.11166165 0)
(159.98188 0.21749044 0)
(159.65904 0.32052031 0)
(159.23481 0.41655618 0)
(158.71837 0.50140254 0)
(158.12312 0.57136883 0)
(157.46584 0.62374783 0)
(156.76545 0.65712072 0)
(156.04156 0.67142033 0)
(155.3131 0.66777139 0)
(154.59723 0.64818379 0)
(153.90868 0.61519134 0)
(153.25939 0.57151263 0)
(152.65853 0.51978085 0)
(152.11275 0.4623583 0)
(151.62648 0.40123289 0)
(151.20244 0.33800764 0)
(150.84202 0.27400106 0)
(150.54554 0.21027157 0)
(150.31219 0.1471082 0)
(150.14086 0.084346787 0)
(150.03531 0.028581514 0)
(149.73715 -0.62941533 0)
(150.19137 -0.63859343 0)
(150.52666 -0.65074443 0)
(150.88482 -0.66773661 0)
(151.25266 -0.68941872 0)
(151.63526 -0.71556852 0)
(152.03512 -0.74567638 0)
(152.4546 -0.7789835 0)
(152.89553 -0.8144677 0)
(153.35902 -0.8508274 0)
(153.84537 -0.8864727 0)
(154.35381 -0.91953528 0)
(154.88233 -0.94790767 0)
(155.42757 -0.96932067 0)
(155.98469 -0.98146075 0)
(156.54742 -0.98211645 0)
(157.10812 -0.96932659 0)
(157.65806 -0.94149596 0)
(158.18764 -0.89745331 0)
(158.68673 -0.83644813 0)
(159.14485 -0.7581077 0)
(159.55141 -0.66238953 0)
(159.89586 -0.54956619 0)
(160.16783 -0.42027163 0)
(160.3573 -0.2756283 0)
(160.45498 -0.11745844 0)
(160.4528 0.051465276 0)
(160.34454 0.22725861 0)
(160.12657 0.40486385 0)
(159.79893 0.57804081 0)
(159.36613 0.73969015 0)
(158.83755 0.88261495 0)
(158.22724 1.0004575 0)
(157.55303 1.0885646 0)
(156.83502 1.1445305 0)
(156.09397 1.1682991 0)
(155.34975 1.1618665 0)
(154.62017 1.1287295 0)
(153.92026 1.0732492 0)
(153.26201 1.0000622 0)
(152.65444 0.91362084 0)
(152.10388 0.81788278 0)
(151.61445 0.7161452 0)
(151.18851 0.61101858 0)
(150.82719 0.50452062 0)
(150.53035 0.39807938 0)
(150.29671 0.29220938 0)
(150.12702 0.18720851 0)
(150.02928 0.087415368 0)
(149.82969 -0.85843971 0)
(150.27598 -0.86821845 0)
(150.60668 -0.88446877 0)
(150.96001 -0.90801209 0)
(151.32328 -0.93845997 0)
(151.70165 -0.97536178 0)
(152.09781 -1.0179746 0)
(152.51434 -1.0652417 0)
(152.95325 -1.1157497 0)
(153.41592 -1.1676928 0)
(153.90287 -1.2188509 0)
(154.41353 -1.2665972 0)
(154.94609 -1.3079474 0)
(155.49727 -1.3396672 0)
(156.06224 -1.358442 0)
(156.63456 -1.3610952 0)
(157.20638 -1.3448127 0)
(157.76862 -1.3073186 0)
(158.31138 -1.2469593 0)
(158.82415 -1.1626886 0)
(159.2962 -1.0539894 0)
(159.71667 -0.9207865 0)
(160.07472 -0.763408 0)
(160.35964 -0.58264181 0)
(160.56094 -0.37991392 0)
(160.66863 -0.15759747 0)
(160.67381 0.080597118 0)
(160.56925 0.32930533 0)
(160.35029 0.58131093 0)
(160.01617 0.82759534 0)
(159.57098 1.0578152 0)
(159.02442 1.2613901 0)
(158.39157 1.4289359 0)
(157.69189 1.5536154 0)
(156.94738 1.6319741 0)
(156.18062 1.6640737 0)
(155.41294 1.6530044 0)
(154.66311 1.6040215 0)
(153.94664 1.5235761 0)
(153.27555 1.4184428 0)
(152.65858 1.2950559 0)
(152.10162 1.1590801 0)
(151.60821 1.0151987 0)
(151.18022 0.86708697 0)
(150.81826 0.71750405 0)
(150.52165 0.56833199 0)
(150.28881 0.42059921 0)
(150.12121 0.27535199 0)
(150.02715 0.13502781 0)
(149.93868 -1.0819889 0)
(150.37689 -1.0933131 0)
(150.70225 -1.1137827 0)
(151.05022 -1.1439939 0)
(151.40846 -1.1833872 0)
(151.78231 -1.2313229 0)
(152.17464 -1.2868379 0)
(152.58829 -1.3485876 0)
(153.02557 -1.4147751 0)
(153.48816 -1.483091 0)
(153.97688 -1.5506748 0)
(154.4915 -1.6141124 0)
(155.03041 -1.6694932 0)
(155.59049 -1.7125453 0)
(156.16686 -1.7388642 0)
(156.75291 -1.7442181 0)
(157.34041 -1.7248708 0)
(157.91986 -1.6778338 0)
(158.48082 -1.6009805 0)
(159.01238 -1.4930082 0)
(159.50341 -1.3533012 0)
(159.94274 -1.181781 0)
(160.31922 -0.97882663 0)
(160.62172 -0.74533142 0)
(160.83915 -0.4829368 0)
(160.96066 -0.19445484 0)
(160.9762 0.11557734 0)
(160.87718 0.44041933 0)
(160.65742 0.77077115 0)
(160.31489 1.0946573 0)
(159.85303 1.3980624 0)
(159.28188 1.6664446 0)
(158.618 1.8868348 0)
(157.88319 2.0498423 0)
(157.1022 2.1508747 0)
(156.3002 2.1902807 0)
(155.50055 2.1725803 0)
(154.72334 2.1051784 0)
(153.98465 1.9969728 0)
(153.2965 1.8571453 0)
(152.66718 1.6942752 0)
(152.10186 1.5157967 0)
(151.60334 1.3277552 0)
(151.17274 1.1347962 0)
(150.80996 0.94027931 0)
(150.51372 0.74639855 0)
(150.2822 0.55445049 0)
(150.11706 0.36562293 0)
(150.02586 0.1811952 0)
(150.07625 -1.302998 0)
(150.50449 -1.3163596 0)
(150.82303 -1.3412353 0)
(151.16418 -1.3783369 0)
(151.51607 -1.4269999 0)
(151.88416 -1.4864528 0)
(152.27161 -1.555551 0)
(152.68154 -1.6326961 0)
(153.11662 -1.7157357 0)
(153.57895 -1.8018744 0)
(154.06976 -1.8876099 0)
(154.58921 -1.9687147 0)
(155.13605 -2.0402907 0)
(155.70733 -2.0969301 0)
(156.29817 -2.1330092 0)
(156.90171 -2.1431035 0)
(157.50923 -2.12244 0)
(158.1106 -2.0672551 0)
(158.69474 -1.9749442 0)
(159.25017 -1.8439829 0)
(159.7653 -1.6736986 0)
(160.22859 -1.4640211 0)
(160.62855 -1.2153345 0)
(160.9536 -0.92852105 0)
(161.19197 -0.6052525 0)
(161.33173 -0.24855233 0)
(161.36133 0.13643002 0)
(161.27037 0.54166564 0)
(161.05056 0.95568263 0)
(160.69801 1.3632638 0)
(160.2151 1.7461184 0)
(159.61222 2.0849082 0)
(158.90792 2.3622597 0)
(158.12726 2.5657021 0)
(157.2988 2.6894083 0)
(156.45124 2.7343082 0)
(155.61067 2.7068856 0)
(154.79884 2.6172994 0)
(154.03247 2.4774404 0)
(153.3234 2.2993177 0)
(152.67925 2.0939329 0)
(152.1042 1.870638 0)
(151.59997 1.6368886 0)
(151.16664 1.398274 0)
(150.80318 1.1586904 0)
(150.50755 0.9205659 0)
(150.27748 0.6852414 0)
(150.11443 0.45354629 0)
(150.02513 0.22567627 0)
(150.24308 -1.5149685 0)
(150.65977 -1.5306627 0)
(150.96998 -1.5602126 0)
(151.30274 -1.604539 0)
(151.64675 -1.6629035 0)
(152.00766 -1.7344463 0)
(152.38891 -1.817881 0)
(152.79401 -1.9113934 0)
(153.22607 -2.0125092 0)
(153.68767 -2.1179694 0)
(154.1806 -2.2236321 0)
(154.70554 -2.3244266 0)
(155.26169 -2.4143958 0)
(155.84638 -2.486874 0)
(156.45476 -2.5348526 0)
(157.07964 -2.5515348 0)
(157.71166 -2.5309676 0)
(158.33986 -2.4685482 0)
(158.95232 -2.3612222 0)
(159.5368 -2.2073364 0)
(160.08119 -2.0062667 0)
(160.5736 -1.7580175 0)
(161.00222 -1.4629655 0)
(161.35505 -1.1218665 0)
(161.61955 -0.73620312 0)
(161.78256 -0.30891022 0)
(161.83065 0.15456903 0)
(161.7511 0.64517759 0)
(161.5327 1.1493794 0)
(161.1689 1.648401 0)
(160.66038 2.118875 0)
(160.01777 2.535476 0)
(159.26225 2.8752228 0)
(158.42335 3.1217907 0)
(157.53482 3.2679866 0)
(156.63009 3.3157504 0)
(155.73878 3.2742754 0)
(154.88461 3.1572811 0)
(154.08497 2.9803447 0)
(153.35131 2.7587995 0)
(152.69017 2.5063636 0)
(152.10439 2.2344328 0)
(151.59427 1.9518793 0)
(151.15856 1.6651746 0)
(150.79506 1.3786737 0)
(150.50079 1.094973 0)
(150.27285 0.8153702 0)
(150.11214 0.54029721 0)
(150.02456 0.26917047 0)
(150.4385 -1.725487 0)
(150.84112 -1.7435312 0)
(151.14136 -1.7777767 0)
(151.46408 -1.8294355 0)
(151.79862 -1.8977454 0)
(152.15081 -1.9818133 0)
(152.52446 -2.0802683 0)
(152.92348 -2.1911389 0)
(153.35151 -2.3116834 0)
(153.81177 -2.4382207 0)
(154.30669 -2.5659851 0)
(154.83765 -2.6890389 0)
(155.40446 -2.8002844 0)
(156.00486 -2.8916442 0)
(156.63406 -2.9545003 0)
(157.28447 -2.9804275 0)
(157.94592 -2.9620791 0)
(158.60631 -2.8939121 0)
(159.2526 -2.772456 0)
(159.87166 -2.5960561 0)
(160.45075 -2.3642821 0)
(160.97768 -2.0773017 0)
(161.44042 -1.7354635 0)
(161.82664 -1.3392389 0)
(162.12308 -0.88961879 0)
(162.31516 -0.38903139 0)
(162.38721 0.15724781 0)
(162.32357 0.73948655 0)
(162.10916 1.342208 0)
(161.73356 1.9427696 0)
(161.19479 2.5117019 0)
(160.50346 3.0160278 0)
(159.68414 3.4254214 0)
(158.77249 3.7186148 0)
(157.80931 3.8869381 0)
(156.83432 3.9340393 0)
(155.88155 3.8729322 0)
(154.97708 3.7220391 0)
(154.13876 3.5015561 0)
(153.37725 3.2307736 0)
(152.69754 2.9264692 0)
(152.10064 2.6021966 0)
(151.58498 2.2682008 0)
(151.14763 1.9316998 0)
(150.78499 1.5973311 0)
(150.49296 1.2676646 0)
(150.26784 0.94374956 0)
(150.10983 0.62552155 0)
(150.02402 0.31173917 0)
(150.66194 -1.9211176 0)
(151.04896 -1.9417494 0)
(151.33766 -1.9810958 0)
(151.6486 -2.0406485 0)
(151.97192 -2.1196357 0)
(152.31367 -2.2171785 0)
(152.67803 -2.3318807 0)
(153.06942 -2.4616795 0)
(153.49209 -2.6036314 0)
(153.94999 -2.7536866 0)
(154.4464 -2.9064806 0)
(154.98357 -3.0551865 0)
(155.56211 -3.1914725 0)
(156.18037 -3.3056581 0)
(156.83371 -3.3872186 0)
(157.51409 -3.4257466 0)
(158.21022 -3.4122037 0)
(158.90854 -3.3399783 0)
(159.5945 -3.2052642 0)
(160.25383 -3.0066327 0)
(160.87317 -2.7441033 0)
(161.44009 -2.4181831 0)
(161.94255 -2.029219 0)
(162.36809 -1.577231 0)
(162.70286 -1.0623451 0)
(162.93079 -0.48593146 0)
(163.03359 0.14754924 0)
(162.99193 0.82829413 0)
(162.78558 1.539295 0)
(162.3987 2.2537982 0)
(161.82504 2.9349531 0)
(161.07464 3.539783 0)
(160.17649 4.028052 0)
(159.17461 4.3719623 0)
(158.11948 4.5612831 0)
(157.05912 4.6024516 0)
(156.03308 4.5139031 0)
(155.06998 4.320315 0)
(154.18784 4.0476973 0)
(153.39588 3.7200512 0)
(152.69685 3.3575809 0)
(152.08927 2.9760838 0)
(151.56921 2.5870919 0)
(151.1317 2.1983984 0)
(150.77142 1.8147262 0)
(150.48301 1.4384161 0)
(150.2618 1.0700783 0)
(150.10717 0.70903361 0)
(150.02341 0.35333838 0)
(150.91315 -2.1186475 0)
(151.28126 -2.141744 0)
(151.55657 -2.1860404 0)
(151.85384 -2.2533968 0)
(152.16406 -2.3430956 0)
(152.49348 -2.4543394 0)
(152.8467 -2.5857879 0)
(153.22868 -2.7353806 0)
(153.64438 -2.9000705 0)
(154.09863 -3.0755284 0)
(154.59574 -3.2558525 0)
(155.13905 -3.4333335 0)
(155.73028 -3.5983282 0)
(156.36862 -3.7393429 0)
(157.04975 -3.8435763 0)
(157.7651 -3.8981627 0)
(158.50193 -3.8919544 0)
(159.24465 -3.8170986 0)
(159.97674 -3.669591 0)
(160.68248 -3.4485801 0)
(161.34784 -3.1549161 0)
(161.96036 -2.7896996 0)
(162.5083 -2.3533187 0)
(162.97946 -1.8451291 0)
(163.35965 -1.2638967 0)
(163.63137 -0.60918759 0)
(163.77331 0.1162576 0)
(163.76175 0.90347613 0)
(163.56971 1.7345874 0)
(163.17367 2.578697 0)
(162.56076 3.3900658 0)
(161.73928 4.1124265 0)
(160.7439 4.6918108 0)
(159.63036 5.091575 0)
(158.46244 5.2999775 0)
(157.29913 5.3279724 0)
(156.18675 5.2017663 0)
(155.15653 4.9544133 0)
(154.22594 4.6192509 0)
(153.40182 4.225851 0)
(152.68374 3.7981782 0)
(152.06693 3.3542599 0)
(151.54451 2.9067083 0)
(151.10899 2.4636086 0)
(150.75315 2.0294774 0)
(150.47014 1.6061611 0)
(150.25423 1.1936147 0)
(150.10391 0.79040637 0)
(150.02268 0.39378966 0)
(151.19024 -2.2910149 0)
(151.53843 -2.3167067 0)
(151.79872 -2.3663397 0)
(152.08047 -2.4421058 0)
(152.37564 -2.5433566 0)
(152.6907 -2.6694423 0)
(153.03068 -2.8191698 0)
(153.40114 -2.990592 0)
(153.80786 -3.180681 0)
(154.25668 -3.3849456 0)
(154.75317 -3.5970325 0)
(155.30204 -3.8083755 0)
(155.90644 -4.0079397 0)
(156.56681 -4.1821637 0)
(157.27943 -4.3154663 0)
(158.03512 -4.3918232 0)
(158.81926 -4.3973265 0)
(159.61348 -4.3225893 0)
(160.39856 -4.1636005 0)
(161.15697 -3.9206131 0)
(161.874 -3.5958866 0)
(162.5375 -3.1915181 0)
(163.13656 -2.7080696 0)
(163.65977 -2.1440487 0)
(164.0931 -1.4963024 0)
(164.41781 -0.76166181 0)
(164.60931 0.060055079 0)
(164.63868 0.96209755 0)
(164.47022 1.9268828 0)
(164.06971 2.919734 0)
(163.41391 3.8844186 0)
(162.50724 4.7467569 0)
(161.39169 5.433214 0)
(160.13957 5.8948168 0)
(158.83329 6.1186645 0)
(157.54638 6.1229928 0)
(156.33328 5.94523 0)
(155.22749 5.6296837 0)
(154.24477 5.2188973 0)
(153.38815 4.7489463 0)
(152.65274 4.2478043 0)
(152.02949 3.7355687 0)
(151.50785 3.2255798 0)
(151.07744 2.7258094 0)
(150.72879 2.2401845 0)
(150.45348 1.7697282 0)
(150.24464 1.313482 0)
(150.09984 0.86908112 0)
(150.02177 0.43282766 0)
(151.49472 -2.4739408 0)
(151.81854 -2.5023073 0)
(152.06164 -2.5572377 0)
(152.32565 -2.6413671 0)
(152.6035 -2.7541952 0)
(152.90181 -2.8953 0)
(153.22605 -3.0637413 0)
(153.58242 -3.2578169 0)
(153.97759 -3.4746715 0)
(154.41861 -3.7098115 0)
(154.9125 -3.9565679 0)
(155.46573 -4.2055922 0)
(156.08335 -4.4444242 0)
(156.76757 -4.6571886 0)
(157.51573 -4.8249244 0)
(158.31808 -4.9275112 0)
(159.15749 -4.9473736 0)
(160.01172 -4.8732296 0)
(160.85782 -4.7014652 0)
(161.67585 -4.4343603 0)
(162.45052 -4.0765435 0)
(163.17044 -3.6317486 0)
(163.82625 -3.1009309 0)
(164.40817 -2.4815326 0)
(164.90308 -1.7677367 0)
(165.2915 -0.95232349 0)
(165.54549 -0.030479112 0)
(165.62922 0.99516934 0)
(165.4978 2.1090688 0)
(165.10137 3.2742102 0)
(164.40061 4.4223776 0)
(163.39206 5.4550392 0)
(162.12702 6.2699991 0)
(160.70179 6.8005636 0)
(159.22529 7.0337273 0)
(157.79035 6.9994844 0)
(156.46085 6.7515877 0)
(155.27155 6.3494618 0)
(154.23453 5.8471085 0)
(153.34696 5.2880126 0)
(152.59778 4.7041945 0)
(151.97249 4.117409 0)
(151.45612 3.5411507 0)
(151.03492 2.9827066 0)
(150.69698 2.4449203 0)
(150.43221 1.9275975 0)
(150.23259 1.4285746 0)
(150.09477 0.94434949 0)
(150.02066 0.47010868 0)
(151.82117 -2.6142419 0)
(152.1205 -2.6448432 0)
(152.34483 -2.7048917 0)
(152.58918 -2.7974063 0)
(152.8476 -2.9220573 0)
(153.12686 -3.0787458 0)
(153.43285 -3.266925 0)
(153.77243 -3.4853235 0)
(154.15323 -3.7314848 0)
(154.58366 -4.0011643 0)
(155.0725 -4.2876141 0)
(155.62834 -4.5808796 0)
(156.25868 -4.8671369 0)
(156.96828 -5.1280023 0)
(157.75623 -5.3404097 0)
(158.61243 -5.4787934 0)
(159.51634 -5.5204526 0)
(160.44027 -5.4515089 0)
(161.35593 -5.2691965 0)
(162.24027 -4.9790342 0)
(163.07759 -4.5892302 0)
(163.85812 -4.1058504 0)
(164.5751 -3.5304136 0)
(165.22158 -2.8590545 0)
(165.78662 -2.082508 0)
(166.25078 -1.1879823 0)
(166.58288 -0.16394154 0)
(166.73966 0.99335903 0)
(166.66452 2.2731109 0)
(166.28677 3.6389012 0)
(165.54211 5.0098614 0)
(164.41192 6.2543186 0)
(162.95901 7.2269012 0)
(161.31534 7.8344859 0)
(159.62834 8.0665748 0)
(158.01641 7.9722259 0)
(156.55384 7.6291006 0)
(155.27439 7.1168511 0)
(154.18328 6.5035083 0)
(153.26894 5.8406696 0)
(152.51201 5.1640552 0)
(151.89111 4.4962868 0)
(151.38603 3.8501425 0)
(150.97928 3.2314483 0)
(150.65638 2.6413436 0)
(150.40554 2.0779534 0)
(150.21767 1.5375821 0)
(150.08855 1.0153696 0)
(150.01929 0.50522137 0)
(152.17437 -2.781701 0)
(152.44345 -2.8154464 0)
(152.6465 -2.8813521 0)
(152.86864 -2.9829502 0)
(153.10494 -3.1201782 0)
(153.36215 -3.2933627 0)
(153.64655 -3.5024854 0)
(153.96561 -3.7468795 0)
(154.328 -4.0247069 0)
(154.74363 -4.3322261 0)
(155.22333 -4.6628583 0)
(155.7783 -5.0062237 0)
(156.41919 -5.347206 0)
(157.1544 -5.6647153 0)
(157.98601 -5.9306512 0)
(158.90406 -6.1120157 0)
(159.88357 -6.178675 0)
(160.88905 -6.1130613 0)
(161.88457 -5.9141557 0)
(162.84286 -5.5929762 0)
(163.7482 -5.163637 0)
(164.59363 -4.6360439 0)
(165.37632 -4.0130001 0)
(166.09364 -3.2895226 0)
(166.73839 -2.4522649 0)
(167.29255 -1.4808941 0)
(167.72216 -0.35403156 0)
(167.97605 0.94203562 0)
(167.98427 2.4053575 0)
(167.64889 4.0055513 0)
(166.86725 5.6508853 0)
(165.59223 7.1651148 0)
(163.89993 8.3360638 0)
(161.97684 9.0293724 0)
(160.02767 9.2431449 0)
(158.20455 9.0574967 0)
(156.59194 8.5853153 0)
(155.21824 7.9330596 0)
(154.0769 7.1854648 0)
(153.1436 6.4024135 0)
(152.38801 5.6223255 0)
(151.7803 4.8673487 0)
(151.2943 4.148287 0)
(150.90847 3.4684911 0)
(150.60574 2.8266456 0)
(150.37277 2.2186715 0)
(150.19952 1.6389955 0)
(150.08104 1.081179 0)
(150.01764 0.53769603 0)
(152.54149 -2.8799254 0)
(152.78123 -2.9150693 0)
(152.9615 -2.9852106 0)
(153.15946 -3.0942704 0)
(153.37136 -3.2424444 0)
(153.60394 -3.430569 0)
(153.86378 -3.6593141 0)
(154.15893 -3.9288614 0)
(154.49911 -4.2383365 0)
(154.89587 -4.5849576 0)
(155.36244 -4.9628364 0)
(155.91308 -5.3616726 0)
(156.56244 -5.7655196 0)
(157.32392 -6.1508669 0)
(158.20454 -6.483951 0)
(159.19552 -6.7219289 0)
(160.266 -6.8239153 0)
(161.36889 -6.7670403 0)
(162.45685 -6.5534682 0)
(163.49672 -6.2030084 0)
(164.47349 -5.7385854 0)
(165.38487 -5.1749911 0)
(166.23398 -4.5159044 0)
(167.02457 -3.7543284 0)
(167.7559 -2.8713577 0)
(168.41384 -1.8362652 0)
(168.9628 -0.61388526 0)
(169.3436 0.82342017 0)
(169.47231 2.486943 0)
(169.21658 4.3602581 0)
(168.41555 6.3473258 0)
(166.96926 8.213902 0)
(164.96648 9.642026 0)
(162.67968 10.429221 0)
(160.40138 10.596102 0)
(158.32709 10.273572 0)
(156.54871 9.6266784 0)
(155.08125 8.7967573 0)
(153.89891 7.887519 0)
(152.95932 6.9662231 0)
(152.21798 6.0719513 0)
(151.63507 5.2242765 0)
(151.17783 4.4302952 0)
(150.82064 3.6896082 0)
(150.54403 2.9975748 0)
(150.33334 2.3473495 0)
(150.17788 1.7311359 0)
(150.07212 1.1407167 0)
(150.01568 0.56701699 0)
(152.93669 -3.031191 0)
(153.14021 -3.0702844 0)
(153.29514 -3.1470039 0)
(153.46638 -3.265838 0)
(153.6511 -3.4274144 0)
(153.85576 -3.6332838 0)
(154.08706 -3.8850584 0)
(154.35351 -4.1840815 0)
(154.66576 -4.5308315 0)
(155.03707 -4.923968 0)
(155.48329 -5.3588192 0)
(156.02231 -5.8256017 0)
(156.67359 -6.3078655 0)
(157.4574 -6.7798891 0)
(158.38873 -7.2012853 0)
(159.46236 -7.5152799 0)
(160.64 -7.6638572 0)
(161.85748 -7.6149452 0)
(163.05047 -7.3752999 0)
(164.17785 -6.978385 0)
(165.22714 -6.4607297 0)
(166.20412 -5.8443282 0)
(167.12039 -5.1346167 0)
(167.98831 -4.3240316 0)
(168.81644 -3.3897692 0)
(169.59756 -2.2900633 0)
(170.29563 -0.9722643 0)
(170.84329 0.61058249 0)
(171.14383 2.4901767 0)
(171.02532 4.6787564 0)
(170.24165 7.0945607 0)
(168.59636 9.4337653 0)
(166.18226 11.207868 0)
(163.41176 12.093697 0)
(160.71666 12.166306 0)
(158.34567 11.639815 0)
(156.38997 10.75676 0)
(154.8369 9.7023601 0)
(153.63061 8.6001042 0)
(152.70376 7.5217499 0)
(151.99422 6.5034458 0)
(151.45083 5.5590926 0)
(151.03402 4.6898039 0)
(150.71438 3.8899075 0)
(150.47051 3.1504834 0)
(150.2869 2.4613568 0)
(150.1526 1.812198 0)
(150.06175 1.1928551 0)
(150.01342 0.59263911 0)
(153.33138 -3.0769533 0)
(153.50049 -3.1161864 0)
(153.62854 -3.1955778 0)
(153.77088 -3.3199783 0)
(153.92575 -3.4903231 0)
(154.09924 -3.7088227 0)
(154.29807 -3.9780304 0)
(154.53108 -4.3005337 0)
(154.80977 -4.6783922 0)
(155.14915 -5.1121769 0)
(155.56805 -5.5991767 0)
(156.08862 -6.1309966 0)
(156.73608 -6.6916738 0)
(157.53981 -7.2547362 0)
(158.5275 -7.7739372 0)
(159.70206 -8.1747568 0)
(161.01607 -8.373635 0)
(162.37924 -8.3248141 0)
(163.70064 -8.0444489 0)
(164.92725 -7.5896756 0)
(166.05168 -7.0196019 0)
(167.09228 -6.3664122 0)
(168.07182 -5.6360882 0)
(169.01288 -4.8189532 0)
(169.93748 -3.8864288 0)
(170.85138 -2.7790257 0)
(171.72246 -1.4148503 0)
(172.47756 0.28410564 0)
(173.01249 2.3777611 0)
(173.11608 4.9215013 0)
(172.42062 7.8765857 0)
(170.55403 10.866808 0)
(167.58184 13.127485 0)
(164.15082 14.105618 0)
(160.92388 14.004921 0)
(158.20699 13.175069 0)
(156.07185 11.973681 0)
(154.45378 10.637824 0)
(153.25152 9.3080884 0)
(152.36454 8.0545262 0)
(151.70975 6.9045489 0)
(151.22389 5.8620784 0)
(150.86109 4.91942 0)
(150.58893 4.0639217 0)
(150.38492 3.281423 0)
(150.2334 2.5579188 0)
(150.12367 1.8803141 0)
(150.04994 1.2364432 0)
(150.01084 0.61400935 0)
(153.75538 -3.2106637 0)
(153.88239 -3.2555754 0)
(153.98134 -3.3426144 0)
(154.09271 -3.4772147 0)
(154.21544 -3.6608826 0)
(154.35491 -3.8968822 0)
(154.51758 -4.1892425 0)
(154.71228 -4.5425061 0)
(154.95099 -4.961249 0)
(155.25013 -5.4492031 0)
(155.63151 -6.0072126 0)
(156.12183 -6.6298894 0)
(156.75256 -7.3030992 0)
(157.56417 -8.0014461 0)
(158.6037 -8.6743481 0)
(159.89085 -9.2233974 0)
(161.36817 -9.5220627 0)
(162.90519 -9.4975615 0)
(164.36929 -9.1781552 0)
(165.69077 -8.6554778 0)
(166.87363 -8.021063 0)
(167.95883 -7.3170733 0)
(168.98574 -6.5443574 0)
(169.98964 -5.6890562 0)
(171.01221 -4.7215428 0)
(172.08168 -3.5675367 0)
(173.1743 -2.1153764 0)
(174.20873 -0.25752095 0)
(175.06658 2.0893138 0)
(175.52471 5.0322375 0)
(175.04956 8.6561816 0)
(172.96282 12.559052 0)
(169.21577 15.54162 0)
(164.8549 16.579786 0)
(160.947 16.174768 0)
(157.83682 14.893908 0)
(155.53894 13.265731 0)
(153.8958 11.581426 0)
(152.74054 9.988923 0)
(151.93046 8.5451239 0)
(151.35925 7.2599804 0)
(150.95218 6.1218172 0)
(150.65851 5.1108729 0)
(150.44444 4.2057801 0)
(150.28759 3.3862963 0)
(150.17313 2.634235 0)
(150.0913 1.9336397 0)
(150.03677 1.2703609 0)
(150.00798 0.63059354 0)
(154.13572 -3.1948266 0)
(154.222 -3.2380365 0)
(154.29003 -3.3246609 0)
(154.3677 -3.461043 0)
(154.45471 -3.6492395 0)
(154.55545 -3.8934605 0)
(154.67581 -4.1989941 0)
(154.82423 -4.5720327 0)
(155.01274 -5.0192997 0)
(155.25881 -5.5474066 0)
(155.58736 -6.160836 0)
(156.03046 -6.8575473 0)
(156.62665 -7.6254196 0)
(157.42958 -8.4418946 0)
(158.51564 -9.2570788 0)
(159.93826 -9.9455653 0)
(161.63245 -10.313783 0)
(163.40453 -10.244287 0)
(165.05431 -9.7928293 0)
(166.48686 -9.1126712 0)
(167.72776 -8.3539062 0)
(168.8558 -7.5752322 0)
(169.93121 -6.7697942 0)
(170.99705 -5.9227625 0)
(172.1158 -5.0183397 0)
(173.34815 -3.9701779 0)
(174.68453 -2.6194662 0)
(176.03327 -0.79594433 0)
(177.28267 1.6462683 0)
(178.24535 4.9156599 0)
(178.21536 9.3276016 0)
(175.98332 14.535298 0)
(171.1532 18.675039 0)
(165.44378 19.68592 0)
(160.66938 18.75376 0)
(157.13237 16.800026 0)
(154.72281 14.60452 0)
(153.12365 12.49742 0)
(152.07801 10.610567 0)
(151.39329 8.9684802 0)
(150.94039 7.5514513 0)
(150.63598 6.3254629 0)
(150.42753 5.2553303 0)
(150.28223 4.3094868 0)
(150.17961 3.4610735 0)
(150.10684 2.687636 0)
(150.05591 1.9704597 0)
(150.02243 1.2935848 0)
(150.00486 0.6419079 0)
(154.44885 -3.3023953 0)
(154.4852 -3.356838 0)
(154.51836 -3.4547308 0)
(154.55806 -3.6034976 0)
(154.60459 -3.8056426 0)
(154.6611 -4.0664585 0)
(154.7326 -4.3928054 0)
(154.82685 -4.7931851 0)
(154.95537 -5.2776833 0)
(155.13587 -5.8579325 0)
(155.39569 -6.5457972 0)
(155.7723 -7.3480861 0)
(156.31051 -8.2604683 0)
(157.07561 -9.2702104 0)
(158.18319 -10.341999 0)
(159.74887 -11.32828 0)
(161.70959 -11.924906 0)
(163.76919 -11.919484 0)
(165.61661 -11.407785 0)
(167.12035 -10.628574 0)
(168.34758 -9.8218718 0)
(169.44382 -9.0580508 0)
(170.49773 -8.2999549 0)
(171.5509 -7.5093192 0)
(172.69311 -6.6866504 0)
(174.04857 -5.7209994 0)
(175.65021 -4.3713347 0)
(177.40849 -2.376033 0)
(179.22644 0.47515248 0)
(181.00135 4.3268486 0)
(181.86825 9.7703146 0)
(179.76998 16.836146 0)
(173.45935 22.959142 0)
(165.7467 23.684253 0)
(159.90436 21.82854 0)
(155.95028 18.869866 0)
(153.54177 15.933292 0)
(152.09824 13.330249 0)
(151.24928 11.129428 0)
(150.75036 9.293675 0)
(150.4554 7.7581265 0)
(150.27893 6.4593384 0)
(150.1716 5.3439231 0)
(150.10504 4.369319 0)
(150.0629 3.5020746 0)
(150.03575 2.7157748 0)
(150.01815 1.9893118 0)
(150.00717 1.305262 0)
(150.00155 0.64755369 0)
(154.385 -3.2265649 0)
(154.36074 -3.2765104 0)
(154.3518 -3.3658315 0)
(154.3452 -3.5058534 0)
(154.34182 -3.7003703 0)
(154.34288 -3.9562918 0)
(154.35177 -4.282465 0)
(154.37442 -4.6901017 0)
(154.42028 -5.1929589 0)
(154.50509 -5.8077596 0)
(154.6563 -6.5537845 0)
(154.91603 -7.44675 0)
(155.3349 -8.4874716 0)
(155.98628 -9.6668482 0)
(157.03632 -10.970198 0)
(158.7182 -12.239671 0)
(161.0078 -12.990971 0)
(163.44249 -12.819857 0)
(165.52497 -11.932563 0)
(167.0675 -10.722111 0)
(168.21092 -9.6090393 0)
(169.22078 -8.6684488 0)
(170.2309 -7.7970221 0)
(171.25996 -6.8995472 0)
(172.42095 -6.0540056 0)
(173.93798 -5.1959767 0)
(175.90394 -4.0101136 0)
(178.21052 -2.1965946 0)
(180.68174 0.5140437 0)
(183.37387 4.0152576 0)
(185.59594 9.8512451 0)
(184.21879 19.141448 0)
(175.99501 28.863016 0)
(165.32587 28.721528 0)
(158.34157 25.419177 0)
(154.09614 21.018563 0)
(151.90631 17.14963 0)
(150.7884 13.99808 0)
(150.25055 11.489149 0)
(150.00813 9.4847107 0)
(149.91302 7.8578259 0)
(149.88888 6.5099836 0)
(149.89681 5.3685132 0)
(149.9172 4.3803493 0)
(149.94032 3.5063098 0)
(149.96157 2.7168416 0)
(149.97892 1.9891191 0)
(149.99135 1.3047858 0)
(149.99812 0.64725262 0)
(153.47535 -3.2563156 0)
(153.3768 -3.330048 0)
(153.30953 -3.4388733 0)
(153.23658 -3.5990022 0)
(153.16043 -3.814523 0)
(153.07996 -4.0932447 0)
(152.99627 -4.4449615 0)
(152.91259 -4.8823005 0)
(152.83524 -5.4211945 0)
(152.7764 -6.0819196 0)
(152.76185 -6.8908448 0)
(152.83873 -7.8768614 0)
(153.06505 -9.0558609 0)
(153.51252 -10.434642 0)
(154.39402 -12.057665 0)
(156.14064 -13.846963 0)
(158.84989 -15.095214 0)
(161.75904 -14.978918 0)
(164.04164 -13.952868 0)
(165.43518 -12.559499 0)
(166.22871 -11.492189 0)
(166.92168 -10.756061 0)
(167.71801 -10.149485 0)
(168.53808 -9.4729404 0)
(169.45629 -9.018065 0)
(170.86752 -8.8482623 0)
(172.96965 -8.2919359 0)
(175.65811 -7.0427274 0)
(178.57246 -4.4763689 0)
(182.42956 -0.72708809 0)
(187.15871 7.2309771 0)
(188.24591 20.228731 0)
(177.92844 36.681405 0)
(163.24719 34.969605 0)
(155.59484 29.536407 0)
(151.35128 23.103094 0)
(149.73673 18.092551 0)
(149.18484 14.388482 0)
(149.09726 11.621814 0)
(149.1865 9.5031061 0)
(149.33033 7.829296 0)
(149.4786 6.465745 0)
(149.61205 5.3227091 0)
(149.72459 4.3390655 0)
(149.81557 3.471851 0)
(149.88647 2.6897857 0)
(149.93934 1.969319 0)
(149.97543 1.2918679 0)
(149.99467 0.64087946 0)
(150.2785 -3.1554149 0)
(150.03188 -3.2215006 0)
(149.86054 -3.3061756 0)
(149.67245 -3.4360142 0)
(149.47237 -3.6162333 0)
(149.25549 -3.855661 0)
(149.01934 -4.1651585 0)
(148.76253 -4.5594973 0)
(148.4854 -5.058709 0)
(148.19168 -5.6903627 0)
(147.89685 -6.4947945 0)
(147.64236 -7.5281835 0)
(147.48311 -8.8436368 0)
(147.45912 -10.471785 0)
(147.78388 -12.508085 0)
(149.20316 -15.03596 0)
(152.18282 -17.054233 0)
(155.43161 -16.589874 0)
(157.58655 -14.746634 0)
(158.33696 -12.183912 0)
(158.23536 -10.348758 0)
(158.16959 -9.190286 0)
(158.40455 -8.4351184 0)
(158.603 -7.5246241 0)
(158.71904 -7.0235847 0)
(159.6679 -7.0175178 0)
(161.78135 -5.9946016 0)
(164.94977 -4.8733925 0)
(168.68349 -1.9565853 0)
(175.06222 4.1669298 0)
(184.04706 12.175604 0)
(189.65426 24.095669 0)
(176.92346 49.629703 0)
(157.54568 45.388279 0)
(150.91446 34.317927 0)
(147.40329 24.793393 0)
(146.95735 18.491375 0)
(147.3161 14.350172 0)
(147.83445 11.452357 0)
(148.3231 9.3131069 0)
(148.73402 7.6558062 0)
(149.06589 6.3189074 0)
(149.32882 5.2030565 0)
(149.53445 4.2440252 0)
(149.69303 3.3981912 0)
(149.81295 2.6345128 0)
(149.90068 1.9299727 0)
(149.95989 1.2665964 0)
(149.99131 0.62848787 0)
(143.51013 -2.9200249 0)
(143.11011 -3.0123998 0)
(142.79994 -3.1139385 0)
(142.45171 -3.2635513 0)
(142.07712 -3.4661537 0)
(141.66695 -3.7318842 0)
(141.21314 -4.0730631 0)
(140.70631 -4.5068557 0)
(140.13607 -5.0570303 0)
(139.49046 -5.7562926 0)
(138.76283 -6.6523201 0)
(137.97569 -7.8161049 0)
(137.18247 -9.3212313 0)
(136.39302 -11.178647 0)
(135.76027 -13.445003 0)
(136.50415 -16.541435 0)
(140.14412 -19.657521 0)
(144.25825 -18.175181 0)
(146.43915 -15.447393 0)
(146.26517 -11.968032 0)
(144.63912 -10.769234 0)
(143.25558 -10.901457 0)
(142.63897 -11.371001 0)
(142.04335 -10.884811 0)
(141.16561 -10.368908 0)
(141.99168 -10.532128 9.2160096e-18)
(143.27207 -11.92161 -2.0400261e-19)
(145.57696 -13.58942 0)
(146.66437 -7.4754947 1.0016205e-17)
(144.02765 -14.509911 -7.4991562e-18)
(161.52988 -10.135003 4.4273757e-18)
(180.41246 5.4383906 -9.8916551e-18)
(167.93209 72.290024 6.347596e-18)
(142.12829 58.029755 0)
(140.66653 37.126591 0)
(141.63429 24.707269 0)
(143.57068 17.831055 0)
(145.29833 13.692875 0)
(146.55469 10.913046 0)
(147.47727 8.8914729 0)
(148.16032 7.3302818 0)
(148.67269 6.0681886 0)
(149.06042 5.0102296 0)
(149.35481 4.0964263 0)
(149.57745 3.2865228 0)
(149.74366 2.5520242 0)
(149.86425 1.8718342 0)
(149.94526 1.2294696 0)
(149.98814 0.61032506 0)
(129.54912 -2.8694471 0)
(128.76523 -2.9447942 0)
(128.16153 -3.0086377 0)
(127.48726 -3.1101577 0)
(126.76234 -3.2512781 0)
(125.96773 -3.4391724 0)
(125.08525 -3.6818072 0)