/*--------------------------------*- C++ -*----------------------------------*\
| =========                 |                                                 |
| \\      /  F ield         | foam-extend: Open Source CFD                    |
|  \\    /   O peration     | Version:     4.1                                |
|   \\  /    A nd           | Web:         http://www.foam-extend.org         |
|    \\/     M anipulation  |                                                 |
\*---------------------------------------------------------------------------*/
FoamFile
{
    version     2.0;
    format      ascii;
    class       volScalarField;
    location    "0.08";
    object      rAU;
}
// * * * * * * * * * * * * * * * * * * * * * * * * * * * * * * * * * * * * * //

dimensions      [0 0 1 0 0 0 0];

internalField   nonuniform List<scalar> 
4393
(
4.4622596e-05
4.4617123e-05
4.4612092e-05
4.4606781e-05
4.4601186e-05
4.4595249e-05
4.4588884e-05
4.4582029e-05
4.4574621e-05
4.4566606e-05
4.4557941e-05
4.4548603e-05
4.4538594e-05
4.4527951e-05
4.451674e-05
4.4505106e-05
4.4493194e-05
4.4481219e-05
4.4469449e-05
4.445817e-05
4.4447697e-05
4.443835e-05
4.443044e-05
4.4424249e-05
4.4420014e-05
4.4417909e-05
4.4417909e-05
4.4418024e-05
4.4420362e-05
4.4424821e-05
4.443119e-05
4.4439162e-05
4.4448358e-05
4.4458359e-05
4.4468742e-05
4.4479114e-05
4.4489134e-05
4.449853e-05
4.4507102e-05
4.4514722e-05
4.4521318e-05
4.4526868e-05
4.4531387e-05
4.4534914e-05
4.4537505e-05
4.4539225e-05
4.4540143e-05
4.4539965e-05
4.453827e-05
4.4509428e-05
4.4505524e-05
4.4502655e-05
4.4499385e-05
4.4495837e-05
4.4491871e-05
4.4487419e-05
4.4482409e-05
4.4476785e-05
4.4470495e-05
4.4463508e-05
4.4455818e-05
4.444745e-05
4.4438469e-05
4.4428978e-05
4.4419164e-05
4.4409219e-05
4.4399408e-05
4.4390042e-05
4.4381446e-05
4.4373961e-05
4.4367923e-05
4.436364e-05
4.4361375e-05
4.4361327e-05
4.4363612e-05
4.4365597e-05
4.4365795e-05
4.436834e-05
4.4373227e-05
4.4380339e-05
4.438944e-05
4.4400186e-05
4.4412158e-05
4.4424898e-05
4.4437955e-05
4.4450918e-05
4.4463446e-05
4.4475272e-05
4.4486211e-05
4.4496148e-05
4.4505027e-05
4.4512841e-05
4.4519614e-05
4.4525391e-05
4.453023e-05
4.4534178e-05
4.4536865e-05
4.4538114e-05
4.4502465e-05
4.4498799e-05
4.4495973e-05
4.4492687e-05
4.4489069e-05
4.4484968e-05
4.4480317e-05
4.4475041e-05
4.4469085e-05
4.4462401e-05
4.4454966e-05
4.4446783e-05
4.4437897e-05
4.4428399e-05
4.4418424e-05
4.4408202e-05
4.4397972e-05
4.4388047e-05
4.4378786e-05
4.437056e-05
4.4363741e-05
4.4358685e-05
4.4355705e-05
4.4355052e-05
4.4356895e-05
4.4361299e-05
4.4360709e-05
4.4358687e-05
4.4359204e-05
4.4362366e-05
4.4368143e-05
4.4376351e-05
4.4386665e-05
4.4398638e-05
4.4411749e-05
4.4425475e-05
4.4439317e-05
4.4452859e-05
4.4465765e-05
4.4477798e-05
4.4488805e-05
4.4498707e-05
4.4507481e-05
4.4515147e-05
4.452175e-05
4.452735e-05
4.4532002e-05
4.4535734e-05
4.4538153e-05
4.4499405e-05
4.4495958e-05
4.4493122e-05
4.4489732e-05
4.4485932e-05
4.4481567e-05
4.4476576e-05
4.447088e-05
4.4464425e-05
4.4457164e-05
4.4449078e-05
4.4440181e-05
4.4430532e-05
4.4420247e-05
4.4409495e-05
4.4398548e-05
4.4387698e-05
4.4377315e-05
4.4367816e-05
4.4359626e-05
4.4353163e-05
4.4348815e-05
4.4346911e-05
4.4347704e-05
4.4351339e-05
4.4357839e-05
4.4354687e-05
4.435036e-05
4.4348818e-05
4.4350279e-05
4.4354807e-05
4.4362271e-05
4.4372348e-05
4.4384548e-05
4.4398261e-05
4.4412871e-05
4.4427775e-05
4.4442475e-05
4.4456564e-05
4.4469756e-05
4.4481864e-05
4.4492792e-05
4.4502508e-05
4.4511032e-05
4.4518414e-05
4.4524719e-05
4.4530011e-05
4.4534336e-05
4.4537231e-05
4.4495989e-05
4.4492592e-05
4.4489727e-05
4.4486268e-05
4.448234e-05
4.4477784e-05
4.4472532e-05
4.4466499e-05
4.4459623e-05
4.4451853e-05
4.4443168e-05
4.4433584e-05
4.4423171e-05
4.4412063e-05
4.4400459e-05
4.4388676e-05
4.4377058e-05
4.4366044e-05
4.4356118e-05
4.434777e-05
4.4341475e-05
4.4337664e-05
4.4336696e-05
4.4338836e-05
4.4344217e-05
4.4352829e-05
4.4347212e-05
4.4340401e-05
4.4336678e-05
4.4336391e-05
4.4339708e-05
4.4346548e-05
4.4356585e-05
4.4369255e-05
4.4383827e-05
4.4399569e-05
4.4415751e-05
4.4431783e-05
4.444718e-05
4.4461616e-05
4.4474874e-05
4.4486849e-05
4.449751e-05
4.4506886e-05
4.4515039e-05
4.4522049e-05
4.4527996e-05
4.4532949e-05
4.4536429e-05
4.4492639e-05
4.4489463e-05
4.4486689e-05
4.4483204e-05
4.447916e-05
4.4474396e-05
4.4468848e-05
4.4462425e-05
4.445506e-05
4.4446697e-05
4.4437311e-05
4.4426918e-05
4.4415594e-05
4.4403492e-05
4.4390842e-05
4.4378005e-05
4.436539e-05
4.435351e-05
4.4342927e-05
4.4334212e-05
4.4327906e-05
4.4324499e-05
4.4324388e-05
4.4327859e-05
4.4335044e-05
4.4345904e-05
4.4338049e-05
4.43286e-05
4.4322593e-05
4.432053e-05
4.4322702e-05
4.4329086e-05
4.433934e-05
4.4352798e-05
4.4368562e-05
4.4385753e-05
4.4403481e-05
4.4421058e-05
4.4437916e-05
4.4453692e-05
4.4468147e-05
4.448118e-05
4.4492768e-05
4.4502959e-05
4.4511835e-05
4.4519499e-05
4.4526056e-05
4.4531606e-05
4.4535695e-05
4.4488875e-05
4.4485692e-05
4.4482924e-05
4.4479422e-05
4.447532e-05
4.4470443e-05
4.4464715e-05
4.4458029e-05
4.4450308e-05
4.4441479e-05
4.4431503e-05
4.4420387e-05
4.4408203e-05
4.439511e-05
4.4381363e-05
4.4367369e-05
4.4353602e-05
4.4340663e-05
4.432921e-05
4.4319906e-05
4.4313376e-05
4.4310181e-05
4.4310768e-05
4.4315465e-05
4.4324411e-05
4.4337557e-05
4.4327663e-05
4.4315233e-05
4.4306671e-05
4.4302666e-05
4.4303668e-05
4.4309718e-05
4.4320444e-05
4.4335041e-05
4.4352368e-05
4.4371367e-05
4.4390942e-05
4.4410301e-05
4.4428786e-05
4.4446006e-05
4.4461713e-05
4.4475818e-05
4.4488323e-05
4.4499303e-05
4.4508867e-05
4.4517148e-05
4.4524277e-05
4.4530384e-05
4.453504e-05
4.4485384e-05
4.4482522e-05
4.4479963e-05
4.4476529e-05
4.4472399e-05
4.4467395e-05
4.4461441e-05
4.4454421e-05
4.4446244e-05
4.443682e-05
4.4426097e-05
4.4414065e-05
4.4400791e-05
4.4386439e-05
4.437129e-05
4.4355799e-05
4.4340518e-05
4.4326159e-05
4.4313488e-05
4.4303286e-05
4.4296275e-05
4.4293104e-05
4.4294283e-05
4.43002e-05
4.4311014e-05
4.4326667e-05
4.4315187e-05
4.4299513e-05
4.4288188e-05
4.4282129e-05
4.4281997e-05
4.4287915e-05
4.4299481e-05
4.4315699e-05
4.4335079e-05
4.4356351e-05
4.437815e-05
4.4399578e-05
4.4419882e-05
4.4438658e-05
4.4455663e-05
4.4470842e-05
4.4484232e-05
4.449595e-05
4.4506144e-05
4.4514981e-05
4.4522628e-05
4.4529248e-05
4.453444e-05
4.4481428e-05
4.4478514e-05
4.4475968e-05
4.4472558e-05
4.4468433e-05
4.4463392e-05
4.4457343e-05
4.4450148e-05
4.4441694e-05
4.4431865e-05
4.4420578e-05
4.4407796e-05
4.4393558e-05
4.4378018e-05
4.4361465e-05
4.43444e-05
4.4327453e-05
4.4311467e-05
4.429734e-05
4.4285992e-05
4.4278259e-05
4.4274897e-05
4.4276487e-05
4.42835e-05
4.4296127e-05
4.4314326e-05
4.4301655e-05
4.4282153e-05
4.4267567e-05
4.4259111e-05
4.4257728e-05
4.4263648e-05
4.4276433e-05
4.4294823e-05
4.431681e-05
4.4340879e-05
4.4365308e-05
4.4389108e-05
4.4411417e-05
4.4431851e-05
4.4450186e-05
4.4466422e-05
4.4480651e-05
4.4493043e-05
4.4503793e-05
4.4513112e-05
4.4521203e-05
4.452826e-05
4.4533914e-05
4.4478035e-05
4.4475596e-05
4.4473401e-05
4.4470179e-05
4.4466145e-05
4.4461093e-05
4.4454929e-05
4.4447499e-05
4.4438666e-05
4.4428283e-05
4.4416232e-05
4.4402439e-05
4.4386913e-05
4.4369789e-05
4.4351368e-05
4.4332204e-05
4.4313022e-05
4.4294837e-05
4.427871e-05
4.4265734e-05
4.4256877e-05
4.4253022e-05
4.4254833e-05
4.42629e-05
4.4277462e-05
4.4298507e-05
4.4285482e-05
4.4261742e-05
4.4243534e-05
4.423243e-05
4.4229781e-05
4.4235969e-05
4.4250544e-05
4.42719e-05
4.4297245e-05
4.432481e-05
4.4352387e-05
4.437893e-05
4.4403462e-05
4.4425661e-05
4.4445347e-05
4.4462609e-05
4.4477611e-05
4.4490594e-05
4.4501813e-05
4.4511527e-05
4.4519982e-05
4.4527405e-05
4.4533456e-05
4.4474083e-05
4.4471531e-05
4.4469334e-05
4.4466162e-05
4.4462185e-05
4.4457167e-05
4.4450995e-05
4.4443488e-05
4.4434478e-05
4.4423781e-05
4.4411228e-05
4.439669e-05
4.4380118e-05
4.4361598e-05
4.434141e-05
4.4320139e-05
4.42986e-05
4.4278021e-05
4.4259653e-05
4.4244798e-05
4.4234572e-05
4.423001e-05
4.4231847e-05
4.4240836e-05
4.4257266e-05
4.4281171e-05
4.4268557e-05
4.4239632e-05
4.421693e-05
4.4202512e-05
4.4198318e-05
4.4204934e-05
4.4221915e-05
4.42472e-05
4.4276756e-05
4.4308599e-05
4.433985e-05
4.4369485e-05
4.439641e-05
4.4420426e-05
4.4441431e-05
4.4459638e-05
4.4475304e-05
4.4488761e-05
4.450033e-05
4.4510327e-05
4.4519038e-05
4.4526727e-05
4.4533082e-05
4.4471021e-05
4.4469123e-05
4.446744e-05
4.4464609e-05
4.4460885e-05
4.4456029e-05
4.4449923e-05
4.4442363e-05
4.4433144e-05
4.442203e-05
4.4408789e-05
4.4393217e-05
4.4375193e-05
4.4354738e-05
4.4332104e-05
4.4307922e-05
4.4283114e-05
4.4259225e-05
4.4237745e-05
4.4220248e-05
4.4208007e-05
4.4202235e-05
4.4203718e-05
4.4213457e-05
4.4231815e-05
4.4258904e-05
4.4248216e-05
4.4213486e-05
4.4185687e-05
4.4167446e-05
4.4161571e-05
4.4168955e-05
4.4189276e-05
4.4219919e-05
4.425486e-05
4.4292048e-05
4.4327656e-05
4.4360829e-05
4.439035e-05
4.4416242e-05
4.443852e-05
4.4457572e-05
4.4473776e-05
4.4487572e-05
4.449936e-05
4.4509516e-05
4.4518372e-05
4.4526228e-05
4.4532794e-05
4.4467309e-05
4.4465235e-05
4.4463517e-05
4.4460748e-05
4.4457118e-05
4.4452357e-05
4.4446324e-05
4.4438789e-05
4.4429512e-05
4.4418206e-05
4.4404573e-05
4.438832e-05
4.436922e-05
4.4347183e-05
4.4322372e-05
4.4295413e-05
4.4267283e-05
4.4239945e-05
4.4215154e-05
4.419482e-05
4.4180366e-05
4.4173227e-05
4.4174177e-05
4.4184581e-05
4.4204839e-05
4.42351e-05
4.4227812e-05
4.4185765e-05
4.4151336e-05
4.4127965e-05
4.4119801e-05
4.4128126e-05
4.4152876e-05
4.4190759e-05
4.4232421e-05
4.4276131e-05
4.4316713e-05
4.4353756e-05
4.4385931e-05
4.4413618e-05
4.4437004e-05
4.4456704e-05
4.4473243e-05
4.4487187e-05
4.4499019e-05
4.4509179e-05
4.4518042e-05
4.4525939e-05
4.4532606e-05
4.4464786e-05
4.4463532e-05
4.4462493e-05
4.4460245e-05
4.4457077e-05
4.4452722e-05
4.4447037e-05
4.443976e-05
4.4430602e-05
4.4419203e-05
4.440516e-05
4.4388051e-05
4.4367494e-05
4.4343241e-05
4.431533e-05
4.4284389e-05
4.4251452e-05
4.4219162e-05
4.4189643e-05
4.4165261e-05
4.4147572e-05
4.4138271e-05
4.4137956e-05
4.4148563e-05
4.4170539e-05
4.4204129e-05
4.4202907e-05
4.4152616e-05
4.4110585e-05
4.4081059e-05
4.4070174e-05
4.4079787e-05
4.4110518e-05
4.4158478e-05
4.4208675e-05
4.4260535e-05
4.4306914e-05
4.4348287e-05
4.438322e-05
4.4412632e-05
4.4436952e-05
4.4457089e-05
4.4473747e-05
4.4487634e-05
4.4499327e-05
4.4509328e-05
4.4518055e-05
4.4525869e-05
4.4532524e-05
4.4461617e-05
4.4460152e-05
4.4459053e-05
4.4456878e-05
4.445383e-05
4.4449619e-05
4.4444079e-05
4.4436925e-05
4.4427833e-05
4.441639e-05
4.4402113e-05
4.4384458e-05
4.4362878e-05
4.4336918e-05
4.4306391e-05
4.427183e-05
4.4234122e-05
4.4196874e-05
4.4162579e-05
4.4134157e-05
4.4113193e-05
4.4101737e-05
4.4099974e-05
4.4110835e-05
4.4134742e-05
4.4171772e-05
4.4179489e-05
4.4118627e-05
4.4066238e-05
4.4027833e-05
4.4012855e-05
4.4023836e-05
4.4062573e-05
4.4124777e-05
4.4185589e-05
4.4247327e-05
4.4300045e-05
4.4345856e-05
4.4383288e-05
4.4414054e-05
4.4438899e-05
4.4459091e-05
4.4475532e-05
4.4489077e-05
4.4500391e-05
4.4510034e-05
4.4518457e-05
4.4526043e-05
4.4532557e-05
4.4459759e-05
4.4459204e-05
4.4458908e-05
4.4457429e-05
4.4455078e-05
4.445158e-05
4.4446774e-05
4.444035e-05
4.4431936e-05
4.4421025e-05
4.4406995e-05
4.4389091e-05
4.4366487e-05
4.4338373e-05
4.430419e-05
4.4264331e-05
4.421937e-05
4.4174639e-05
4.413319e-05
4.4098788e-05
4.4072951e-05
4.405824e-05
4.4053767e-05
4.4063984e-05
4.4089133e-05
4.4129028e-05
4.4150137e-05
4.407718e-05
4.4012943e-05
4.3963652e-05
4.3943527e-05
4.3955862e-05
4.4005083e-05
4.4087792e-05
4.4161846e-05
4.4235823e-05
4.4295673e-05
4.4346212e-05
4.4385986e-05
4.4417794e-05
4.4442792e-05
4.4462677e-05
4.4478576e-05
4.4491502e-05
4.4502205e-05
4.4511295e-05
4.4519248e-05
4.4526463e-05
4.453271e-05
4.4457575e-05
4.4456855e-05
4.4456528e-05
4.445516e-05
4.4452976e-05
4.4449683e-05
4.4445102e-05
4.4438905e-05
4.4430689e-05
4.4419901e-05
4.440583e-05
4.438758e-05
4.4364102e-05
4.4334249e-05
4.4296992e-05
4.4252465e-05
4.4200233e-05
4.4148241e-05
4.41e-05
4.4060257e-05
4.4029987e-05
4.4012467e-05
4.4004738e-05
4.4014371e-05
4.4041598e-05
4.4085271e-05
4.4125593e-05
4.4037488e-05
4.3956428e-05
4.3890057e-05
4.3861378e-05
4.387452e-05
4.3938069e-05
4.4051717e-05
4.414212e-05
4.4230528e-05
4.4297417e-05
4.4352014e-05
4.4393143e-05
4.4425045e-05
4.4449382e-05
4.4468306e-05
4.4483156e-05
4.4495072e-05
4.4504863e-05
4.4513163e-05
4.4520459e-05
4.4527146e-05
4.4532989e-05
4.4456323e-05
4.4456449e-05
4.4456939e-05
4.4456373e-05
4.4455083e-05
4.4452807e-05
4.4449395e-05
4.4444524e-05
4.4437775e-05
4.4428529e-05
4.4415935e-05
4.4398833e-05
4.4375732e-05
4.4344804e-05
4.4304046e-05
4.4253032e-05
4.4189288e-05
4.4125665e-05
4.4066518e-05
4.4018184e-05
4.3980767e-05
4.3959159e-05
4.3946252e-05
4.3954373e-05
4.3982859e-05
4.4027842e-05
4.4082961e-05
4.3987153e-05
4.3886924e-05
4.3799798e-05
4.3760747e-05
4.377308e-05
4.3854161e-05
4.4013997e-05
4.4123775e-05
4.4229369e-05
4.4303579e-05
4.4361957e-05
4.4403833e-05
4.4435168e-05
4.4458246e-05
4.4475702e-05
4.4489092e-05
4.4499672e-05
4.4508293e-05
4.4515599e-05
4.4522068e-05
4.4528082e-05
4.4533393e-05
4.4456415e-05
4.4456562e-05
4.4457159e-05
4.4456824e-05
4.4455826e-05
4.4453897e-05
4.4450875e-05
4.4446424e-05
4.4440101e-05
4.4431238e-05
4.4418897e-05
4.4401758e-05
4.4378049e-05
4.4345472e-05
4.4301129e-05
4.4244246e-05
4.4168033e-05
4.4093194e-05
4.4024462e-05
4.3970078e-05
4.3927648e-05
4.3904223e-05
4.3883949e-05
4.3889204e-05
4.3919997e-05
4.3969474e-05
4.4031832e-05
4.3947319e-05
4.3820194e-05
4.3697017e-05
4.3637476e-05
4.3645058e-05
4.3750509e-05
4.3985409e-05
4.4118933e-05
4.4242677e-05
4.4321905e-05
4.4381199e-05
4.4421311e-05
4.445009e-05
4.4470483e-05
4.4485461e-05
4.4496697e-05
4.4505458e-05
4.4512569e-05
4.4518633e-05
4.4524087e-05
4.4529275e-05
4.4533922e-05
4.4458462e-05
4.4459169e-05
4.446043e-05
4.4460863e-05
4.4460823e-05
4.4460092e-05
4.4458572e-05
4.4455999e-05
4.4451998e-05
4.4445957e-05
4.4436938e-05
4.4423478e-05
4.4403371e-05
4.437334e-05
4.4328289e-05
4.4265866e-05
4.4169993e-05
4.4076382e-05
4.3991213e-05
4.3925348e-05
4.3872332e-05
4.3845285e-05
4.381424e-05
4.3817891e-05
4.3855618e-05
4.3906045e-05
4.3953519e-05
4.3896144e-05
4.373564e-05
4.3569632e-05
4.349003e-05
4.3485739e-05
4.3614526e-05
4.3963066e-05
4.4120401e-05
4.4262708e-05
4.4346113e-05
4.4405054e-05
4.4442445e-05
4.4467781e-05
4.4484826e-05
4.4496802e-05
4.4505495e-05
4.4512139e-05
4.4517515e-05
4.4522161e-05
4.4526457e-05
4.4530697e-05
4.4534568e-05
4.4475218e-05
4.447631e-05
4.4477998e-05
4.4478944e-05
4.4479512e-05
4.4479498e-05
4.4478815e-05
4.4477201e-05
4.4474276e-05
4.446939e-05
4.4461515e-05
4.4448991e-05
4.4429218e-05
4.4398272e-05
4.4349289e-05
4.4280475e-05
4.4159493e-05
4.4047219e-05
4.3948921e-05
4.3879334e-05
4.3823702e-05
4.380524e-05
4.3758052e-05
4.3753965e-05
4.3793528e-05
4.3847057e-05
4.3890676e-05
4.3893292e-05
4.3697479e-05
4.3452707e-05
4.3316788e-05
4.3277583e-05
4.3434237e-05
4.3976975e-05
4.4164485e-05
4.4315571e-05
4.4394121e-05
4.444419e-05
4.4473309e-05
4.4491496e-05
4.4502946e-05
4.451054e-05
4.4515853e-05
4.4519864e-05
4.4523178e-05
4.4526187e-05
4.4529168e-05
4.4532337e-05
4.4535322e-05
4.4507642e-05
4.4508837e-05
4.4510897e-05
4.4512444e-05
4.4513871e-05
4.4515029e-05
4.4515928e-05
4.4516446e-05
4.45164e-05
4.4515418e-05
4.4512833e-05
4.4507418e-05
4.449689e-05
4.4477305e-05
4.4438516e-05
4.4375957e-05
4.4218384e-05
4.4074034e-05
4.3953652e-05
4.3873788e-05
4.3803753e-05
4.3785647e-05
4.3709663e-05
4.3700193e-05
4.3778323e-05
4.3858763e-05
4.3841281e-05
4.3866496e-05
4.3642382e-05
4.3298871e-05
4.3146028e-05
4.3070081e-05
4.3219302e-05
4.4027419e-05
4.4218194e-05
4.4368668e-05
4.4443565e-05
4.4484123e-05
4.4505353e-05
4.4516252e-05
4.4522007e-05
4.4525055e-05
4.4526846e-05
4.4528099e-05
4.4529246e-05
4.4530531e-05
4.453212e-05
4.4534143e-05
4.4536167e-05
4.4556122e-05
4.4558068e-05
4.4560885e-05
4.4563247e-05
4.4565656e-05
4.4568012e-05
4.4570384e-05
4.4572715e-05
4.4574893e-05
4.4576606e-05
4.4577199e-05
4.4575326e-05
4.4568096e-05
4.4550586e-05
4.4507687e-05
4.4439182e-05
4.4216067e-05
4.4033343e-05
4.3890435e-05
4.3810932e-05
4.3734692e-05
4.3772102e-05
3.5423407e-05
3.5319366e-05
3.5249751e-05
3.5166594e-05
3.4926847e-05
3.483361e-05
3.4771496e-05
3.4969779e-05
3.524741e-05
3.5743387e-05
4.2975639e-05
4.4228438e-05
4.4417233e-05
4.4501796e-05
4.4539176e-05
4.454826e-05
4.4550022e-05
4.4547606e-05
4.4544558e-05
4.454148e-05
4.4538932e-05
4.4537e-05
4.4535749e-05
4.4535175e-05
4.4535284e-05
4.4536091e-05
4.4537087e-05
4.4651004e-05
4.4652099e-05
4.4654596e-05
4.4656946e-05
4.4659585e-05
4.4662452e-05
4.4665692e-05
4.4669392e-05
4.4673676e-05
4.4678633e-05
4.4684293e-05
4.4690569e-05
4.4696605e-05
4.4702904e-05
4.4698413e-05
4.4690195e-05
3.6027248e-05
3.6061245e-05
3.6036801e-05
3.6209856e-05
3.6736997e-05
3.9777118e-05
4.805294e-05
4.9995665e-05
4.9995665e-05
4.9995665e-05
4.9995665e-05
4.9995665e-05
4.9981394e-05
4.9482815e-05
4.9229246e-05
4.9055632e-05
3.4930169e-05
4.4626182e-05
4.4501878e-05
4.4560013e-05
4.4607876e-05
4.459805e-05
4.4588261e-05
4.4575752e-05
4.4565582e-05
4.455718e-05
4.45507e-05
4.4545793e-05
4.4542252e-05
4.4539873e-05
4.4538521e-05
4.4538109e-05
4.4538054e-05
4.6098603e-05
4.6106516e-05
4.611734e-05
4.6128442e-05
4.614095e-05
4.615508e-05
4.617158e-05
4.6191289e-05
4.6215451e-05
4.6245828e-05
4.6285078e-05
4.6337351e-05
4.6409297e-05
4.6513082e-05
4.66651e-05
3.571668e-05
4.851145e-05
4.9995665e-05
4.9995665e-05
4.9995665e-05
4.9995665e-05
4.9995665e-05
4.9995665e-05
4.9995665e-05
4.9995665e-05
4.9995665e-05
4.9995665e-05
4.9995665e-05
4.9995665e-05
4.9995665e-05
4.9995665e-05
4.9995665e-05
4.7255652e-05
3.0984526e-05
4.5063929e-05
4.4849436e-05
4.4746378e-05
4.4680656e-05
4.4638372e-05
4.4608881e-05
4.4588456e-05
4.4573575e-05
4.4562691e-05
4.455465e-05
4.4548777e-05
4.4544594e-05
4.4541792e-05
4.4540164e-05
4.4539049e-05
4.4668402e-05
4.4669516e-05
4.4672033e-05
4.4674432e-05
4.4677138e-05
4.4680099e-05
4.4683459e-05
4.4687312e-05
4.4691788e-05
4.4696982e-05
4.470294e-05
4.4709595e-05
4.4716126e-05
4.4723136e-05
4.4719832e-05
4.471363e-05
3.6057904e-05
3.6092151e-05
3.606967e-05
3.6241871e-05
3.6772308e-05
3.9805555e-05
4.8059822e-05
4.9995665e-05
4.9995665e-05
4.9995665e-05
4.9995665e-05
4.9995665e-05
4.997889e-05
4.9485472e-05
4.9234341e-05
4.9066928e-05
3.491459e-05
4.4502674e-05
4.4962237e-05
4.4812314e-05
4.4726044e-05
4.4673881e-05
4.4636337e-05
4.460968e-05
4.45903e-05
4.457587e-05
4.4565017e-05
4.4556825e-05
4.4550683e-05
4.454617e-05
4.4542999e-05
4.454098e-05
4.453946e-05
4.4572767e-05
4.4574764e-05
4.4577632e-05
4.458007e-05
4.4582575e-05
4.4585052e-05
4.4587573e-05
4.4590086e-05
4.4592484e-05
4.4594462e-05
4.4595374e-05
4.4593882e-05
4.4587106e-05
4.4570128e-05
4.4527823e-05
4.4460255e-05
4.4235971e-05
4.4052829e-05
4.3909745e-05
4.38292e-05
4.3752655e-05
4.3788489e-05
3.5444709e-05
3.5338471e-05
3.5267102e-05
3.5181817e-05
3.494284e-05
3.4847429e-05
3.4782714e-05
3.4980342e-05
3.5260054e-05
3.5727923e-05
4.2876241e-05
4.4076956e-05
4.4557769e-05
4.4609424e-05
4.4624463e-05
4.4611276e-05
4.4596726e-05
4.4583266e-05
4.4572088e-05
4.4563119e-05
4.4556003e-05
4.4550457e-05
4.4546215e-05
4.4543097e-05
4.454097e-05
4.4539756e-05
4.4538881e-05
4.4521075e-05
4.4522337e-05
4.4524472e-05
4.4526119e-05
4.452767e-05
4.4528981e-05
4.4530064e-05
4.4530804e-05
4.4531026e-05
4.4530368e-05
4.4528176e-05
4.4523238e-05
4.4513289e-05
4.4494401e-05
4.445638e-05
4.4394694e-05
4.4236573e-05
4.4092267e-05
4.3972244e-05
4.3892557e-05
4.3823162e-05
4.3805404e-05
4.3729843e-05
4.3721295e-05
4.3799046e-05
4.3879678e-05
4.3864042e-05
4.3879189e-05
4.3640794e-05
4.3291071e-05
4.3125536e-05
4.3030788e-05
4.3120052e-05
4.3952484e-05
4.4343098e-05
4.4464896e-05
4.4524157e-05
4.4543964e-05
4.4550813e-05
4.455116e-05
4.4549196e-05
4.4546479e-05
4.454378e-05
4.4541441e-05
4.4539609e-05
4.4538354e-05
4.4537716e-05
4.4537736e-05
4.4537917e-05
4.4479519e-05
4.4480673e-05
4.4482429e-05
4.4483465e-05
4.4484141e-05
4.4484258e-05
4.4483729e-05
4.4482298e-05
4.4479588e-05
4.4474953e-05
4.446737e-05
4.4455185e-05
4.4435801e-05
4.4405295e-05
4.4356771e-05
4.4288499e-05
4.4167409e-05
4.405524e-05
4.3957078e-05
4.3887488e-05
4.383206e-05
4.3813549e-05
4.3766358e-05
4.3762803e-05
4.3802845e-05
4.3857642e-05
4.3903556e-05
4.3886029e-05
4.3686929e-05
4.3437952e-05
4.3294307e-05
4.3243696e-05
4.3367538e-05
4.3921225e-05
4.4218933e-05
4.436834e-05
4.4450375e-05
4.4490905e-05
4.4512273e-05
4.4522933e-05
4.4528314e-05
4.4530915e-05
4.4532153e-05
4.4532784e-05
4.453324e-05
4.4533786e-05
4.4534596e-05
4.4535812e-05
4.4537007e-05
4.4458321e-05
4.4459087e-05
4.4460414e-05
4.4460935e-05
4.4461e-05
4.4460395e-05
4.4459023e-05
4.4456621e-05
4.4452818e-05
4.4447004e-05
4.4438243e-05
4.442507e-05
4.4405274e-05
4.4375561e-05
4.4330791e-05
4.4268609e-05
4.4172564e-05
4.4078899e-05
4.3993697e-05
4.3927769e-05
4.3874842e-05
4.3847829e-05
4.3816913e-05
4.3820895e-05
4.3858862e-05
4.3910131e-05
4.3959315e-05
4.388069e-05
4.3716451e-05
4.3545758e-05
4.3459697e-05
4.3449344e-05
4.356693e-05
4.3935473e-05
4.4161289e-05
4.4305702e-05
4.4393617e-05
4.4445822e-05
4.4477471e-05
4.4496605e-05
4.4508483e-05
4.4516015e-05
4.4520992e-05
4.4524482e-05
4.4527155e-05
4.4529446e-05
4.4531656e-05
4.4534018e-05
4.4536172e-05
4.4454033e-05
4.4454245e-05
4.4454913e-05
4.4454668e-05
4.4453773e-05
4.4451967e-05
4.4449085e-05
4.4444797e-05
4.4438657e-05
4.4430002e-05
4.4417894e-05
4.4401011e-05
4.4377577e-05
4.4345284e-05
4.430121e-05
4.4244572e-05
4.4168378e-05
4.4093589e-05
4.4024891e-05
4.397053e-05
4.3928225e-05
4.3904948e-05
4.3885009e-05
4.3890923e-05
4.3922598e-05
4.397352e-05
4.4038e-05
4.3932399e-05
4.3802525e-05
4.3676145e-05
4.3612585e-05
4.3616691e-05
4.3717042e-05
4.3965423e-05
4.4139392e-05
4.4269565e-05
4.4355923e-05
4.4412996e-05
4.4450413e-05
4.4475093e-05
4.449166e-05
4.4503025e-05
4.4511074e-05
4.4517016e-05
4.4521649e-05
4.4525514e-05
4.4529002e-05
4.453241e-05
4.4535431e-05
4.4452814e-05
4.4453003e-05
4.4453562e-05
4.4453085e-05
4.4451896e-05
4.444974e-05
4.4446464e-05
4.4441749e-05
4.4435173e-05
4.4426117e-05
4.4413731e-05
4.439685e-05
4.4373975e-05
4.4343265e-05
4.4302697e-05
4.4251835e-05
4.4188111e-05
4.4124528e-05
4.4065422e-05
4.4017142e-05
4.397986e-05
4.3958432e-05
4.394584e-05
4.3954488e-05
4.3983727e-05
4.4029963e-05
4.4077663e-05
4.3970446e-05
4.3868049e-05
4.3778748e-05
4.3737727e-05
4.3749661e-05
4.3831418e-05
4.4003422e-05
4.4138884e-05
4.4250847e-05
4.4331117e-05
4.4388645e-05
4.44289e-05
4.4457204e-05
4.4477253e-05
4.4491689e-05
4.4502319e-05
4.4510386e-05
4.4516752e-05
4.4522028e-05
4.4526664e-05
4.453101e-05
4.4534798e-05
4.4453419e-05
4.4452775e-05
4.4452526e-05
4.4451253e-05
4.4449177e-05
4.4446009e-05
4.4441568e-05
4.4435528e-05
4.4427489e-05
4.4416895e-05
4.4403037e-05
4.4385015e-05
4.4361775e-05
4.4332162e-05
4.4295134e-05
4.4250814e-05
4.4198715e-05
4.4146868e-05
4.409878e-05
4.4059226e-05
4.4029235e-05
4.4012089e-05
4.4004912e-05
4.4015338e-05
4.4043619e-05
4.4088754e-05
4.4112638e-05
4.4022922e-05
4.3940187e-05
4.3872226e-05
4.3842311e-05
4.3855557e-05
4.3920735e-05
4.4043297e-05
4.4150256e-05
4.4245033e-05
4.4317659e-05
4.4372966e-05
4.4413723e-05
4.4443785e-05
4.4465972e-05
4.4482537e-05
4.4495099e-05
4.4504845e-05
4.4512632e-05
4.4519092e-05
4.4524705e-05
4.4529851e-05
4.4534284e-05
4.4454894e-05
4.4454409e-05
4.4454189e-05
4.4452802e-05
4.4450556e-05
4.4447177e-05
4.4442505e-05
4.443623e-05
4.4427979e-05
4.4417246e-05
4.4403406e-05
4.4385702e-05
4.4363303e-05
4.4335392e-05
4.4301401e-05
4.4261718e-05
4.4216896e-05
4.4172317e-05
4.4131037e-05
4.4096843e-05
4.4071292e-05
4.405696e-05
4.4053019e-05
4.4063983e-05
4.409015e-05
4.4131461e-05
4.413679e-05
4.4062693e-05
4.3997427e-05
4.3947405e-05
4.3927161e-05
4.3940709e-05
4.3992708e-05
4.4082654e-05
4.4167897e-05
4.4247317e-05
4.4311823e-05
4.4363471e-05
4.440331e-05
4.4433914e-05
4.4457308e-05
4.4475306e-05
4.4489293e-05
4.4500346e-05
4.4509277e-05
4.4516712e-05
4.4523135e-05
4.4528939e-05
4.4533892e-05
4.4456299e-05
4.4454918e-05
4.4453905e-05
4.4451831e-05
4.4448894e-05
4.4444809e-05
4.4439408e-05
4.4432408e-05
4.4423487e-05
4.4412229e-05
4.439815e-05
4.4380707e-05
4.4359348e-05
4.4333612e-05
4.4303307e-05
4.4268963e-05
4.423146e-05
4.4194434e-05
4.4160388e-05
4.4132269e-05
4.4111692e-05
4.410073e-05
4.4099613e-05
4.4111315e-05
4.4136295e-05
4.41747e-05
4.4167351e-05
4.410557e-05
4.4052404e-05
4.4013544e-05
4.3998712e-05
4.4010972e-05
4.4052389e-05
4.4120189e-05
4.4188884e-05
4.4255393e-05
4.4312145e-05
4.435948e-05
4.4397434e-05
4.4427599e-05
4.4451362e-05
4.4470121e-05
4.4485014e-05
4.4496978e-05
4.4506754e-05
4.451493e-05
4.4521978e-05
4.4528287e-05
4.4533626e-05
4.4458885e-05
4.4457707e-05
4.4456749e-05
4.4454598e-05
4.4451536e-05
4.4447301e-05
4.4441748e-05
4.4434617e-05
4.4425618e-05
4.4414389e-05
4.4400528e-05
4.4383611e-05
4.4363254e-05
4.4339206e-05
4.4311502e-05
4.428077e-05
4.4248043e-05
4.4215985e-05
4.418673e-05
4.4162667e-05
4.4145377e-05
4.4136581e-05
4.4136919e-05
4.4148368e-05
4.417142e-05
4.4206378e-05
4.4191106e-05
4.4140282e-05
4.4097918e-05
4.4068418e-05
4.4058146e-05
4.4069308e-05
4.4102698e-05
4.415514e-05
4.4211053e-05
4.4266851e-05
4.4316508e-05
4.4359392e-05
4.4394972e-05
4.4424103e-05
4.4447669e-05
4.44667e-05
4.4482096e-05
4.4494649e-05
4.4505009e-05
4.4513718e-05
4.4521218e-05
4.4527886e-05
4.4533482e-05
4.4461021e-05
4.4459038e-05
4.4457411e-05
4.4454747e-05
4.4451229e-05
4.4446593e-05
4.4440699e-05
4.4433314e-05
4.44242e-05
4.4413071e-05
4.4399626e-05
4.4383574e-05
4.4364683e-05
4.4342865e-05
4.4318279e-05
4.4291554e-05
4.4263669e-05
4.4236601e-05
4.4212118e-05
4.419215e-05
4.417814e-05
4.4171545e-05
4.4173169e-05
4.4184407e-05
4.4205686e-05
4.4237192e-05
4.421681e-05
4.4174378e-05
4.4139775e-05
4.4116578e-05
4.4109121e-05
4.4118931e-05
4.4146063e-05
4.4187552e-05
4.4233558e-05
4.4280607e-05
4.4323978e-05
4.4362547e-05
4.4395498e-05
4.4423178e-05
4.4446098e-05
4.446498e-05
4.4480516e-05
4.4493351e-05
4.4504045e-05
4.4513078e-05
4.4520858e-05
4.4527736e-05
4.4533458e-05
4.4464263e-05
4.4462447e-05
4.4460849e-05
4.4458118e-05
4.4454503e-05
4.4449767e-05
4.4443792e-05
4.4436375e-05
4.4427311e-05
4.4416362e-05
4.4403299e-05
4.4387916e-05
4.4370091e-05
4.4349846e-05
4.4327433e-05
4.4303484e-05
4.4278928e-05
4.425532e-05
4.4234162e-05
4.4217046e-05
4.4205265e-05
4.4200054e-05
4.4202224e-05
4.4212804e-05
4.4232181e-05
4.4260492e-05
4.4237851e-05
4.4202987e-05
4.4175262e-05
4.4157416e-05
4.415239e-05
4.4161233e-05
4.4183688e-05
4.4217257e-05
4.4255543e-05
4.4295479e-05
4.4333382e-05
4.4367944e-05
4.4398232e-05
4.4424253e-05
4.4446244e-05
4.4464684e-05
4.4480084e-05
4.4492959e-05
4.4503776e-05
4.4512955e-05
4.452086e-05
4.4527815e-05
4.4533545e-05
4.4467e-05
4.4464544e-05
4.4462442e-05
4.4459376e-05
4.4455513e-05
4.4450619e-05
4.4444581e-05
4.443722e-05
4.4428368e-05
4.4417839e-05
4.4405467e-05
4.439112e-05
4.4374752e-05
4.4356447e-05
4.4336487e-05
4.4315461e-05
4.4294187e-05
4.4273905e-05
4.4255874e-05
4.4241413e-05
4.4231652e-05
4.4227644e-05
4.4230143e-05
4.4239923e-05
4.4257289e-05
4.428229e-05
4.42588e-05
4.4229848e-05
4.4207324e-05
4.4193377e-05
4.4190047e-05
4.4198022e-05
4.4216886e-05
4.4244596e-05
4.4276836e-05
4.4310999e-05
4.4344203e-05
4.4375123e-05
4.4402813e-05
4.4427065e-05
4.444793e-05
4.4465697e-05
4.4480731e-05
4.449343e-05
4.4504179e-05
4.4513334e-05
4.4521218e-05
4.4528118e-05
4.4533738e-05
4.4470578e-05
4.4468225e-05
4.446612e-05
4.4463e-05
4.4459076e-05
4.4454143e-05
4.4448109e-05
4.4440819e-05
4.4432137e-05
4.4421917e-05
4.441004e-05
4.4396432e-05
4.4381105e-05
4.4364193e-05
4.4346e-05
4.4327082e-05
4.4308172e-05
4.4290292e-05
4.4274515e-05
4.4261945e-05
4.4253565e-05
4.4250274e-05
4.4252753e-05
4.4261604e-05
4.4277081e-05
4.4299176e-05
4.4276431e-05
4.4252811e-05
4.4234904e-05
4.4224352e-05
4.4222575e-05
4.4230018e-05
4.4246237e-05
4.42696e-05
4.4297104e-05
4.4326592e-05
4.4355799e-05
4.4383474e-05
4.4408713e-05
4.4431187e-05
4.445082e-05
4.4467763e-05
4.4482263e-05
4.4494621e-05
4.4505147e-05
4.451414e-05
4.4521878e-05
4.4528614e-05
4.4534025e-05
4.4473702e-05
4.4470886e-05
4.4468439e-05
4.4465135e-05
4.4461124e-05
4.4456205e-05
4.4450287e-05
4.4443232e-05
4.4434929e-05
4.4425262e-05
4.4414148e-05
4.440155e-05
4.438751e-05
4.4372181e-05
4.4355855e-05
4.4339037e-05
4.4322363e-05
4.4306681e-05
4.42929e-05
4.4281949e-05
4.4274677e-05
4.4271852e-05
4.4274068e-05
4.4281808e-05
4.429527e-05
4.4314416e-05
4.4293137e-05
4.4273831e-05
4.4259611e-05
4.4251739e-05
4.4251209e-05
4.4258284e-05
4.4272521e-05
4.4292612e-05
4.4316391e-05
4.4342089e-05
4.4367909e-05
4.4392719e-05
4.4415684e-05
4.4436418e-05
4.4454765e-05
4.4470778e-05
4.4484612e-05
4.4496492e-05
4.450666e-05
4.4515363e-05
4.4522838e-05
4.4529301e-05
4.4534403e-05
4.4477363e-05
4.4474592e-05
4.4472126e-05
4.4468795e-05
4.4464775e-05
4.4459889e-05
4.4454063e-05
4.444718e-05
4.4439149e-05
4.4429883e-05
4.4419328e-05
4.4407478e-05
4.4394398e-05
4.4380256e-05
4.4365334e-05
4.4350092e-05
4.4335087e-05
4.4321037e-05
4.4308718e-05
4.4298918e-05
4.429237e-05
4.4289735e-05
4.4291531e-05
4.4298154e-05
4.4309767e-05
4.4325911e-05
4.4307351e-05
4.4291954e-05
4.428105e-05
4.4275594e-05
4.4276278e-05
4.4283244e-05
4.4296075e-05
4.4313727e-05
4.4334591e-05
4.4357226e-05
4.4380193e-05
4.4402496e-05
4.4423383e-05
4.4442451e-05
4.4459501e-05
4.4474519e-05
4.4487595e-05
4.4498889e-05
4.4508593e-05
4.4516907e-05
4.4524026e-05
4.4530136e-05
4.4534856e-05
4.4480634e-05
4.4477551e-05
4.4474881e-05
4.4471486e-05
4.4467496e-05
4.4462738e-05
4.4457137e-05
4.4450587e-05
4.444301e-05
4.4434335e-05
4.4424524e-05
4.4413584e-05
4.4401589e-05
4.43887e-05
4.4375175e-05
4.4361423e-05
4.4347923e-05
4.4335283e-05
4.4324167e-05
4.4315247e-05
4.4309155e-05
4.4306462e-05
4.4307623e-05
4.4312971e-05
4.432265e-05
4.4335554e-05
4.4320335e-05
4.4308236e-05
4.4300133e-05
4.4296739e-05
4.4298526e-05
4.4305539e-05
4.4317387e-05
4.4333219e-05
4.4351802e-05
4.437196e-05
4.439253e-05
4.4412649e-05
4.4431653e-05
4.4449148e-05
4.4464918e-05