/*--------------------------------*- C++ -*----------------------------------*\
| =========                 |                                                 |
| \\      /  F ield         | foam-extend: Open Source CFD                    |
|  \\    /   O peration     | Version:     4.1                                |
|   \\  /    A nd           | Web:         http://www.foam-extend.org         |
|    \\/     M anipulation  |                                                 |
\*---------------------------------------------------------------------------*/
FoamFile
{
    version     2.0;
    format      ascii;
    class       volScalarField;
    location    "0.8";
    object      p;
}
// * * * * * * * * * * * * * * * * * * * * * * * * * * * * * * * * * * * * * //

dimensions      [0 2 -2 0 0 0 0];

internalField   nonuniform List<scalar> 
16796
(
-0.00064782242
-1.8543957e-05
-0.00068039564
-0.00048216623
-0.00086457785
-0.0008650146
-0.0011288785
-0.0012257974
-0.0014451169
-0.0015947753
-0.0018047738
-0.0019897533
-0.0022084492
-0.0024232943
-0.002661189
-0.0029059959
-0.0031704307
-0.0034479936
-0.0037451143
-0.0040596572
-0.0043952986
-0.0047519076
-0.0051319833
-0.0055363397
-0.0059669946
-0.0064252247
-0.0069128628
-0.0074314185
-0.0079826477
-0.0085681732
-0.0091896821
-0.009848833
-0.010547219
-0.011286421
-0.012067901
-0.012893057
-0.013763124
-0.014679203
-0.015642177
-0.016652707
-0.017711181
-0.018817644
-0.019971807
-0.021172917
-0.022419783
-0.023710649
-0.02504319
-0.026414416
-0.027820637
-0.02925739
-0.030719397
-0.03220051
-0.033693673
-0.035190887
-0.036683189
-0.038160646
-0.03961236
-0.041026494
-0.042390322
-0.043690295
-0.044912128
-0.046040929
-0.047061326
-0.047957651
-0.048714116
-0.049315037
-0.049745065
-0.049989427
-0.050034201
-0.049866552
-0.049475041
-0.048849813
-0.047982921
-0.046868437
-0.045502776
-0.043884747
-0.042015607
-0.039899251
-0.037542076
-0.03495303
-0.032143425
-0.029126813
-0.02591876
-0.022536572
-0.018999056
-0.015326134
-0.011538623
-0.007657798
-0.0037052079
0.0002977533
0.0043299844
0.0083710499
0.012401274
0.016402039
0.020355835
0.024246476
0.028059105
0.031780342
0.035398231
0.038902327
0.042283608
0.045534483
0.048648692
0.051621247
0.054448329
0.057127162
0.059655968
0.062033712
0.064260233
0.066335717
0.068261274
0.070037697
0.071667239
0.073150456
0.074491135
0.075688051
0.076748217
0.077665125
0.078454053
0.07909444
0.079623588
0.079984078
0.080271921
0.080334935
-0.00064637331
-1.8434358e-05
-0.00067882078
-0.00048098777
-0.00086254485
-0.00086295198
-0.0011262208
-0.0012229073
-0.0014417338
-0.0015910537
-0.0018005881
-0.0019851639
-0.0022033902
-0.0024177825
-0.0026551846
-0.0028994958
-0.0031634062
-0.0034404324
-0.003736993
-0.00405096
-0.0043860051
-0.0047420018
-0.0051214478
-0.0055251607
-0.0059551594
-0.006412724
-0.0068996903
-0.0074175723
-0.0079681307
-0.0085529942
-0.0091738565
-0.0098323841
-0.010530178
-0.011268832
-0.012049816
-0.012874543
-0.01374426
-0.014660083
-0.015622915
-0.016633432
-0.017692043
-0.018798812
-0.019953472
-0.021155294
-0.022403109
-0.023695185
-0.02502922
-0.026402248
-0.027810599
-0.029249832
-0.030714686
-0.032199026
-0.03369581
-0.035197042
-0.03669376
-0.038176023
-0.03963292
-0.041052592
-0.042422281
-0.043728396
-0.044956604
-0.046091951
-0.047118997
-0.048021994
-0.048785067
-0.04939244
-0.049828664
-0.050078863
-0.050129011
-0.049966173
-0.049578809
-0.048956972
-0.048092637
-0.04697981
-0.045614945
-0.04399684
-0.042126716
-0.040008464
-0.037648477
-0.035055719
-0.032241531
-0.029219507
-0.026005274
-0.022616209
-0.019071205
-0.015390283
-0.011594366
-0.007704845
-0.0037433894
0.00026848907
0.0043095691
0.0083593067
0.012397921
0.016406709
0.020368079
0.024265789
0.028084934
0.031812107
0.035435333
0.038944167
0.042329596
0.045584046
0.048701286
0.051676361
0.054505488
0.057185935
0.059715965
0.062094588
0.064321688
0.066397493
0.068323155
0.070099508
0.071728843
0.07321175
0.074552048
0.075748542
0.07680827
0.077724751
0.078513272
0.079153308
0.079682146
0.08004242
0.080330083
0.080393064
-0.00064347199
-1.8292579e-05
-0.00067570345
-0.00047871424
-0.00085854181
-0.00085891988
-0.0011209955
-0.0012172388
-0.0014350863
-0.0015837487
-0.0017923695
-0.001976159
-0.0021934663
-0.0024069784
-0.0026434218
-0.0028867723
-0.0031496675
-0.0034256585
-0.0037211407
-0.0040340025
-0.0043679066
-0.0047227356
-0.0051009854
-0.0055034807
-0.005932243
-0.00638856
-0.0068742739
-0.0073909081
-0.0079402334
-0.0085238906
-0.0091435873
-0.0098010061
-0.010497766
-0.011235481
-0.012015644
-0.012839693
-0.013708903
-0.014624421
-0.015587181
-0.016597897
-0.017657012
-0.018764633
-0.019920534
-0.021124027
-0.022373987
-0.023668726
-0.025005987
-0.026382845
-0.027795668
-0.02924005
-0.030710764
-0.032201696
-0.033705819
-0.035215147
-0.03672071
-0.038212552
-0.039679729
-0.041110334
-0.042491547
-0.043809696
-0.045050349
-0.046198436
-0.047238384
-0.048154296
-0.048930135
-0.049549951
-0.049998108
-0.050259544
-0.050320041
-0.050166472
-0.049787117
-0.049171852
-0.048312496
-0.047202905
-0.045839471
-0.044220928
-0.042348426
-0.040225845
-0.037859584
-0.035258657
-0.032434486
-0.02940078
-0.026173314
-0.022769639
-0.019208853
-0.015511193
-0.011697824
-0.0077903755
-0.0038107707
0.00021924222
0.0042782038
0.0083453604
0.012400732
0.016425451
0.020401783
0.024313379
0.028145249
0.03188394
0.035517452
0.039035344
0.042428625
0.045689768
0.048812598
0.051792235
0.054624977
0.057308178
0.059840194
0.062220126
0.064447952
0.066523989
0.068449475
0.070225328
0.071853913
0.073335894
0.07467515
0.075870551
0.076929177
0.077844609
0.078632148
0.079271342
0.079799443
0.080159204
0.080446441
0.080509328
-0.0006391329
-1.8060682e-05
-0.00067102189
-0.00047528343
-0.00085252246
-0.00085284903
-0.0011131358
-0.0012087087
-0.0014250857
-0.0015727566
-0.0017800025
-0.0019626061
-0.0021785284
-0.0023907119
-0.002625708
-0.0028676068
-0.0031289671
-0.0034033913
-0.0036972403
-0.0040084266
-0.0043405993
-0.0046936543
-0.0050700849
-0.0054707256
-0.0058976024
-0.0063520137
-0.006835811
-0.0073505318
-0.0078979613
-0.0084797588
-0.0090976524
-0.0097533484
-0.010448493
-0.011184729
-0.011963587
-0.012786539
-0.013654904
-0.014569874
-0.015532432
-0.016543346
-0.017603117
-0.018711911
-0.019869565
-0.021075457
-0.02232853
-0.023627162
-0.024969163
-0.026351673
-0.027771121
-0.029223157
-0.030702601
-0.03220338
-0.033718492
-0.035239962
-0.036758817
-0.038265076
-0.039747748
-0.041194858
-0.04259349
-0.043929851
-0.045189357
-0.046356766
-0.0474163
-0.048351836
-0.049147086
-0.049785832
-0.050252159
-0.050530712
-0.050606979
-0.050467543
-0.050100408
-0.049495181
-0.04864346
-0.047538875
-0.046177736
-0.044558694
-0.042682796
-0.040553903
-0.038178422
-0.035565434
-0.032726481
-0.029675431
-0.026428279
-0.023002827
-0.019418475
-0.015695781
-0.01185627
-0.0079219316
-0.0039150685
0.00014221233
0.0042280897
0.0083214908
0.01240213
0.016450891
0.020449816
0.024382394
0.028233506
0.031989625
0.035638711
0.03917033
0.042575523
0.045846834
0.048978173
0.05196477
0.054803043
0.057490482
0.060025574
0.062407565
0.064636567
0.066713034
0.068638333
0.070413506
0.07204103
0.07352168
0.074859427
0.076053237
0.077110253
0.078024148
0.078810247
0.079448203
0.079975219
0.080334226
0.080620835
0.080683589
-0.00063337465
-1.7774862e-05
-0.00066481377
-0.0004707526
-0.00084454488
-0.00084481306
-0.0011027207
-0.0011974097
-0.001411834
-0.0015581935
-0.0017636165
-0.0019446509
-0.0021587388
-0.0023691645
-0.0026022457
-0.0028422251
-0.0031015563
-0.0033739106
-0.0036656026
-0.0039745773
-0.0043044657
-0.0046551816
-0.0050292147
-0.0054274134
-0.005851809
-0.0063037145
-0.0067849943
-0.0072972043
-0.0078421494
-0.0084215134
-0.0090370518
-0.0096905025
-0.010383548
-0.011117872
-0.011895049
-0.012716603
-0.013583908
-0.014498216
-0.015460577
-0.016471828
-0.017532549
-0.018642983
-0.019803052
-0.02101222
-0.022269519
-0.023573417
-0.024921811
-0.026311925
-0.027740272
-0.029202573
-0.030693712
-0.032207665
-0.033737467
-0.035275157
-0.036811754
-0.038337246
-0.039840581
-0.04130969
-0.04273153
-0.044092149
-0.045376766
-0.046569902
-0.047655514
-0.048617178
-0.049438275
-0.050102235
-0.050592768
-0.050894135
-0.050991435
-0.050870865
-0.050520057
-0.04992826
-0.049086764
-0.047988888
-0.046630781
-0.045010971
-0.043130362
-0.040992786
-0.038604666
-0.035975182
-0.033116038
-0.030041337
-0.026767379
-0.023312316
-0.019695971
-0.015939345
-0.012064459
-0.0080937909
-0.0040501639
4.3832164e-05
0.0041658877
0.008294504
0.012408988
0.016489894
0.020518969
0.024479493
0.028356177
0.032135404
0.035805085
0.039354802
0.042775645
0.046060255
0.049202665
0.052198256
0.055043613
0.057736406
0.060275309
0.062659758
0.064890051
0.066966827
0.068891625
0.070665656
0.072291549
0.073770225
0.075105777
0.076297303
0.077352027
0.078263748
0.079047818
0.079684036
0.080209535
0.080567484
0.080853216
0.080915779
-0.00062620744
-1.7405972e-05
-0.00065706555
-0.00046508649
-0.00083458072
-0.00083477092
-0.0010897093
-0.0011832915
-0.0013952768
-0.0015399954
-0.0017431391
-0.0019222095
-0.0021340017
-0.0023422259
-0.0025729084
-0.0028104816
-0.0030672682
-0.0033370249
-0.0036260085
-0.0039322044
-0.0042592207
-0.0046069932
-0.004978007
-0.0053731274
-0.0057943921
-0.0062431322
-0.0067212276
-0.0072302571
-0.0077720498
-0.0083483198
-0.0089608564
-0.0096114372
-0.010301789
-0.011033646
-0.011808641
-0.012628358
-0.013494243
-0.014407623
-0.01536963
-0.016381193
-0.017442983
-0.018555348
-0.019718314
-0.020931457
-0.022193918
-0.023504281
-0.024860556
-0.026260076
-0.027699457
-0.029174517
-0.03068022
-0.032210611
-0.03375877
-0.035316761
-0.036875595
-0.038425224
-0.039954519
-0.0414513
-0.042902366
-0.044293563
-0.04560986
-0.046835488
-0.047954061
-0.048948778
-0.049802598
-0.050498505
-0.051019731
-0.051350049
-0.051474061
-0.051377475
-0.051047452
-0.050472786
-0.049644386
-0.048555172
-0.047201087
-0.045580512
-0.043694167
-0.041545849
-0.039141998
-0.036491907
-0.033607492
-0.030503138
-0.027195529
-0.023703259
-0.02004668
-0.016247351
-0.012327924
-0.0083114931
-0.0042215451
-8.1281673e-05
0.0040863649
0.008259356
0.012416478
0.016537869
0.020604901
0.024600589
0.028509432
0.032317699
0.036013242
0.039585665
0.043026124
0.046327385
0.049483638
0.052490458
0.05534464
0.058044087
0.060587707
0.062975176
0.065207029
0.067284136
0.069208255
0.070980807
0.07260461
0.074080773
0.075413541
0.076602174
0.077654002
0.078562976
0.079344485
0.079978511
0.080502096
0.080858714
0.08114334
0.081205667
-0.00061765431
-1.697381e-05
-0.00064781461
-0.00045832886
-0.00082268371
-0.00082278503
-0.0010741732
-0.0011664356
-0.0013755053
-0.0015182649
-0.0017186849
-0.0018954094
-0.0021044584
-0.0023100527
-0.0025378689
-0.0027725672
-0.0030263131
-0.0032929656
-0.0035787124
-0.003881587
-0.00420517
-0.0045494238
-0.0049168276
-0.0053082668
-0.0057257869
-0.0061707405
-0.0066450258
-0.0071502489
-0.0076882681
-0.0082608331
-0.008869774
-0.0095169155
-0.010204038
-0.010932936
-0.011705309
-0.012522818
-0.013386991
-0.014299247
-0.015260818
-0.016272737
-0.017335794
-0.018450455
-0.019616875
-0.020834762
-0.022103393
-0.02342149
-0.024787197
-0.026197983
-0.027650589
-0.029140948
-0.030664126
-0.03221425
-0.033784458
-0.035366844
-0.036952418
-0.038531084
-0.04009163
-0.04162174
-0.043108025
-0.044536092
-0.045890614
-0.047155467
-0.048313859
-0.049348529
-0.050241934
-0.050976513
-0.051534924
-0.051900347
-0.052056783
-0.051989341
-0.051684609
-0.051130823
-0.050318421
-0.049239827
-0.047890704
-0.046269247
-0.044375949
-0.042214556
-0.039791529
-0.037116305
-0.034201055
-0.031060518
-0.027711854
-0.0241742
-0.020468567
-0.016617203
-0.012643536
-0.0085714216
-0.0044251624
-0.00022870749
0.0039942463
0.0082210055
0.012429721
0.016600032
0.020712857
0.024750896
0.028698396
0.032541499
0.036267991
0.039867514
0.043331308
0.046652304
0.049824886
0.052844872
0.05570932
0.058416415
0.060965356
0.063356115
0.065589512
0.067666701
0.069589705
0.071360202
0.072981238
0.074454147
0.075783357
0.076968324
0.078016505
0.078922036
0.079700345
0.080331637
0.080852841
0.081207801
0.081491055
0.081553084
-0.00060772544
-1.646229e-05
-0.00063705705
-0.00045046195
-0.00080884188
-0.00080883583
-0.0010560942
-0.0011468181
-0.0013524941
-0.0014929706
-0.0016902176
-0.0018642071
-0.0020700578
-0.0022725837
-0.0024970547
-0.0027283958
-0.0029785892
-0.003241613
-0.0035235738
-0.0038225609
-0.0041421226
-0.0044822519
-0.0048454207
-0.0052325375
-0.0056456561
-0.006086154
-0.0065559502
-0.0070566822
-0.0075902414
-0.0081584192
-0.0087630923
-0.00940614
-0.010089404
-0.010814751
-0.011583956
-0.012398771
-0.013260819
-0.014171627
-0.015132542
-0.016144724
-0.017209097
-0.01832627
-0.01949655
-0.0207198
-0.021995461
-0.023322416
-0.024698974
-0.026122761
-0.027590672
-0.02909878
-0.030642274
-0.032215384
-0.033811322
-0.035422222
-0.037039094
-0.0386518
-0.040249028
-0.041818311
-0.043346043
-0.04481755
-0.046217158
-0.047528329
-0.04873379
-0.049815739
-0.050756032
-0.051536466
-0.052139013
-0.052546151
-0.052741159
-0.052708438
-0.052433887
-0.051905084
-0.051111903
-0.050046175
-0.048703213
-0.047081002
-0.045179759
-0.043003163
-0.040557698
-0.037852963
-0.034901431
-0.031718253
-0.028321154
-0.024729917
-0.020966337
-0.017053477
-0.013015702
-0.0088777691
-0.0046649613
-0.00040211705
0.0038861489
0.0081763658
0.012445925
0.016673876
0.020840596
0.024928421
0.0289213
0.032805235
0.036567938
0.040199105
0.043690086
0.047034011
0.0502255
0.05326067
0.056136888
0.058852685
0.061407601
0.06380196
0.066036924
0.06811398
0.070035464
0.071803354
0.07342097
0.074889904
0.076214803
0.07739535
0.078439149
0.079340552
0.080115035
0.080743062
0.081261425
0.081614411
0.08189603
0.081957707
-0.00059644358
-1.5884854e-05
-0.00062482888
-0.00044152324
-0.00079310636
-0.00079298023
-0.0010355398
-0.0011245148
-0.0013263289
-0.0014642081
-0.0016578436
-0.0018287199
-0.002030929
-0.0022299606
-0.002450621
-0.0026781367
-0.002924281
-0.0031831672
-0.0034608096
-0.0037553608
-0.004070332
-0.0044057505
-0.0047640798
-0.0051462544
-0.0055543373
-0.0059897336
-0.0064543861
-0.0069499671
-0.0074784058
-0.0080415404
-0.0086413004
-0.0092796269
-0.0099584323
-0.010679661
-0.011445181
-0.012256842
-0.013116378
-0.014025437
-0.014985501
-0.015997875
-0.017063634
-0.018183554
-0.019358116
-0.020587364
-0.021870925
-0.023207872
-0.024596704
-0.026035234
-0.027520533
-0.029048842
-0.030615496
-0.032214847
-0.033840199
-0.035483738
-0.037136482
-0.038788247
-0.040427618
-0.042041954
-0.043617408
-0.045138989
-0.046590622
-0.047955299
-0.049215189
-0.05035187
-0.051346501
-0.052180134
-0.052833944
-0.053289592
-0.053529515
-0.053537286
-0.053297996
-0.052798451
-0.052027856
-0.050977344
-0.04964179
-0.048018924
-0.046108642
-0.043914532
-0.041443105
-0.038704138
-0.035710462
-0.032477708
-0.02902427
-0.025370682
-0.021539674
-0.017555267
-0.013442932
-0.0092284868
-0.004938376
-0.00059847735
0.0037655105
0.0081292142
0.012469133
0.016763637
0.020992479
0.02513758
0.02918255
0.033113246
0.036917302
0.040584494
0.044106311
0.047476128
0.050688854
0.053740956
0.056630175
0.059355444
0.06191671
0.064314707
0.066550994
0.068627449
0.070546769
0.072311282
0.073924616
0.07538867
0.076708334
0.077883555
0.078922103
0.079818581
0.080588512
0.081212663
0.081727661
0.082078309
0.082357995
0.082419253
-0.00058382101
-1.5232548e-05
-0.00061113515
-0.00043150761
-0.00077547949
-0.00077521593
-0.0010125113
-0.0010995241
-0.001297009
-0.0014319738
-0.0016215576
-0.0017889386
-0.0019870586
-0.0021821635
-0.0023985407
-0.0026217535
-0.0028633412
-0.0031175679
-0.0033903442
-0.003679893
-0.0039896836
-0.0043197811
-0.0046726391
-0.0050492204
-0.005451598
-0.0058812071
-0.0063400162
-0.0068297366
-0.0073523387
-0.0079097127
-0.0085038467
-0.0091367505
-0.0098104148
-0.010526873
-0.011288094
-0.012096038
-0.012952565
-0.013859462
-0.014818358
-0.015830722
-0.016897806
-0.018020573
-0.019199701
-0.020435443
-0.021727638
-0.02307558
-0.024477986
-0.025932886
-0.027437558
-0.028988438
-0.030581035
-0.032209848
-0.033868294
-0.035548628
-0.037241886
-0.038937842
-0.040624969
-0.042290441
-0.043920142
-0.045498726
-0.047009669
-0.048435426
-0.049757535
-0.05095686
-0.052013766
-0.052908448
-0.053621165
-0.054132632
-0.054424314
-0.054478831
-0.054280332
-0.053814737
-0.053070465
-0.052037844
-0.050711212
-0.049088021
-0.047167785
-0.044953972
-0.042453125
-0.039675213
-0.036633478
-0.033344093
-0.029826227
-0.026101278
-0.022193061
-0.018126702
-0.013928966
-0.0096268957
-0.0052482938
-0.00082023634
0.0036303116
0.0080779409
0.012498114
0.016868428
0.021167914
0.025378035
0.029482016
0.033465561
0.037316233
0.041023914
0.044580264
0.047978957
0.051215242
0.054286002
0.057189414
0.059924882
0.062492819
0.064894436
0.067131746
0.069207075
0.071123532
0.072883843
0.074491989
0.075950211
0.077263677
0.078432632
0.079465031
0.08035576
0.081120392
0.081740039
0.082251134
0.082599073
0.082876521
0.082937296
-0.00056988075
-1.4516113e-05
-0.00059601153
-0.00042045005
-0.00075601185
-0.00075559809
-0.00098707554
-0.0010719202
-0.0012646191
-0.0013963611
-0.0015814633
-0.0017449768
-0.0019385708
-0.0021293278
-0.0023409603
-0.0025594043
-0.0027959397
-0.0030449972
-0.0033123721
-0.0035963649
-0.0039003974
-0.0042245766
-0.0045713443
-0.004941694
-0.005337709
-0.0057608572
-0.0062131349
-0.0066962955
-0.0072123545
-0.0077632587
-0.0083510605
-0.0089778451
-0.0096456891
-0.010356724
-0.011113029
-0.01191669
-0.012769704
-0.01367401
-0.014631406
-0.015643541
-0.016711865
-0.017837551
-0.0190215
-0.020264197
-0.021565725
-0.022925625
-0.024342864
-0.02581572
-0.02734171
-0.028917495
-0.030538788
-0.032200263
-0.033895471
-0.035616757
-0.037355187
-0.0391005
-0.040841055
-0.04256383
-0.044254413
-0.045897069
-0.047474776
-0.048969388
-0.050361735
-0.05163188
-0.052759285
-0.053723179
-0.054502772
-0.055077711
-0.055428343
-0.055536202
-0.05538435
-0.054957701
-0.054243746
-0.053231925
-0.051915892
-0.050292764
-0.048361652
-0.04612584
-0.043591918
-0.040770052
-0.037673955
-0.034320411
-0.030729481
-0.026923548
-0.022927688
-0.01876829
-0.014473627
-0.01007214
-0.0055932158
-0.0010652966
0.0034831828
0.00802564
0.012536341
0.016992021
0.021370885
0.025653899
0.029823859
0.033866325
0.03776879
0.041521284
0.045115678
0.04854601
0.051807928
0.054898807
0.057817324
0.060563431
0.063138076
0.065543015
0.06778078
0.069854201
0.071766855
0.073521916
0.075123759
0.07657501
0.077881147
0.079042745
0.080067964
0.080952007
0.081710496
0.082324933
0.082831522
0.083176336
0.083451207
0.083511423
-0.00055463854
-1.3731076e-05
-0.00057947121
-0.00040835535
-0.00073471834
-0.00073413894
-0.00095925071
-0.0010417207
-0.0012291798
-0.0013573905
-0.0015375824
-0.0016968548
-0.0018854847
-0.0020714692
-0.0022778918
-0.0024910956
-0.0027220759
-0.0029654454
-0.0032268725
-0.0035047418
-0.0038024229
-0.0041200674
-0.0044601034
-0.0048235573
-0.0052125225
-0.0056285021
-0.0060735214
-0.0065493793
-0.0070581393
-0.0076018095
-0.0081825115
-0.0088024124
-0.0094636821
-0.01016856
-0.010919244
-0.011717958
-0.01256685
-0.013468028
-0.014423472
-0.015435036
-0.016504386
-0.01763293
-0.018821815
-0.020071792
-0.021383214
-0.022755902
-0.024189107
-0.025681389
-0.027230539
-0.028833478
-0.030486157
-0.032183455
-0.033919088
-0.035685514
-0.037473848
-0.039273803
-0.041073627
-0.04286009
-0.044618467
-0.046332595
-0.047984906
-0.04955659
-0.051027684
-0.052377356
-0.053584055
-0.054625916
-0.055480968
-0.056127643
-0.056545021
-0.056713403
-0.056614602
-0.056232398
-0.0555532
-0.054565455
-0.053261992
-0.051639547
-0.049696775
-0.047436731
-0.044866051
-0.041995105
-0.038838137
-0.035412611
-0.031739605
-0.027842613
-0.023748157
-0.01948406
-0.015080336
-0.010567011
-0.0059753058
-0.0013352065
0.0033231548
0.0079718777
0.012583856
0.017134867
0.021602183
0.02596623
0.030209337
0.034316925
0.038276429
0.042078078
0.045714003
0.049178673
0.052468204
0.055580544
0.05851495
0.061271997
0.063853245
0.066261065
0.068498575
0.070569172
0.072476957
0.074225601
0.07581992
0.077262963
0.078560551
0.079713625
0.080730567
0.081606929
0.082358383
0.082966866
0.083468315
0.083809567
0.084081504
0.084141087
-0.00053811894
-1.2886902e-05
-0.00056155093
-0.00039525822
-0.00071165096
-0.00071089449
-0.00092910566
-0.0010090015
-0.0011907782
-0.0013151574
-0.0014900206
-0.0016446877
-0.0018279257
-0.0020087232
-0.0022094807
-0.0024169826
-0.0026419152
-0.0028790876
-0.0031340303
-0.003405218
-0.003695963
-0.0040064645
-0.0043391347
-0.0046950348
-0.0050762683
-0.0054843748
-0.0059214107
-0.0063892224
-0.0068899248
-0.0074255911
-0.0079984171
-0.0086106574
-0.0092645828
-0.0099625475
-0.010706881
-0.011499954
-0.01234408
-0.013241549
-0.014194544
-0.01520514
-0.016275242
-0.017406515
-0.018600384
-0.019857889
-0.021179686
-0.022565911
-0.024016132
-0.025529227
-0.027103301
-0.028735571
-0.030422263
-0.032158498
-0.033938188
-0.035753933
-0.037596917
-0.039456847
-0.041321861
-0.043178519
-0.045011762
-0.04680497
-0.048539975
-0.050197243
-0.051755935
-0.053194225
-0.054489431
-0.055618468
-0.056558038
-0.057285208
-0.057777624
-0.058014201
-0.057975327
-0.057643523
-0.0570039
-0.056043902
-0.054755258
-0.053134272
-0.051179152
-0.048892611
-0.046281349
-0.043355935
-0.040131205
-0.036625372
-0.032860672
-0.028861842
-0.02465707
-0.020275788
-0.015750025
-0.011111595
-0.006393835
-0.0016284686
0.0031524172
0.0079194534
0.012643964
0.017300679
0.021865815
0.026319234
0.030642747
0.034821666
0.038843385
0.042698393
0.046379136
0.049880602
0.053199456
0.056334307
0.059285075
0.062053051
0.064640483
0.067050441
0.069286693
0.071353274
0.073254864
0.074995686
0.076581038
0.078014439
0.07930208
0.080445305
0.081452735
0.082320304
0.083063732
0.083665434
0.084161045
0.084498253
0.084766865
0.084825727
-0.00052034181
-1.19822e-05
-0.00054227139
-0.00038117174
-0.00068683585
-0.00068588968
-0.00089667366
-0.00097379718
-0.0011494544
-0.001269704
-0.0014388233
-0.0015885224
-0.001765942
-0.0019411375
-0.002135774
-0.0023371097
-0.002555498
-0.0027859586
-0.0030338724
-0.0032978104
-0.0035810223
-0.0038837571
-0.0042084093
-0.0045560758
-0.0049288696
-0.0053283689
-0.0057566614
-0.0062156438
-0.0067074846
-0.0072343258
-0.0077984417
-0.00840218
-0.0090479187
-0.0097381356
-0.0104753
-0.011261943
-0.012100553
-0.012993622
-0.01394355
-0.014952653
-0.016023098
-0.017156835
-0.01835559
-0.019620723
-0.020953231
-0.022353594
-0.023821741
-0.025356906
-0.026957549
-0.028621226
-0.03034448
-0.032122716
-0.033950079
-0.035819346
-0.037721801
-0.03964716
-0.041583468
-0.043517072
-0.045432562
-0.047312834
-0.049139074
-0.050890954
-0.052546674
-0.05408331
-0.055476922
-0.05670307
-0.057736963
-0.058554144
-0.059130641
-0.05944381
-0.059472419
-0.059197575
-0.058602828
-0.057674746
-0.056403608
-0.054785025
-0.052816983
-0.050501684
-0.047845899
-0.04486039
-0.041560651
-0.037965716
-0.03409913
-0.029987011
-0.025659453
-0.021147689
-0.016486065
-0.011708398
-0.0068504658
-0.00194593
0.0029708726
0.0078689504
0.012717834
0.017491116
0.022163828
0.026715243
0.03112661
0.035383172
0.039472299
0.043384821
0.047113566
0.050654139
0.054003839
0.057162042
0.060129427
0.06290809
0.065501061
0.067912186
0.070145964
0.072207132
0.07410101
0.075832427
0.077407212
0.078829391
0.080105562
0.081237501
0.082234086
0.083091667
0.083826007
0.084420048
0.084909076
0.085241728
0.0855066
0.085564652
-0.00050133431
-1.1025791e-05
-0.00052167168
-0.00036613173
-0.00066032801
-0.00065918328
-0.0008620276
-0.00093618775
-0.0011053001
-0.0012211308
-0.0013841021
-0.0015284795
-0.0016996646
-0.0018688527
-0.0020569219
-0.0022516368
-0.0024629932
-0.0026862358
-0.0029265842
-0.0031827118
-0.0034577997
-0.0037521495
-0.0040681348
-0.0044068897
-0.0047705361
-0.0051606914
-0.0055794755
-0.0060288371
-0.0065110004
-0.0070281793
-0.0075827303
-0.0081770995
-0.0088137781
-0.0094953748
-0.010224509
-0.011003879
-0.011836168
-0.012724076
-0.013670245
-0.014677247
-0.015747536
-0.016883369
-0.018086804
-0.019359554
-0.020702986
-0.022117969
-0.023604826
-0.025163196
-0.026791935
-0.028488986
-0.030251255
-0.032074476
-0.033953072
-0.035880039
-0.03784679
-0.039843084
-0.041856883
-0.043874329
-0.045879652
-0.047855236
-0.049781572
-0.051637476
-0.053400096
-0.055045305
-0.056547772
-0.057881554
-0.059020201
-0.059937554
-0.060607831
-0.061006642
-0.061110932
-0.060900222
-0.060356338
-0.05946469
-0.058214028
-0.056599241
-0.054617911
-0.052271672
-0.049567353
-0.046515895
-0.043133513
-0.03944013
-0.035460771
-0.031223078
-0.02675933
-0.022102764
-0.017290401
-0.012358288
-0.0073450308
-0.0022864369
0.0027805631
0.0078231963
0.012808945
0.017710183
0.022500604
0.027158892
0.031665687
0.036006216
0.040167861
0.044141885
0.047921581
0.051503285
0.054885035
0.058067087
0.061050979
0.063839729
0.066437233
0.06884821
0.071077966
0.073132014
0.075016375
0.076736542
0.078298918
0.07970808
0.080971063
0.08209011
0.08307437
0.083920643
0.084644728
0.085230144
0.085711774
0.086039312
0.086299992
0.086357134
-0.00048112083
-1.0018523e-05
-0.00049977958
-0.00035015843
-0.00063216389
-0.0006308116
-0.0008252146
-0.00089622334
-0.0010583735
-0.0011694996
-0.0013259244
-0.0014646301
-0.0016291684
-0.001791946
-0.0019730034
-0.0021606425
-0.0023644787
-0.002579994
-0.0028122362
-0.0030599856
-0.0033263495
-0.0036116838
-0.0039183384
-0.0042474854
-0.004601254
-0.0049813016
-0.0053897807
-0.005828693
-0.00630032
-0.0068069501
-0.0073510255
-0.0079350948
-0.0085617682
-0.0092337925
-0.0099539447
-0.010725104
-0.011550155
-0.012432028
-0.013373616
-0.014377774
-0.015447262
-0.016584672
-0.017792422
-0.019072612
-0.020427017
-0.021856932
-0.023363122
-0.024945674
-0.026603891
-0.028336157
-0.03013979
-0.032010908
-0.033944264
-0.035933116
-0.037969055
-0.040041913
-0.042139595
-0.044248051
-0.046351143
-0.048430724
-0.050466543
-0.052436498
-0.054316589
-0.056081376
-0.05770399
-0.059156831
-0.060411597
-0.06144024
-0.062214941
-0.062709363
-0.062898391
-0.062759767
-0.062273366
-0.061423302
-0.060196527
-0.058587135
-0.056592247
-0.054212831
-0.05145575
-0.04833212
-0.04485894
-0.041057097
-0.03695328
-0.032576805
-0.027962451
-0.023145669
-0.018166568
-0.013063662
-0.0078788257
-0.0026502322
0.0025821966
0.0077837501
0.012919569
0.017960732
0.022879436
0.02765378
0.032263749
0.036694631
0.04093386
0.044973253
0.048806656
0.052431272
0.055845989
0.05905208
0.062052056
0.064849968
0.067450685
0.069859893
0.072083789
0.074128739
0.076001529
0.077708371
0.079256289
0.080650457
0.081898371
0.083002779
0.083973114
0.084806656
0.085519232
0.086094987
0.086568351
0.086890179
0.087146185
0.087202314
-0.00045973194
-8.9689011e-06
-0.00047663753
-0.00033328981
-0.00060240285
-0.00060083765
-0.00078631329
-0.00085399002
-0.0010087734
-0.0011149185
-0.0012644101
-0.0013971041
-0.0015545941
-0.001710568
-0.0018841791
-0.0020642971
-0.0022601335
-0.0024674208
-0.0026910232
-0.0029298332
-0.0031868783
-0.0034625701
-0.0037592319
-0.0040780739
-0.0044212311
-0.0047904014
-0.005187769
-0.0056153898
-0.0060756036
-0.006570775
-0.0071034347
-0.0076762377
-0.0082919181
-0.0089533669
-0.0096635272
-0.010425468
-0.011242288
-0.012117162
-0.01305325
-0.01405371
-0.015121631
-0.016259967
-0.017471527
-0.01875883
-0.020124097
-0.021569094
-0.023095073
-0.024702618
-0.026391535
-0.028160702
-0.030007912
-0.031929721
-0.033921272
-0.035976142
-0.038086147
-0.040241237
-0.042429291
-0.044636085
-0.046845115
-0.049037684
-0.05119276
-0.053287256
-0.055295928
-0.057191909
-0.058946638
-0.060530693
-0.061913716
-0.063065567
-0.063956157
-0.064556978
-0.06484061
-0.064782805
-0.064361242
-0.063558574
-0.062359688
-0.060757781
-0.05874943
-0.056334809
-0.053520773
-0.050318577
-0.046746065
-0.042825146
-0.038584383
-0.034054913
-0.029274388
-0.024280692
-0.019117517
-0.013826094
-0.0084520992
-0.0030362977
0.0023779239
0.0077537635
0.013053676
0.01824739
0.023305411
0.028205295
0.032926318
0.03745394
0.041775692
0.045884096
0.049773658
0.053442607
0.056890811
0.060120707
0.063135907
0.065941626
0.068543814
0.070949231
0.073165049
0.075198569
0.077057406
0.078748553
0.0802797
0.081656657
0.082887413
0.083975252
0.0849299
0.085749156
0.086448857
0.087013826
0.087477984
0.087793456
0.088044267
0.088099268
-0.00043719685
-7.8794437e-06
-0.00045228017
-0.00031555251
-0.00057109102
-0.00056930827
-0.00074538381
-0.00080955235
-0.00095657449
-0.001057468
-0.0011996475
-0.0013259952
-0.0014760416
-0.0016248231
-0.0017905577
-0.0019627119
-0.0021500707
-0.002348629
-0.0025630564
-0.0027923618
-0.003039487
-0.0033049003
-0.0035908951
-0.0038987194
-0.0042305123
-0.0045880113
-0.0049734319
-0.0053888842
-0.0058367667
-0.0063195217
-0.0068397704
-0.007400277
-0.0080039042
-0.0086536928
-0.009352759
-0.010104371
-0.010911854
-0.011778637
-0.012708171
-0.01370393
-0.014769359
-0.015907799
-0.017122482
-0.018416383
-0.01979221
-0.021252243
-0.022798269
-0.024431429
-0.026152086
-0.027959678
-0.029852536
-0.031827725
-0.033880841
-0.036005847
-0.038194843
-0.040437952
-0.042723069
-0.045035826
-0.04735936
-0.04967442
-0.051959146
-0.054189411
-0.056338627
-0.058378376
-0.060278243
-0.062006799
-0.063531406
-0.064819606
-0.065838764
-0.066557958
-0.066947171
-0.066979926
-0.066631427
-0.065882677
-0.06471619
-0.06312414
-0.061102499
-0.058650519
-0.055774993
-0.052487306
-0.048806205
-0.044754684
-0.040363418
-0.035665511
-0.030701919
-0.02551317
-0.020147128
-0.014647981
-0.0090658391
-0.003444278
0.0021692914
0.0077358367
0.013214724
0.018574298
0.02378316
0.028818382
0.033658486
0.038289236
0.042698329
0.046879164
0.050827035
0.054541381
0.058023192
0.061276244
0.064305383
0.067117134
0.069718643
0.072117857
0.074323016
0.076342438
0.078184636
0.079857441
0.081369253
0.082726564
0.083937881
0.085007054
0.085944115
0.086747408
0.087432768
0.08798575
0.088439695
0.088748124
0.088993187
0.089046941
-0.00041355019
-6.7585226e-06
-0.00042675408
-0.0002969873
-0.00053829311
-0.00053629174
-0.00070251182
-0.00076300401
-0.0009018848
-0.00099726593
-0.0011317674
-0.0012514451