/*--------------------------------*- C++ -*----------------------------------*\
| =========                 |                                                 |
| \\      /  F ield         | foam-extend: Open Source CFD                    |
|  \\    /   O peration     | Version:     4.1                                |
|   \\  /    A nd           | Web:         http://www.foam-extend.org         |
|    \\/     M anipulation  |                                                 |
\*---------------------------------------------------------------------------*/
FoamFile
{
    version     2.0;
    format      ascii;
    class       surfaceScalarField;
    location    "0.8";
    object      phi;
}
// * * * * * * * * * * * * * * * * * * * * * * * * * * * * * * * * * * * * * //

dimensions      [0 3 -1 0 0 0 0];

internalField   nonuniform List<scalar> 
32976
(
-0.0016170264
3.9763876e-07
-0.0016174473
4.2092905e-07
-0.0016178885
4.4119927e-07
-0.0016183556
4.671431e-07
-0.0016188484
4.9273522e-07
-0.0016193705
5.2211643e-07
-0.0016199231
5.5264449e-07
-0.0016205094
5.8622421e-07
-0.0016211311
6.2171416e-07
-0.0016217911
6.6002068e-07
-0.0016224918
7.0067307e-07
-0.0016232359
7.4413047e-07
-0.0016240261
7.9022037e-07
-0.0016248653
8.3920009e-07
-0.0016257563
8.9102694e-07
-0.0016267022
9.4586502e-07
-0.0016277059
1.0037244e-06
-0.0016287707
1.0647236e-06
-0.0016298996
1.1288894e-06
-0.0016310959
1.1963148e-06
-0.0016323629
1.267026e-06
-0.001633704
1.3410981e-06
-0.0016351225
1.4185477e-06
-0.001636622
1.4994344e-06
-0.0016382057
1.5837588e-06
-0.0016398773
1.6715639e-06
-0.0016416401
1.7628287e-06
-0.0016434977
1.8575752e-06
-0.0016454535
1.9557532e-06
-0.0016475108
2.0573558e-06
-0.0016496731
2.1622915e-06
-0.0016519436
2.2705011e-06
-0.0016543255
2.3818714e-06
-0.0016568217
2.496222e-06
-0.0016594351
2.6133965e-06
-0.0016621682
2.7331056e-06
-0.0016650233
2.8550838e-06
-0.0016680022
2.9789072e-06
-0.0016711064
3.1041654e-06
-0.0016743366
3.2302649e-06
-0.0016776932
3.3566185e-06
-0.0016811757
3.4824388e-06
-0.0016847826
3.60692e-06
-0.0016885117
3.7291011e-06
-0.0016923596
3.8479356e-06
-0.0016963219
3.9622733e-06
-0.0017003928
4.0708668e-06
-0.0017045652
4.1723855e-06
-0.0017088306
4.2654064e-06
-0.001713179
4.3484386e-06
-0.0017175989
4.4199232e-06
-0.0017220772
4.478245e-06
-0.0017265989
4.521741e-06
-0.0017311476
4.5487224e-06
-0.0017357051
4.5574712e-06
-0.0017402514
4.5462773e-06
-0.0017447648
4.5134512e-06
-0.0017492222
4.457352e-06
-0.0017535986
4.3764153e-06
-0.0017578678
4.269196e-06
-0.0017620022
4.1343866e-06
-0.0017659731
3.9708741e-06
-0.0017697508
3.7777708e-06
-0.0017733053
3.5544575e-06
-0.0017766059
3.3006234e-06
-0.0017796222
3.016305e-06
-0.0017823241
2.7019295e-06
-0.0017846825
2.3583386e-06
-0.0017866693
1.9868323e-06
-0.0017882585
1.5891922e-06
-0.0017894262
1.1677053e-06
-0.0017901514
7.2517751e-07
-0.0017904163
2.649495e-07
-0.0017902072
-2.0912867e-07
-0.0017895145
-6.9266811e-07
-0.0017883337
-1.1808251e-06
-0.0017866653
-1.6683732e-06
-0.0017845156
-2.1497393e-06
-0.0017818964
-2.6191802e-06
-0.0017788255
-3.0709003e-06
-0.0017753263
-3.4992518e-06
-0.0017714273
-3.8989275e-06
-0.0017671622
-4.2651699e-06
-0.0017625682
-4.593985e-06
-0.0017576859
-4.8823138e-06
-0.0017525577
-5.128184e-06
-0.0017472269
-5.3307739e-06
-0.0017417365
-5.4904305e-06
-0.0017361279
-5.6085761e-06
-0.0017304403
-5.6875687e-06
-0.0017247099
-5.7304764e-06
-0.0017189691
-5.7408125e-06
-0.0017132468
-5.7222673e-06
-0.0017075683
-5.6784596e-06
-0.0017019556
-5.6127132e-06
-0.0016964277
-5.5279295e-06
-0.0016910012
-5.4265025e-06
-0.0016856908
-5.3103485e-06
-0.0016805099
-5.1809353e-06
-0.0016754705
-5.0394191e-06
-0.0016705837
-4.8867425e-06
-0.00166586
-4.7237568e-06
-0.0016613087
-4.5513029e-06
-0.0016569384
-4.3702827e-06
-0.0016527567
-4.1816576e-06
-0.0016487703
-3.9864648e-06
-0.0016449845
-3.7857753e-06
-0.0016414038
-3.5806593e-06
-0.0016380317
-3.3721404e-06
-0.0016348705
-3.161168e-06
-0.001631922
-2.948574e-06
-0.0016291869
-2.7350724e-06
-0.0016266656
-2.521242e-06
-0.0016243581
-2.3075339e-06
-0.0016222638
-2.09427e-06
-0.0016203822
-1.8816682e-06
-0.0016187123
-1.6698292e-06
-0.0016172536
-1.4587834e-06
-0.0016160051
-1.2484596e-06
-0.0016149663
-1.0387617e-06
-0.0016141369
-8.2948e-07
-0.0016135164
-6.2045995e-07
-0.001613105
-4.1135682e-07
-2.0204083e-07
-0.0016170166
7.9434046e-07
-0.0016174366
8.4092168e-07
-0.0016178768
8.8139429e-07
-0.0016183429
9.332624e-07
-0.0016188345
9.8438407e-07
-0.0016193555
1.0431102e-06
-0.001619907
1.1041084e-06
-0.001620492
1.1712218e-06
-0.0016211124
1.2421453e-06
-0.0016217711
1.3187072e-06
-0.0016224704
1.3999562e-06
-0.0016232131
1.4868181e-06
-0.0016240018
1.5789436e-06
-0.0016248395
1.6768512e-06
-0.0016257289
1.780454e-06
-0.0016266731
1.8900824e-06
-0.0016276751
2.0057564e-06
-0.0016287381
2.1277144e-06
-0.0016298653
2.2560107e-06
-0.0016310598
2.390832e-06
-0.001632325
2.532232e-06
-0.0016336642
2.6803619e-06
-0.001635081
2.8352555e-06
-0.0016365785
2.9970332e-06
-0.0016381605
3.165697e-06
-0.0016398303
3.3413337e-06
-0.0016415913
3.5239022e-06
-0.0016434472
3.7134472e-06
-0.0016454013
3.9098688e-06
-0.0016474571
4.1131537e-06
-0.0016496179
4.3231193e-06
-0.0016518871
4.5396474e-06
-0.0016542677
4.7625124e-06
-0.0016567629
4.9913534e-06
-0.0016593753
5.2258584e-06
-0.0016621077
5.4654495e-06
-0.0016649622
5.7095967e-06
-0.0016679407
5.9574536e-06
-0.0016710448
6.2082019e-06
-0.0016742752
6.4606567e-06
-0.0016776322
6.7136472e-06
-0.0016811153
6.9656025e-06
-0.0016847233
7.2149148e-06
-0.0016884539
7.4596666e-06
-0.0016923037
7.6977689e-06
-0.0016962684
7.9269254e-06
-0.0017003422
8.1446436e-06
-0.0017045181
8.3482639e-06
-0.0017087876
8.53494e-06
-0.0017131408
8.7016878e-06
-0.0017175663
8.8453854e-06
-0.0017220508
8.9627959e-06
-0.0017265797
9.0505849e-06
-0.0017311363
9.1053644e-06
-0.0017357025
9.1236863e-06
-0.0017402584
9.1021166e-06
-0.0017447822
9.0372616e-06
-0.0017492507
8.9258236e-06
-0.0017536389
8.7646573e-06
-0.0017579206
8.5508562e-06
-0.001762068
8.2817879e-06
-0.0017660523
7.9552102e-06
-0.0017698439
7.5693318e-06
-0.0017734123
7.1228997e-06
-0.001776727
6.6152791e-06
-0.0017797572
6.046532e-06
-0.0017824728
5.4175041e-06
-0.0017848443
4.7298726e-06
-0.0017868437
3.9862352e-06
-0.0017884447
3.1901558e-06
-0.0017896232
2.3462137e-06
-0.001790358
1.4600307e-06
-0.0017906314
5.3830537e-07
-0.0017904293
-4.1123384e-07
-0.0017897422
-1.3797783e-06
-0.0017885654
-2.3576189e-06
-0.0017868995
-3.334284e-06
-0.0017847506
-4.2986116e-06
-0.0017821307
-5.2390932e-06
-0.0017790575
-6.1441165e-06
-0.0017755544
-7.0023645e-06
-0.0017716501
-7.8032024e-06
-0.0017673782
-8.5370953e-06
-0.0017627761
-9.1960369e-06
-0.0017578845
-9.7738902e-06
-0.001752746
-1.0266693e-05
-0.001747404
-1.0672786e-05
-0.0017419016
-1.0992847e-05
-0.0017362805
-1.1229708e-05
-0.00173058
-1.1388074e-05
-0.0017248364
-1.1474076e-05
-0.0017190824
-1.149474e-05
-0.0017133472
-1.1457453e-05
-0.0017076562
-1.1369464e-05
-0.0017020315
-1.1237439e-05
-0.0016964922
-1.1067203e-05
-0.0016910552
-1.086357e-05
-0.0016857351
-1.0630401e-05
-0.0016805454
-1.0370659e-05
-0.0016754981
-1.0086683e-05
-0.0016706045
-9.7803838e-06
-0.0016658748
-9.4534844e-06
-0.0016613184
-9.1076839e-06
-0.0016569439
-8.7447997e-06
-0.0016527588
-8.3667651e-06
-0.0016487696
-7.9756613e-06
-0.0016449817
-7.5736348e-06
-0.0016413995
-7.1628278e-06
-0.0016380264
-6.7452875e-06
-0.0016348646
-6.3229121e-06
-0.0016319159
-5.8973626e-06
-0.0016291809
-5.470064e-06
-0.0016266599
-5.0421702e-06
-0.0016243529
-4.614579e-06
-0.0016222592
-4.1879296e-06
-0.0016203782
-3.7626532e-06
-0.0016187091
-3.3389455e-06
-0.001617251
-2.9168633e-06
-0.0016160032
-2.4962578e-06
-0.0016149651
-2.0769337e-06
-0.0016141361
-1.658463e-06
-0.001613516
-1.2405374e-06
-0.0016131049
-8.2245357e-07
-4.0395901e-07
-0.0016169981
1.1892589e-06
-0.0016174162
1.2590248e-06
-0.0016178545
1.3196302e-06
-0.0016183185
1.3973265e-06
-0.001618808
1.473891e-06
-0.0016193268
1.5618639e-06
-0.0016198759
1.6532352e-06
-0.0016204585
1.7537795e-06
-0.0016210764
1.860033e-06
-0.0016217324
1.9747438e-06
-0.0016224289
2.0964827e-06
-0.0016231688
2.2266417e-06
-0.0016239545
2.3646969e-06
-0.0016247891
2.5114282e-06
-0.0016256753
2.6667065e-06
-0.0016266163
2.8310294e-06
-0.001627615
3.0044287e-06
-0.0016286745
3.187264e-06
-0.0016297981
3.3796188e-06
-0.0016309891
3.5817757e-06
-0.0016322506
3.7938172e-06
-0.0016335863
4.0159726e-06
-0.0016349993
4.2482951e-06
-0.0016364932
4.4909673e-06
-0.0016380715
4.7439947e-06
-0.0016397377
5.0075094e-06
-0.0016414953
5.2814517e-06
-0.0016433477
5.5658908e-06
-0.0016452985
5.8606784e-06
-0.0016473512
6.1657957e-06
-0.001649509
6.4809706e-06
-0.0016517754
6.8060268e-06
-0.0016541535
7.1406273e-06
-0.0016566464
7.4842323e-06
-0.0016592569
7.8363753e-06
-0.0016619876
8.1961924e-06
-0.0016648409
8.5628914e-06
-0.0016678187
8.9352072e-06
-0.0016709224
9.3119177e-06
-0.001674153
9.6912525e-06
-0.0016775108
1.0071463e-05
-0.0016809954
1.0450203e-05
-0.0016846056
1.0825069e-05
-0.0016883391
1.1193197e-05
-0.0016921928
1.1551461e-05
-0.0016961623
1.1896426e-05
-0.001700242
1.2224358e-05
-0.001704425
1.253127e-05
-0.001708703
1.2812893e-05
-0.001713066
1.3064742e-05
-0.0017175028
1.3282124e-05
-0.0017220001
1.3460168e-05
-0.0017265434
1.3593851e-05
-0.0017311161
1.3678063e-05
-0.0017357
1.3707603e-05
-0.0017402752
1.3677286e-05
-0.0017448199
1.3581984e-05
-0.0017493108
1.3416712e-05
-0.0017537228
1.3176709e-05
-0.0017580296
1.2857575e-05
-0.0017622031
1.245532e-05
-0.0017662144
1.196654e-05
-0.0017700336
1.1388509e-05
-0.00177363
1.0719313e-05
-0.0017769727
9.9579693e-06
-0.0017800307
9.1045451e-06
-0.0017827735
8.1602905e-06
-0.0017851713
7.1277104e-06
-0.0017871958
6.0106988e-06
-0.0017888203
4.8146082e-06
-0.0017900204
3.5463232e-06
-0.0017907746
2.2143022e-06
-0.001791065
8.2862696e-07
-0.0017908771
-5.9907163e-07
-0.0017902014
-2.0555417e-06
-0.0017890328
-3.5261646e-06
-0.0017873719
-4.9951699e-06
-0.0017852248
-6.4457581e-06
-0.0017826033
-7.8606029e-06
-0.0017795252
-9.2222253e-06
-0.0017760139
-1.0513587e-05
-0.0017720985
-1.1718679e-05
-0.0017678124
-1.2823138e-05
-0.0017631936
-1.3814903e-05
-0.0017582827
-1.4684716e-05
-0.0017531228
-1.5426588e-05
-0.0017477576
-1.6037986e-05
-0.0017422306
-1.6519891e-05
-0.0017365838
-1.6876524e-05
-0.0017308569
-1.7114927e-05
-0.0017250867
-1.7244289e-05
-0.0017193063
-1.7275159e-05
-0.0017135451
-1.7218637e-05
-0.0017078289
-1.7085633e-05
-0.0017021802
-1.6886193e-05
-0.0016966183
-1.6629113e-05
-0.0016911602
-1.6321677e-05
-0.0016858208
-1.5969743e-05
-0.0016806137
-1.5577825e-05
-0.0016755508
-1.5149494e-05
-0.0016706436
-1.4687673e-05
-0.001665902
-1.4195e-05
-0.0016613357
-1.3674063e-05
-0.0016569528
-1.3127623e-05
-0.001652761
-1.2558606e-05
-0.0016487665
-1.197015e-05
-0.0016449747
-1.1365487e-05
-0.0016413897
-1.0747835e-05
-0.0016380147
-1.0120266e-05
-0.001634852
-9.4856253e-06
-0.0016319029
-8.8463981e-06
-0.0016291683
-8.2047141e-06
-0.0016266482
-7.5622944e-06
-0.0016243423
-6.920475e-06
-0.00162225
-6.2802027e-06
-0.0016203705
-5.6421125e-06
-0.001618703
-5.006485e-06
-0.0016172465
-4.3733934e-06
-0.0016160001
-3.7426011e-06
-0.0016149632
-3.1138045e-06
-0.0016141354
-2.4863466e-06
-0.0016135161
-1.8597575e-06
-0.0016131056
-1.2329635e-06
-6.0558451e-07
-0.0016169682
1.5815199e-06
-0.0016173835
1.6743198e-06
-0.0016178189
1.7549589e-06
-0.0016182799
1.8583438e-06
-0.0016187662
1.9602258e-06
-0.0016192816
2.0773021e-06
-0.0016198273
2.1989058e-06
-0.0016204063
2.3327309e-06
-0.0016210204
2.4741638e-06
-0.0016216725
2.6268684e-06
-0.001622365
2.7889421e-06
-0.0016231006
2.962242e-06
-0.001623882
3.1460726e-06
-0.001624712
3.3414761e-06
-0.0016255936
3.5482833e-06
-0.0016265297
3.7671607e-06
-0.0016275234
3.9981543e-06
-0.0016285779
4.2417469e-06
-0.0016296964
4.4980539e-06
-0.001630882
4.7674558e-06
-0.0016321383
5.0500669e-06
-0.0016334685
5.3461969e-06
-0.0016348761
5.6559212e-06
-0.0016363647
5.9794871e-06
-0.0016379376
6.3169062e-06
-0.0016395984
6.6683585e-06
-0.0016413507
7.0337683e-06
-0.0016431981
7.4132312e-06
-0.0016451439
7.806553e-06
-0.0016471919
8.2137118e-06
-0.0016493452
8.6343477e-06
-0.0016516074
9.0682288e-06
-0.0016539817
9.5149089e-06
-0.0016564712
9.9736719e-06
-0.0016590787
1.04439e-05
-0.0016618069
1.0924448e-05
-0.0016646583
1.1414264e-05
-0.0016676348
1.1911672e-05
-0.0016707379
1.2415052e-05
-0.0016739687
1.2922057e-05
-0.0016773276
1.3430369e-05
-0.0016808143
1.3936877e-05
-0.0016844276
1.4438394e-05
-0.0016881655
1.4931118e-05
-0.001692025
1.5410898e-05
-0.0016960017
1.5873166e-05
-0.0017000903
1.6312954e-05
-0.001704284
1.6724951e-05
-0.0017085746
1.7103457e-05
-0.0017129523
1.7442484e-05
-0.0017174059
1.7735754e-05
-0.0017219225
1.7976739e-05
-0.0017264874
1.8158706e-05
-0.0017310841
1.8274794e-05
-0.0017356945
1.8318012e-05
-0.0017402986
1.8281384e-05
-0.0017448746
1.8158006e-05
-0.0017493991
1.7941157e-05
-0.0017538468
1.7624416e-05
-0.001758191
1.7201837e-05
-0.0017624037
1.6668022e-05
-0.0017664556
1.6018356e-05
-0.0017703162
1.5249133e-05
-0.0017739546
1.4357735e-05
-0.0017773394
1.3342789e-05
-0.0017804392
1.220434e-05
-0.0017832229
1.0944015e-05
-0.0017856604
9.565133e-06
-0.0017877225
8.0728781e-06
-0.0017893823
6.4743972e-06
-0.0017906149
4.7788967e-06
-0.0017913983
2.9977009e-06
-0.001791714
1.1443149e-06
-0.0017915474
-7.6567639e-07
-0.0017908884
-2.7145178e-06
-0.001789732
-4.6826137e-06
-0.0017880783
-6.6488251e-06
-0.0017859334
-8.5906442e-06
-0.0017833092
-1.048485e-05
-0.0017802234
-1.230802e-05
-0.0017766996
-1.4037321e-05
-0.001772767
-1.5651292e-05
-0.0017684595
-1.7130675e-05
-0.0017638151
-1.8459282e-05
-0.0017588752
-1.9624674e-05
-0.001753683
-2.0618778e-05
-0.0017482828
-2.1438137e-05
-0.0017427187
-2.2084001e-05
-0.0017370333
-2.2561944e-05
-0.0017312669
-2.2881331e-05
-0.0017254568
-2.3054408e-05
-0.0017196367
-2.309526e-05
-0.0017138366
-2.3018729e-05
-0.0017080828
-2.2839434e-05
-0.0017023981
-2.2570856e-05
-0.0016968024
-2.222483e-05
-0.0016913129
-2.1811186e-05
-0.0016859448
-2.1337862e-05
-0.0016807116
-2.0810995e-05
-0.0016756256
-2.0235468e-05
-0.001670698
-1.9615283e-05
-0.001665939
-1.8954048e-05
-0.0016613577
-1.8255296e-05
-0.0016569626
-1.7522769e-05
-0.0016527608
-1.6760414e-05
-0.0016487585
-1.5972451e-05
-0.0016449608
-1.5163208e-05
-0.0016413716
-1.4336987e-05
-0.001637994
-1.3497887e-05
-0.0016348299
-1.2649695e-05
-0.0016318806
-1.1795715e-05
-0.0016291465
-1.093877e-05
-0.0016266277
-1.0081139e-05
-0.0016243236
-9.2245821e-06
-0.0016222334
-8.3703393e-06
-0.0016203563
-7.5192349e-06
-0.0016186912
-6.6716192e-06
-0.001617237
-5.827567e-06
-0.0016159929
-4.9867382e-06
-0.001614958
-4.1487069e-06
-0.0016141318
-3.3125714e-06
-0.0016135138
-2.4776878e-06
-0.0016131042
-1.6425945e-06
-8.0677578e-07
-0.00161693
1.9702705e-06
-0.0016173416
2.0859201e-06
-0.0016177731
2.1864567e-06
-0.0016182301
2.3153507e-06
-0.0016187123
2.4423854e-06
-0.0016192234
2.5883795e-06
-0.0016197645
2.7400319e-06
-0.0016203387
2.9069433e-06
-0.0016209479
3.08336e-06
-0.0016215949
3.2738572e-06
-0.001622282
3.4760638e-06
-0.0016230121
3.6923019e-06
-0.0016237877
3.9217071e-06
-0.0016246118
4.1655853e-06
-0.0016254873
4.42373e-06
-0.0016264171
4.6969786e-06
-0.0016274043
4.9853941e-06
-0.0016284522
5.2895851e-06
-0.0016295638
5.609702e-06
-0.0016307426
5.9462262e-06
-0.0016319918
6.299307e-06
-0.001633315
6.6693376e-06
-0.0016347155
7.056419e-06
-0.0016361968
7.4608664e-06
-0.0016377626
7.8827012e-06
-0.0016394164
8.3221543e-06
-0.0016411618
8.7791376e-06
-0.0016430023
9.2537762e-06
-0.0016449416
9.7458336e-06
-0.0016469832
1.0255288e-05
-0.0016491306
1.0781695e-05
-0.0016513871
1.1324772e-05
-0.0016537562
1.1883967e-05
-0.0016562409
1.2458391e-05
-0.0016588443
1.3047283e-05
-0.001661569
1.3649219e-05
-0.0016644177
1.4262899e-05
-0.0016673922
1.488624e-05
-0.0016704944
1.5517238e-05
-0.0016737253
1.6152977e-05
-0.0016770856
1.6790584e-05
-0.0016805749
1.7426196e-05
-0.0016841923
1.8055855e-05
-0.001687936
1.8674834e-05
-0.0016918031
1.9277968e-05
-0.0016957895
1.9859567e-05
-0.00169989
2.0413433e-05
-0.001704098
2.093293e-05
-0.0017084054
2.1410928e-05
-0.0017128029
2.183992e-05
-0.0017172792
2.2212026e-05
-0.0017218215
2.2519041e-05
-0.0017264152
2.2752484e-05
-0.0017310442
2.2903708e-05
-0.00173569
2.2963884e-05
-0.0017403328
2.2924196e-05
-0.0017449507
2.2775904e-05
-0.0017495201
2.2510492e-05
-0.0017540155
2.2119812e-05
-0.0017584099
2.1596308e-05
-0.001762675
2.0933105e-05
-0.001766781
2.0124314e-05
-0.001770697
1.9165183e-05
-0.0017743916
1.8052332e-05
-0.0017778328
1.678395e-05
-0.0017809885
1.536001e-05
-0.0017838269
1.3782491e-05
-0.0017863173
1.2055501e-05
-0.0017884299
1.0185508e-05
-0.001790137
8.1814626e-06
-0.001791413
6.0549138e-06
-0.0017922354
3.8200896e-06
-0.0017925851
1.493968e-06
-0.0017924469
-9.0385095e-07
-0.0017918104
-3.351037e-06
-0.00179067
-5.8229284e-06
-0.0017890259
-8.2929194e-06
-0.0017868839
-1.0732694e-05
-0.0017842557
-1.3113027e-05
-0.0017811593
-1.540445e-05
-0.0017776184
-1.7578222e-05
-0.0017736624
-1.9607331e-05
-0.0017693255
-2.1467519e-05
-0.0017646464
-2.3138383e-05
-0.0017596669
-2.460421e-05
-0.0017544309
-2.585477e-05
-0.0017489834
-2.6885615e-05
-0.0017433692
-2.7698211e-05
-0.0017376317
-2.8299452e-05
-0.001731812
-2.8701011e-05
-0.0017259482
-2.8918189e-05
-0.0017200748
-2.8968635e-05
-0.0017142226
-2.8870975e-05
-0.0017084184
-2.8643601e-05
-0.0017026858
-2.8303508e-05
-0.0016970449
-2.7865667e-05
-0.0016915136
-2.7342553e-05
-0.0016861072
-2.6744287e-05
-0.0016808394
-2.6078736e-05
-0.0016757227
-2.5352191e-05
-0.0016707682
-2.4569822e-05
-0.0016659859
-2.3736291e-05
-0.0016613851
-2.2856135e-05
-0.0016569737
-2.1934132e-05
-0.0016527588
-2.097529e-05
-0.0016487463
-1.9984939e-05
-0.001644941
-1.8968523e-05
-0.0016413466
-1.7931435e-05
-0.0016379657
-1.6878802e-05
-0.0016348
-1.581535e-05
-0.0016318505
-1.474519e-05
-0.0016291175
-1.3671829e-05
-0.0016266005
-1.2598083e-05
-0.001624299
-1.1526121e-05
-0.0016222119
-1.0457457e-05
-0.001620338
-9.3930853e-06
-0.0016186762
-8.3334045e-06
-0.0016172253
-7.2784712e-06
-0.0016159843
-6.2278214e-06
-0.0016149521
-5.1808881e-06
-0.0016141281
-4.1365037e-06
-0.001613512
-3.0938342e-06
-0.0016131036
-2.0510071e-06
-1.0073602e-06
-0.0016168828
2.3546675e-06
-0.0016172898
2.4929507e-06
-0.0016177166
2.6132185e-06
-0.0016181686
2.7674047e-06
-0.0016186456
2.9193918e-06
-0.0016191513
3.0940779e-06
-0.0016196868
3.2755561e-06
-0.0016202552
3.4753168e-06
-0.0016208583
3.6864793e-06
-0.001621499
3.9145241e-06
-0.0016221796
4.1566182e-06
-0.0016229028
4.415547e-06
-0.0016236714
4.6902823e-06
-0.0016244882
4.9823938e-06
-0.0016253561
5.2916419e-06
-0.0016262782
5.6190366e-06
-0.0016272574
5.9646617e-06
-0.0016282971
6.3292542e-06
-0.0016294004
6.7130034e-06
-0.0016305707
7.1164945e-06
-0.0016318113
7.539916e-06
-0.0016331257
7.983748e-06
-0.0016345174
8.4481213e-06
-0.0016359899
8.9334229e-06
-0.0016375469
9.4396879e-06
-0.001639192
9.9672024e-06
-0.0016409287
1.051587e-05
-0.0016427608
1.108585e-05
-0.0016446918
1.1676868e-05
-0.0016467254
1.2288907e-05
-0.0016488652
1.2921444e-05
-0.0016511146
1.3574149e-05
-0.001653477
1.4246372e-05
-0.0016559556
1.4937061e-05
-0.0016585537
1.5645313e-05
-0.0016612739
1.6369439e-05
-0.0016641189
1.71079e-05
-0.0016670909
1.7858218e-05
-0.0016701916
1.8618014e-05
-0.0016734225
1.9383821e-05
-0.0016767841
2.0152227e-05
-0.0016802766
2.0918627e-05
-0.001683899
2.1678312e-05
-0.0016876498
2.2425643e-05
-0.0016915263
2.3154454e-05
-0.0016955247
2.3857943e-05
-0.0016996399
2.4528687e-05
-0.0017038657
2.5158725e-05
-0.0017081943
2.5739489e-05
-0.0017126163
2.6261945e-05
-0.0017171209
2.6716585e-05
-0.0017216953
2.7093498e-05
-0.0017263253
2.7382417e-05
-0.0017309944
2.757286e-05
-0.0017356846
2.7654108e-05
-0.0017403759
2.7615437e-05
-0.0017450462
2.7446205e-05
-0.0017496717
2.7136023e-05
-0.0017542268
2.6674937e-05
-0.0017586842
2.6053695e-05
-0.001763015
2.5263863e-05
-0.0017671889
2.429819e-05
-0.0017711745
2.3150802e-05
-0.0017749396
2.1817477e-05
-0.0017784516
2.02959e-05
-0.0017816775
1.8585921e-05
-0.0017845848
1.6689818e-05
-0.0017871418
1.4612467e-05
-0.0017893179
1.2361607e-05
-0.0017910844
9.9479983e-06
-0.0017924151
7.3855608e-06
-0.0017932865
4.6914742e-06
-0.0017936787
1.8862529e-06
-0.0017935762
-1.0064022e-06
-0.0017929677
-3.959491e-06
-0.0017918475
-6.9431721e-06
-0.0017902152
-9.925249e-06
-0.0017880764
-1.2871472e-05
-0.0017854429
-1.5746476e-05
-0.0017823328
-1.8514611e-05
-0.0017787699
-2.1141093e-05
-0.001774784
-2.3593225e-05
-0.0017704099
-2.5841621e-05
-0.0017656867
-2.7861543e-05
-0.0017606571
-2.9633895e-05
-0.0017553656
-3.1146192e-05
-0.0017498583
-3.2392914e-05
-0.0017441809
-3.337568e-05
-0.0017383777
-3.410266e-05
-0.0017324909
-3.4587816e-05
-0.0017265595
-3.4849512e-05
-0.0017206192
-3.4908993e-05
-0.0017147014
-3.4788727e-05
-0.0017088341
-3.4510962e-05
-0.0017030413
-3.4096309e-05
-0.0016973439
-3.3562995e-05
-0.0016917602
-3.2926265e-05
-0.001686306
-3.2198559e-05
-0.0016809951
-3.1389601e-05
-0.0016758401
-3.0507215e-05
-0.001670852
-2.9557852e-05
-0.001666041
-2.8547322e-05
-0.0016614159
-2.748125e-05
-0.0016569845
-2.6365518e-05
-0.0016527535
-2.5206243e-05
-0.0016487286
-2.4009899e-05
-0.001644914
-2.2783066e-05
-0.0016413132
-2.1532244e-05
-0.0016379285
-2.0263585e-05
-0.0016347611
-1.8982746e-05
-0.0016318116
-1.7694637e-05
-0.00162908
-1.6403429e-05
-0.0016265656
-1.5112458e-05
-0.0016242675
-1.3824275e-05
-0.0016221843
-1.2540646e-05
-0.0016203147
-1.1262707e-05
-0.0016186572
-9.9908834e-06
-0.0016172105
-8.7251865e-06
-0.0016159733
-7.4650025e-06
-0.0016149446
-6.2095998e-06
-0.0016141236
-4.9575187e-06
-0.0016135097
-3.7077148e-06
-0.0016131028
-2.4578756e-06
-1.2071795e-06
-0.0016168275
2.7338821e-06
-0.0016172291
2.8945536e-06
-0.0016176503
3.034353e-06
-0.0016180964
3.2135785e-06
-0.0016185673
3.3902808e-06
-0.0016190666
3.5933937e-06
-0.0016195955
3.8044347e-06
-0.001620157
4.0367661e-06
-0.0016207529
4.282394e-06
-0.0016213861
4.5476977e-06
-0.0016220588
4.82939e-06
-0.001622774
5.130718e-06
-0.0016235342
5.4504943e-06
-0.0016243424
5.7905538e-06
-0.0016252014
6.1506275e-06
-0.0016261142
6.5319007e-06
-0.001627084
6.9344816e-06
-0.001628114
7.359239e-06
-0.0016292074
7.8064049e-06
-0.0016303676
8.2766724e-06
-0.001631598
8.7702732e-06
-0.001632902
9.2877787e-06
-0.0016342832
9.8293537e-06
-0.0016357453
1.0395462e-05
-0.0016372917
1.0986157e-05
-0.0016389263
1.1601784e-05
-0.0016406527
1.2242246e-05
-0.0016424746
1.2907739e-05
-0.0016443957
1.3597958e-05
-0.0016464197
1.4312898e-05
-0.0016485502
1.5051963e-05
-0.0016507908
1.5814784e-05
-0.0016531451
1.6600621e-05
-0.0016556163
1.7408266e-05
-0.0016582077
1.823669e-05
-0.0016609222
1.9083947e-05
-0.0016637625
1.9948271e-05
-0.0016667311
2.0826807e-05
-0.0016698299
2.1716817e-05
-0.0016730604
2.2614299e-05
-0.0016764235
2.3515316e-05
-0.0016799194
2.4414546e-05
-0.0016835476
2.5306542e-05
-0.0016873068
2.618477e-05
-0.0016911944
2.7042079e-05
-0.001695207
2.787056e-05
-0.0016993399
2.8661574e-05
-0.001703587
2.9405835e-05
-0.0017079408
3.0093329e-05
-0.0017123924
3.0713474e-05
-0.0017169309
3.1255114e-05
-0.001721544
3.1706594e-05
-0.0017262174
3.2055817e-05
-0.0017309349
3.2290409e-05
-0.0017356785
3.2397696e-05
-0.0017404281
3.2364974e-05
-0.0017451615
3.2179611e-05
-0.0017498547
3.1829256e-05
-0.0017544818
3.130205e-05
-0.0017590151
3.0586946e-05
-0.0017634251
2.9673847e-05
-0.0017676809
2.8554038e-05
-0.0017717505
2.7220421e-05
-0.0017756009
2.5667843e-05
-0.0017791984
2.3893402e-05
-0.0017825092
2.189675e-05
-0.0017854998
1.9680417e-05
-0.0017881374
1.7250008e-05
-0.0017903903
1.4614519e-05
-0.0017922288
1.178653e-05
-0.0017936256
8.7823599e-06
-0.0017945563
5.6221969e-06
-0.0017950002
2.3301671e-06
-0.0017949408
-1.0658257e-06
-0.0017943663
-4.5340013e-06
-0.0017932703
-8.0392015e-06
-0.001791652
-1.1543484e-05
-0.001789517
-1.5006511e-05
-0.0017868769
-1.8386608e-05
-0.0017837497
-2.1641776e-05
-0.0017801598
-2.4731016e-05
-0.0017761372
-2.7615782e-05
-0.0017717175
-3.02614e-05
-0.0017669403
-3.2638648e-05
-0.0017618493
-3.4724909e-05
-0.0017564902
-3.6505327e-05
-0.0017509099
-3.7973203e-05
-0.0017451553
-3.9130242e-05
-0.0017392722
-3.9985834e-05
-0.0017333038
-4.0556218e-05
-0.0017272905
-4.0862826e-05
-0.0017212689
-4.0930551e-05
-0.0017152719
-4.0785775e-05
-0.0017093281
-4.0454711e-05
-0.0017034627
-3.9961708e-05
-0.0016976973
-3.9328399e-05
-0.0016920506
-3.8572956e-05
-0.0016865389
-3.7710299e-05
-0.0016811763
-3.6752166e-05
-0.0016759755
-3.5708065e-05
-0.0016709474
-3.4585859e-05
-0.0016661021
-3.3392627e-05
-0.0016614482
-3.2135179e-05
-0.0016569932
-3.0820575e-05
-0.0016527433
-2.9456104e-05
-0.0016487038
-2.8049423e-05
-0.0016448786
-2.6608277e-05
-0.0016412705
-2.5140277e-05
-0.0016378815
-2.3652606e-05
-0.0016347124
-2.2151844e-05
-0.0016317634
-2.0643681e-05
-0.0016290339
-1.913293e-05
-0.0016265229
-1.7623421e-05
-0.0016242291
-1.6118063e-05
-0.0016221509
-1.4618841e-05
-0.0016202866
-1.3127006e-05
-0.0016186345
-1.1642972e-05
-0.001617193
-1.016668e-05
-0.0016159607
-8.6973335e-06
-0.0016149363
-7.2340078e-06
-0.0016141189
-5.7749195e-06
-0.0016135078
-4.3187896e-06
-0.0016131029
-2.8628316e-06
-1.4060478e-06
-0.0016167615
3.1070922e-06
-0.0016171568
3.289877e-06
-0.0016175714
3.4489778e-06
-0.0016180108
3.6529537e-06
-0.0016184746
3.8540991e-06
-0.0016189666
4.0853347e-06
-0.0016194878
4.3256364e-06
-0.0016200412
4.5902184e-06
-0.0016206288
4.8699895e-06
-0.0016212533
5.1722203e-06
-0.0016219171
5.4931777e-06
-0.001622623
5.8365689e-06
-0.0016233735
6.2010528e-06
-0.0016241717
6.5887306e-06
-0.0016250204
6.9993083e-06
-0.0016259226
7.4341491e-06
-0.0016268815
7.89339e-06
-0.0016279003
8.378035e-06
-0.0016289823
8.8883634e-06
-0.0016301308
9.4251799e-06
-0.0016313493
9.9887645e-06
-0.0016326413
1.0579784e-05
-0.0016340104
1.1198444e-05
-0.0016354602
1.1845287e-05
-0.0016369945
1.2520393e-05
-0.0016386168
1.3224173e-05
-0.0016403311
1.3956531e-05
-0.0016421411
1.4717711e-05
-0.0016440505
1.5507383e-05
-0.0016460632
1.6325559e-05
-0.0016481828
1.7171583e-05
-0.0016504131
1.8045055e-05
-0.0016527576
1.8945155e-05
-0.0016552199
1.9870532e-05
-0.0016578032
2.0820043e-05
-0.0016605108
2.1791502e-05
-0.0016633455
2.2782932e-05
-0.0016663098
2.3791118e-05
-0.0016694059
2.4812981e-05
-0.0016726356
2.5844005e-05
-0.0016760001
2.6879752e-05
-0.0016794997
2.7914199e-05
-0.0016831344
2.8941184e-05
-0.0016869029
2.9953295e-05
-0.0016908032
3.0942409e-05
-0.0016948322
3.1899527e-05
-0.0016989854
3.2814794e-05
-0.0017032572
3.36776e-05
-0.0017076403
3.4476474e-05
-0.0017121261
3.519927e-05
-0.0017167041
3.5833153e-05
-0.0017213622
3.6364684e-05
-0.0017260863
3.6779886e-05
-0.0017308603
3.706443e-05
-0.0017356662
3.7203608e-05
-0.0017404839
3.7182651e-05
-0.0017452911
3.6986841e-05
-0.0017500636
3.6601758e-05
-0.0017547751
3.6013523e-05
-0.0017593974
3.5209174e-05
-0.0017639003
3.4176827e-05
-0.0017682525
3.2906182e-05
-0.0017724209
3.1388796e-05
-0.0017763715
2.9618476e-05
-0.0017800697
2.7591627e-05
-0.0017834806
2.5307622e-05
-0.0017865693
2.2769175e-05
-0.0017893019
1.9982574e-05
-0.0017916454
1.6958053e-05
-0.0017935689
1.371002e-05
-0.0017950438
1.0257226e-05
-0.0017960445
6.6229366e-06
-0.0017965493
2.834977e-06
-0.0017965407
-1.0744177e-06
-0.0017960062
-5.0685592e-06
-0.0017949386
-9.1068101e-06
-0.0017933368
-1.3145292e-05
-0.0017912059
-1.7137403e-05
-0.0017885575
-2.1034949e-05
-0.0017854099
-2.4789385e-05
-0.0017817877
-2.8353293e-05
-0.0017777214
-3.1682078e-05
-0.0017732472
-3.4735584e-05
-0.0017684059
-3.7479929e-05
-0.001763242
-3.9888807e-05
-0.0017578025
-4.194485e-05
-0.0017521356
-4.3640063e-05
-0.0017462897
-4.4976146e-05
-0.0017403119
-4.5963653e-05
-0.001734247
-4.6621084e-05
-0.0017281369
-4.6972955e-05
-0.0017220196
-4.7047869e-05
-0.0017159291
-4.6876211e-05
-0.0017098956
-4.6488292e-05
-0.0017039449
-4.5912355e-05
-0.0016980997
-4.5173614e-05
-0.0016923793
-4.4293355e-05
-0.0016868004
-4.3289171e-05
-0.0016813776
-4.2175003e-05
-0.0016761234
-4.0962217e-05
-0.0016710491
-3.9660245e-05
-0.0016661641
-3.8277574e-05
-0.001661477
-3.6822312e-05
-0.0016569948
-3.530279e-05
-0.0016527233
-3.3727533e-05
-0.0016486673
-3.210543e-05
-0.0016448302
-3.0445414e-05
-0.0016412142
-2.8756225e-05
-0.0016378208
-2.7046072e-05
-0.0016346502
-2.5322447e-05
-0.0016317021
-2.3591797e-05
-0.0016289754
-2.1859555e-05
-0.0016264688
-2.0130012e-05
-0.0016241805
-1.84064e-05
-0.0016221085
-1.6690889e-05
-0.0016202507
-1.4984806e-05
-0.0016186051
-1.3288521e-05
-0.0016171699
-1.1601865e-05
-0.0016159434
-9.9238236e-06
-0.0016149242
-8.2532455e-06
-0.0016141111
-6.587987e-06
-0.0016135034
-4.9265061e-06
-0.0016131007
-3.2655021e-06
-1.6037832e-06
-0.0016166877
3.4734874e-06
-0.0016170759
3.6780797e-06
-0.0016174832
3.8562193e-06
-0.0016179148
4.0846208e-06
-0.0016183706
4.3099003e-06
-0.0016188542
4.568915e-06
-0.0016193667
4.8381353e-06
-0.0016199111
5.1346054e-06
-0.0016204892
5.4481546e-06
-0.001621104
5.7869361e-06
-0.0016217576
6.1467806e-06
-0.0016224529
6.5318533e-06
-0.0016231925
6.9406656e-06
-0.0016239793
7.3755858e-06
-0.0016248163
7.8363003e-06
-0.0016257065
8.3243526e-06
-0.001626653
8.8399133e-06
-0.0016276591
9.3841253e-06
-0.0016287281
9.9573202e-06
-0.0016298633
1.0560419e-05
-0.0016310683
1.1193755e-05
-0.0016323466
1.1858095e-05
-0.0016337019
1.255369e-05
-0.0016351378
1.3281171e-05
-0.001636658
1.4040647e-05
-0.0016382664
1.4832601e-05
-0.0016399669
1.5656948e-05
-0.0016417631
1.6513985e-05
-0.0016436591
1.7403367e-05
-0.0016456587
1.8325133e-05
-0.0016477657
1.9278575e-05
-0.0016499839
2.0263274e-05
-0.0016523171
2.1278344e-05
-0.0016547689
2.2322307e-05
-0.0016573427
2.339392e-05
-0.001660042
2.4490776e-05
-0.0016628698
2.5610705e-05
-0.0016658288
2.6750155e-05
-0.0016689216
2.7905731e-05
-0.00167215
2.9072424e-05
-0.0016755156
3.0245317e-05
-0.0016790191
3.1417714e-05
-0.0016826606
3.2582757e-05
-0.0016864395
3.3732179e-05
-0.001690354
3.4856901e-05
-0.0016944013
3.5946844e-05
-0.0016985775