/*--------------------------------*- C++ -*----------------------------------*\
| =========                 |                                                 |
| \\      /  F ield         | foam-extend: Open Source CFD                    |
|  \\    /   O peration     | Version:     4.1                                |
|   \\  /    A nd           | Web:         http://www.foam-extend.org         |
|    \\/     M anipulation  |                                                 |
\*---------------------------------------------------------------------------*/
FoamFile
{
    version     2.0;
    format      ascii;
    class       volScalarField;
    location    "0.8";
    object      rAU;
}
// * * * * * * * * * * * * * * * * * * * * * * * * * * * * * * * * * * * * * //

dimensions      [0 0 1 0 0 0 0];

internalField   nonuniform List<scalar> 
16796
(
0.000487911
0.00048750212
0.00048749939
0.00048749659
0.00048749355
0.00048749042
0.00048748701
0.00048748349
0.00048747966
0.00048747569
0.00048747138
0.0004874669
0.00048746204
0.00048745698
0.00048745152
0.00048744581
0.00048743965
0.00048743322
0.00048742631
0.00048741907
0.00048741132
0.00048740321
0.00048739453
0.00048738545
0.00048737577
0.00048736565
0.00048735488
0.00048734363
0.00048733168
0.00048731921
0.00048730602
0.00048729221
0.00048727777
0.00048726254
0.00048724669
0.00048723003
0.00048721271
0.00048719455
0.00048717572
0.00048715604
0.00048713568
0.00048711448
0.00048709256
0.0004870699
0.00048704651
0.00048702243
0.00048699769
0.00048697235
0.00048694643
0.00048692002
0.00048689317
0.00048686597
0.0004868385
0.00048681089
0.00048678321
0.00048675561
0.00048672821
0.00048670115
0.00048667458
0.00048664867
0.00048662358
0.00048659948
0.00048657655
0.00048655498
0.00048653495
0.00048651664
0.00048650025
0.00048648593
0.00048647387
0.00048646422
0.00048645712
0.00048645271
0.00048645109
0.00048645109
0.00048645234
0.00048645652
0.00048646367
0.00048647376
0.00048648679
0.00048650266
0.00048652127
0.00048654249
0.00048656613
0.000486592
0.00048661987
0.0004866495
0.00048668062
0.00048671298
0.00048674632
0.00048678037
0.00048681491
0.00048684972
0.0004868846
0.00048691937
0.00048695387
0.00048698798
0.00048702157
0.00048705457
0.00048708685
0.00048711835
0.00048714899
0.00048717871
0.00048720743
0.00048723512
0.00048726171
0.00048728715
0.0004873114
0.00048733444
0.00048735623
0.00048737675
0.00048739599
0.00048741394
0.00048743059
0.00048744594
0.00048745999
0.00048747274
0.0004874842
0.00048749437
0.00048750325
0.00048751086
0.00048751718
0.00048752223
0.00048752601
0.00048712279
0.0004876038
0.0004871953
0.00048719245
0.00048718951
0.00048718632
0.00048718302
0.00048717944
0.00048717572
0.00048717169
0.0004871675
0.00048716296
0.00048715823
0.00048715311
0.00048714777
0.000487142
0.00048713598
0.00048712949
0.00048712271
0.00048711542
0.0004871078
0.00048709964
0.00048709109
0.00048708197
0.00048707242
0.00048706225
0.00048705162
0.00048704032
0.00048702852
0.000487016
0.00048700294
0.00048698913
0.00048697469
0.0004869596
0.0004869437
0.00048692717
0.0004869098
0.00048689177
0.00048687289
0.00048685333
0.0004868329
0.0004868118
0.00048678986
0.00048676721
0.00048674382
0.00048671974
0.00048669498
0.0004866696
0.00048664365
0.00048661718
0.00048659027
0.00048656299
0.00048653543
0.00048650769
0.0004864799
0.00048645216
0.0004864246
0.00048639737
0.00048637062
0.00048634451
0.00048631921
0.00048629489
0.00048627173
0.00048624992
0.00048622964
0.00048621109
0.00048619444
0.00048617989
0.0004861676
0.00048615772
0.00048615042
0.00048614582
0.00048614403
0.00048614515
0.00048614552
0.0004861438
0.00048614499
0.00048614914
0.0004861563
0.00048616646
0.00048617957
0.00048619558
0.00048621436
0.00048623579
0.00048625967
0.0004862858
0.00048631395
0.00048634386
0.00048637527
0.00048640792
0.00048644152
0.00048647584
0.00048651061
0.00048654563
0.0004865807
0.00048661563
0.00048665028
0.00048668451
0.00048671823
0.00048675131
0.00048678368
0.00048681526
0.00048684597
0.00048687574
0.00048690452
0.00048693224
0.00048695885
0.00048698431
0.00048700858
0.00048703161
0.0004870534
0.00048707391
0.00048709313
0.00048711106
0.00048712769
0.00048714301
0.00048715704
0.00048716976
0.0004871812
0.00048719134
0.00048720021
0.00048720779
0.00048721411
0.00048721915
0.0004868177
0.00048760151
0.00048719287
0.00048718992
0.00048718683
0.0004871835
0.00048718004
0.00048717628
0.00048717238
0.00048716815
0.00048716374
0.00048715897
0.00048715399
0.00048714861
0.00048714299
0.00048713693
0.00048713059
0.00048712378
0.00048711664
0.00048710899
0.00048710098
0.00048709241
0.00048708344
0.00048707387
0.00048706385
0.00048705319
0.00048704205
0.00048703021
0.00048701785
0.00048700476
0.0004869911
0.00048697668
0.00048696159
0.00048694584
0.00048692927
0.00048691203
0.00048689395
0.00048687518
0.00048685555
0.00048683523
0.00048681404
0.00048679216
0.00048676945
0.00048674603
0.00048672189
0.00048669706
0.00048667158
0.0004866455
0.00048661889
0.0004865918
0.00048656432
0.00048653654
0.00048650855
0.00048648046
0.0004864524
0.0004864245
0.00048639689
0.00048636973
0.00048634318
0.00048631741
0.00048629261
0.00048626894
0.00048624661
0.0004862258
0.00048620671
0.00048618953
0.00048617443
0.00048616162
0.00048615125
0.00048614348
0.00048613844
0.00048613627
0.00048613705
0.00048614086
0.00048614169
0.00048613695
0.0004861351
0.00048613625
0.00048614044
0.00048614774
0.00048615812
0.00048617155
0.00048618795
0.00048620721
0.00048622917
0.00048625364
0.0004862804
0.00048630921
0.00048633978
0.00048637185
0.00048640512
0.00048643933
0.0004864742
0.00048650949
0.00048654497
0.00048658046
0.00048661577
0.00048665076
0.00048668531
0.00048671929
0.00048675263
0.00048678523
0.00048681701
0.0004868479
0.00048687785
0.00048690677
0.00048693461
0.00048696132
0.00048698686
0.00048701118
0.00048703426
0.00048705607
0.00048707659
0.00048709582
0.00048711374
0.00048713035
0.00048714566
0.00048715967
0.00048717237
0.00048718379
0.00048719392
0.00048720277
0.00048721035
0.00048721666
0.00048681648
0.00048759928
0.00048719053
0.00048718747
0.00048718424
0.00048718077
0.00048717715
0.00048717324
0.00048716915
0.00048716473
0.00048716011
0.00048715512
0.0004871499
0.00048714427
0.00048713838
0.00048713204
0.00048712539
0.00048711826
0.00048711078
0.00048710277
0.00048709438
0.00048708542
0.00048707603
0.00048706602
0.00048705555
0.00048704441
0.00048703276
0.00048702041
0.0004870075
0.00048699385
0.0004869796
0.00048696456
0.00048694884
0.00048693243
0.00048691518
0.00048689725
0.00048687846
0.00048685896
0.00048683858
0.0004868175
0.00048679554
0.00048677289
0.00048674939
0.0004867252
0.00048670028
0.00048667468
0.00048664846
0.00048662166
0.00048659436
0.00048656662
0.00048653854
0.00048651021
0.00048648174
0.00048645324
0.00048642487
0.00048639673
0.00048636901
0.00048634185
0.00048631542
0.00048628991
0.00048626552
0.00048624243
0.00048622084
0.00048620094
0.00048618294
0.00048616704
0.00048615342
0.00048614227
0.00048613375
0.00048612801
0.00048612518
0.00048612538
0.00048612868
0.00048613515
0.00048613664
0.00048612881
0.00048612388
0.00048612197
0.00048612317
0.00048612758
0.00048613521
0.00048614606
0.00048616008
0.00048617719
0.00048619727
0.00048622012
0.00048624554
0.00048627329
0.00048630309
0.00048633465
0.00048636767
0.00048640185
0.00048643689
0.00048647253
0.00048650852
0.00048654464
0.00048658069
0.00048661651
0.00048665196
0.00048668693
0.00048672129
0.00048675497
0.00048678788
0.00048681994
0.00048685109
0.00048688124
0.00048691033
0.00048693832
0.00048696515
0.00048699077
0.00048701515
0.00048703827
0.0004870601
0.00048708062
0.00048709984
0.00048711773
0.00048713433
0.00048714961
0.00048716358
0.00048717626
0.00048718765
0.00048719776
0.0004872066
0.00048721417
0.00048681526
0.00048759712
0.00048718826
0.0004871851
0.00048718174
0.00048717815
0.00048717437
0.0004871703
0.00048716604
0.00048716144
0.00048715662
0.00048715142
0.00048714597
0.0004871401
0.00048713395
0.00048712732
0.00048712039
0.00048711294
0.00048710514
0.00048709678
0.00048708803
0.00048707868
0.00048706888
0.00048705845
0.00048704752
0.00048703592
0.00048702378
0.00048701091
0.00048699747
0.00048698325
0.00048696842
0.00048695278
0.00048693644
0.00048691939
0.00048690146
0.00048688284
0.00048686334
0.00048684311
0.00048682199
0.00048680014
0.00048677741
0.00048675397
0.00048672968
0.0004867047
0.00048667899
0.00048665261
0.00048662562
0.00048659807
0.00048657005
0.00048654163
0.0004865129
0.00048648397
0.00048645497
0.00048642601
0.00048639724
0.00048636882
0.00048634089
0.00048631365
0.00048628727
0.00048626194
0.00048623787
0.00048621526
0.00048619432
0.00048617525
0.00048615826
0.00048614355
0.00048613131
0.00048612175
0.000486115
0.00048611123
0.00048611055
0.00048611307
0.00048611885
0.00048612795
0.00048613037
0.00048611939
0.00048611131
0.00048610629
0.00048610446
0.00048610595
0.0004861108
0.00048611906
0.00048613071
0.00048614569
0.00048616389
0.00048618516
0.00048620929
0.00048623604
0.00048626513
0.00048629625
0.00048632908
0.00048636332
0.00048639862
0.0004864347
0.00048647128
0.00048650812
0.000486545
0.00048658173
0.00048661817
0.00048665418
0.00048668965
0.00048672447
0.00048675856
0.00048679184
0.00048682423
0.00048685565
0.00048688603
0.00048691532
0.00048694346
0.00048697039
0.0004869961
0.00048702053
0.00048704366
0.00048706549
0.00048708599
0.00048710517
0.00048712304
0.00048713959
0.00048715483
0.00048716876
0.00048718141
0.00048719277
0.00048720286
0.00048721169
0.00048681404
0.00048759505
0.00048718607
0.00048718282
0.00048717934
0.00048717562
0.0004871717
0.00048716748
0.00048716306
0.00048715828
0.00048715327
0.00048714786
0.0004871422
0.00048713609
0.00048712969
0.0004871228
0.00048711558
0.00048710784
0.00048709972
0.00048709102
0.00048708191
0.00048707218
0.00048706199
0.00048705114
0.00048703978
0.00048702772
0.0004870151
0.00048700172
0.00048698776
0.00048697299
0.00048695759
0.00048694135
0.00048692439
0.00048690669
0.00048688811
0.0004868688
0.00048684859
0.00048682763
0.00048680576
0.00048678315
0.00048675963
0.00048673541
0.00048671032
0.00048668453
0.00048665801
0.00048663083
0.00048660304
0.00048657471
0.00048654594
0.00048651678
0.00048648736
0.00048645779
0.0004864282
0.0004863987
0.00048636949
0.00048634069
0.0004863125
0.00048628509
0.00048625867
0.00048623343
0.00048620959
0.00048618737
0.00048616697
0.00048614863
0.00048613256
0.00048611896
0.00048610803
0.00048609996
0.00048609492
0.00048609305
0.00048609447
0.00048609927
0.0004861075
0.00048611919
0.00048612293
0.00048610872
0.00048609742
0.00048608922
0.00048608431
0.00048608283
0.00048608488
0.00048609053
0.00048609979
0.00048611264
0.000486129
0.00048614871
0.00048617158
0.00048619738
0.00048622581
0.00048625656
0.00048628929
0.00048632366
0.00048635931
0.00048639591
0.00048643318
0.00048647083
0.00048650862
0.00048654636
0.00048658387
0.00048662101
0.00048665765
0.00048669368
0.00048672902
0.00048676357
0.00048679725
0.00048682999
0.0004868617
0.00048689232
0.00048692179
0.00048695006
0.00048697709
0.00048700284
0.00048702729
0.00048705042
0.00048707221
0.00048709268
0.00048711182
0.00048712963
0.00048714612
0.00048716131
0.0004871752
0.0004871878
0.00048719914
0.00048720922
0.00048681283
0.00048759305
0.00048718397
0.00048718064
0.00048717704
0.00048717321
0.00048716915
0.00048716479
0.00048716021
0.00048715526
0.00048715007
0.00048714447
0.0004871386
0.00048713226
0.00048712562
0.00048711848
0.00048711099
0.00048710295
0.00048709452
0.0004870855
0.00048707604
0.00048706595
0.00048705537
0.00048704412
0.00048703233
0.00048701982
0.00048700673
0.00048699286
0.00048697838
0.00048696307
0.00048694711
0.00048693028
0.00048691271
0.00048689437
0.00048687513
0.00048685514
0.00048683421
0.00048681253
0.00048678991
0.00048676653
0.00048674223
0.0004867172
0.0004866913
0.00048666469
0.00048663734
0.00048660934
0.00048658073
0.00048655158
0.00048652201
0.00048649208
0.00048646192
0.00048643164
0.00048640139
0.0004863713
0.00048634156
0.00048631232
0.00048628376
0.0004862561
0.00048622954
0.00048620429
0.0004861806
0.00048615866
0.00048613872
0.00048612101
0.00048610576
0.00048609317
0.00048608346
0.00048607682
0.00048607341
0.00048607338
0.00048607684
0.00048608388
0.00048609453
0.00048610881
0.00048611434
0.0004860968
0.00048608219
0.00048607075
0.00048606269
0.00048605819
0.00048605739
0.0004860604
0.00048606727
0.00048607798
0.00048609249
0.00048611067
0.00048613232
0.00048615722
0.00048618506
0.00048621551
0.0004862482
0.00048628279
0.00048631887
0.00048635611
0.00048639415
0.00048643271
0.00048647152
0.00048651035
0.00048654903
0.00048658738
0.00048662527
0.0004866626
0.00048669925
0.00048673513
0.00048677016
0.00048680425
0.00048683732
0.0004868693
0.00048690014
0.00048692976
0.00048695813
0.00048698522
0.00048701099
0.00048703542
0.00048705851
0.00048708025
0.00048710066
0.00048711973
0.00048713747
0.0004871539
0.00048716903
0.00048718287
0.00048719544
0.00048720676
0.00048681162
0.00048759114
0.00048718197
0.00048717855
0.00048717484
0.0004871709
0.00048716672
0.00048716223
0.0004871575
0.00048715239
0.00048714703
0.00048714124
0.00048713516
0.00048712861
0.00048712174
0.00048711435
0.0004871066
0.00048709828
0.00048708955
0.00048708022
0.00048707043
0.00048705998
0.00048704903
0.00048703738
0.00048702517
0.00048701222
0.00048699867
0.00048698432
0.00048696933
0.00048695349
0.00048693697
0.00048691956
0.00048690139
0.00048688242
0.00048686252
0.00048684185
0.00048682023
0.00048679781
0.00048677444
0.00048675029
0.0004867252
0.00048669936
0.00048667263
0.00048664517
0.00048661698
0.00048658812
0.00048655866
0.00048652866
0.00048649825
0.0004864675
0.00048643654
0.0004864055
0.00048637453
0.00048634377
0.00048631342
0.00048628364
0.00048625464
0.00048622664
0.00048619984
0.00048617448
0.00048615082
0.00048612907
0.00048610948
0.0004860923
0.00048607777
0.00048606611
0.00048605752
0.00048605223
0.00048605038
0.00048605212
0.00048605758
0.00048606682
0.00048607986
0.00048609672
0.00048610461
0.00048608364
0.00048606564
0.00048605087
0.00048603958
0.000486032
0.0004860283
0.00048602862
0.00048603306
0.00048604164
0.00048605431
0.00048607097
0.00048609143
0.00048611547
0.00048614277
0.00048617299
0.00048620574
0.00048624063
0.00048627724
0.0004863152
0.00048635413
0.0004863937
0.00048643363
0.00048647365
0.00048651359
0.00048655325
0.00048659249
0.00048663118
0.00048666921
0.00048670649
0.00048674293
0.00048677843
0.0004868129
0.00048684629
0.00048687851
0.0004869095
0.00048693924
0.00048696767
0.00048699476
0.00048702051
0.00048704489
0.00048706791
0.00048708958
0.0004871099
0.00048712888
0.00048714654
0.00048716289
0.00048717796
0.00048719177
0.00048720432
0.00048681042
0.00048758931
0.00048718005
0.00048717657
0.00048717275
0.00048716871
0.00048716441
0.0004871598
0.00048715492
0.00048714967
0.00048714414
0.00048713817
0.0004871319
0.00048712515
0.00048711806
0.00048711043
0.00048710243
0.00048709384
0.00048708483
0.00048707519
0.00048706507
0.00048705428
0.00048704297
0.00048703093
0.00048701833
0.00048700494
0.00048699094
0.00048697612
0.00048696063
0.00048694427
0.00048692721
0.00048690923
0.00048689045
0.00048687086
0.00048685031
0.00048682897
0.00048680664
0.0004867835
0.00048675937
0.00048673444
0.00048670855
0.00048668188
0.00048665432
0.000486626
0.00048659693
0.00048656719
0.00048653684
0.00048650595
0.00048647465
0.00048644303
0.00048641121
0.00048637935
0.00048634758
0.00048631607
0.00048628503
0.00048625463
0.00048622509
0.00048619664
0.00048616951
0.00048614393
0.00048612019
0.00048609851
0.00048607917
0.00048606242
0.0004860485
0.00048603766
0.00048603011
0.00048602608
0.00048602572
0.00048602919
0.00048603658
0.00048604799
0.00048606341
0.00048608285
0.00048609377
0.00048606926
0.00048604775
0.00048602955
0.00048601494
0.0004860042
0.00048599754
0.00048599514
0.00048599711
0.00048600353
0.00048601436
0.00048602951
0.00048604882
0.00048607204
0.00048609886
0.00048612892
0.0004861618
0.00048619709
0.00048623434
0.00048627312
0.00048631304
0.00048635374
0.00048639489
0.00048643623
0.00048647753
0.0004865186
0.00048655927
0.00048659942
0.00048663892
0.00048667767
0.00048671557
0.00048675253
0.00048678845
0.00048682327
0.00048685691
0.00048688931
0.00048692043
0.00048695021
0.00048697864
0.00048700569
0.00048703137
0.00048705566
0.00048707858
0.00048710014
0.00048712035
0.00048713924
0.00048715681
0.0004871731
0.00048718812
0.00048720189
0.00048680922
0.00048758759
0.00048717824
0.00048717469
0.00048717078
0.00048716665
0.00048716224
0.0004871575
0.0004871525
0.0004871471
0.00048714142
0.00048713528
0.00048712883
0.00048712189
0.00048711458
0.00048710673
0.00048709849
0.00048708964
0.00048708035
0.00048707042
0.00048705999
0.00048704887
0.00048703721
0.0004870248
0.0004870118
0.000486998
0.00048698356
0.00048696827
0.0004869523
0.00048693543
0.00048691782
0.00048689928
0.00048687991
0.0004868597
0.00048683851
0.00048681649
0.00048679346
0.00048676959
0.0004867447
0.00048671899
0.00048669229
0.00048666479
0.00048663636
0.00048660717
0.0004865772
0.00048654654
0.00048651526
0.00048648345
0.00048645121
0.00048641866
0.00048638593
0.00048635316
0.00048632053
0.00048628819
0.00048625637
0.00048622525
0.00048619507
0.00048616606
0.00048613848
0.00048611258
0.00048608864
0.00048606692
0.00048604771
0.00048603127
0.00048601786
0.00048600774
0.00048600114
0.00048599828
0.00048599934
0.00048600446
0.00048601376
0.0004860273
0.00048604508
0.00048606709
0.00048608184
0.00048605367
0.00048602853
0.00048600678
0.00048598875
0.00048597476
0.00048596506
0.00048595987
0.00048595935
0.00048596357
0.00048597255
0.00048598621
0.00048600439
0.00048602684
0.00048605324
0.00048608321
0.00048611631
0.00048615209
0.00048619007
0.0004862298
0.00048627083
0.00048631277
0.00048635527
0.00048639804
0.00048644082
0.0004864834
0.00048652561
0.0004865673
0.00048660835
0.00048664864
0.00048668808
0.00048672656
0.00048676398
0.00048680028
0.00048683537
0.00048686919
0.0004869017
0.00048693285
0.00048696262
0.00048699099
0.00048701796
0.00048704352
0.00048706769
0.00048709048
0.00048711191
0.00048713201
0.00048715079
0.00048716828
0.0004871845
0.00048719949
0.00048680804
0.00048758595
0.00048717654
0.00048717293
0.00048716893
0.00048716471
0.0004871602
0.00048715535
0.00048715023
0.0004871447
0.00048713887
0.00048713258
0.00048712596
0.00048711882
0.00048711132
0.00048710326
0.00048709478
0.00048708569
0.00048707614
0.00048706592
0.0004870552
0.00048704375
0.00048703175
0.00048701898
0.0004870056
0.00048699139
0.00048697652
0.00048696079
0.00048694433
0.00048692696
0.00048690882
0.00048688972
0.00048686978
0.00048684896
0.00048682712
0.00048680443
0.0004867807
0.0004867561
0.00048673046
0.00048670396
0.00048667643
0.00048664808
0.00048661878
0.00048658868
0.0004865578
0.00048652619
0.00048649395
0.00048646116
0.00048642794
0.0004863944
0.00048636068
0.00048632694
0.00048629336
0.0004862601
0.0004862274
0.00048619547
0.00048616454
0.00048613486
0.00048610671
0.00048608036
0.00048605611
0.00048603423
0.00048601502
0.00048599877
0.00048598575
0.00048597625
0.00048597049
0.00048596873
0.00048597112
0.00048597784
0.00048598899
0.00048600463
0.00048602477
0.00048604936
0.00048606883
0.00048603685
0.00048600795
0.00048598253
0.00048596097
0.00048594363
0.0004859308
0.00048592275
0.00048591967
0.00048592167
0.00048592879
0.00048594096
0.00048595803
0.00048597975
0.00048600579
0.00048603574
0.00048606915
0.00048610554
0.00048614437
0.00048618516
0.00048622742
0.00048627074
0.00048631472
0.00048635903
0.00048640342
0.00048644763
0.00048649148
0.00048653483
0.00048657752
0.00048661943
0.00048666047
0.00048670052
0.0004867395
0.00048677731
0.00048681389
0.00048684916
0.00048688308
0.00048691562
0.00048694673
0.00048697642
0.00048700467
0.0004870315
0.00048705691
0.00048708092
0.00048710356
0.00048712486
0.00048714483
0.00048716351
0.00048718093
0.00048719711
0.00048680687
0.00048758443
0.00048717494
0.00048717128
0.0004871672
0.00048716291
0.0004871583
0.00048715336
0.00048714812
0.00048714246
0.0004871365
0.00048713006
0.00048712328
0.00048711597
0.00048710828
0.00048710001
0.00048709132
0.00048708199
0.00048707219
0.0004870617
0.00048705069
0.00048703894
0.00048702661
0.00048701349
0.00048699973
0.00048698514
0.00048696985
0.00048695367
0.00048693675
0.00048691889
0.00048690024
0.00048688059
0.00048686006
0.00048683864
0.00048681617
0.00048679281
0.00048676838
0.00048674305
0.00048671664
0.00048668935
0.00048666099
0.00048663178
0.00048660159
0.00048657057
0.00048653872
0.00048650614
0.00048647289
0.00048643908
0.00048640482
0.00048637023
0.00048633546
0.00048630067
0.00048626605
0.00048623179
0.00048619812
0.00048616525
0.00048613345
0.00048610299
0.00048607415
0.00048604722
0.00048602252
0.00048600035
0.00048598101
0.00048596483
0.00048595209
0.00048594308
0.00048593807
0.0004859373
0.00048594095
0.00048594921
0.00048596216
0.00048597989
0.00048600237
0.00048602955
0.00048605475
0.00048601881
0.00048598599
0.00048595677
0.00048593154
0.00048591073
0.00048589468
0.00048588369
0.00048587799
0.00048587773
0.00048588296
0.00048589365
0.00048590963
0.00048593066
0.0004859564
0.00048598643
0.00048602025
0.00048605734
0.00048609714
0.00048613912
0.00048618276
0.00048622759
0.00048627318
0.00048631919
0.0004863653
0.00048641127
0.00048645689
0.00048650198
0.00048654641
0.00048659003
0.00048663275
0.00048667444
0.00048671502
0.0004867544
0.00048679249
0.00048682924
0.0004868646
0.00048689852
0.000486931
0.000486962
0.00048699154
0.00048701962
0.00048704626
0.00048707149
0.00048709532
0.0004871178
0.00048713894
0.00048715879
0.00048717739
0.00048719476
0.00048680571
0.000487583
0.00048717346
0.00048716975
0.0004871656
0.00048716124
0.00048715654
0.00048715151
0.00048714616
0.0004871404
0.00048713431
0.00048712773
0.0004871208
0.00048711333
0.00048710546
0.00048709701
0.0004870881
0.00048707856
0.00048706851
0.00048705777
0.00048704648
0.00048703444
0.00048702179
0.00048700834
0.00048699422
0.00048697925
0.00048696356
0.00048694695
0.00048692957
0.00048691123
0.00048689206
0.00048687188
0.00048685079
0.00048682876
0.00048680566
0.00048678164
0.00048675651
0.00048673045
0.00048670328
0.00048667518
0.00048664598
0.0004866159
0.00048658479
0.00048655282
0.00048652
0.0004864864
0.0004864521
0.00048641722
0.00048638186
0.00048634616
0.00048631026
0.00048627435
0.0004862386
0.00048620323
0.00048616847
0.00048613457
0.00048610179
0.00048607041
0.00048604075
0.0004860131
0.00048598781
0.0004859652
0.0004859456
0.00048592935
0.00048591676
0.00048590813
0.00048590375
0.00048590387
0.00048590871
0.00048591843
0.00048593315
0.00048595293
0.00048597775
0.00048600755
0.00048603962
0.00048599954
0.00048596265
0.00048592945
0.00048590042
0.00048587601
0.00048585662
0.0004858426
0.00048583421
0.00048583163
0.00048583495
0.00048584414
0.00048585906
0.00048587945
0.00048590496
0.00048593515
0.00048596947
0.00048600739
0.0004860483
0.00048609161
0.00048613677
0.00048618326
0.00048623062
0.00048627846
0.00048632645
0.0004863743
0.0004864218
0.00048646877
0.00048651503
0.00048656045
0.00048660493
0.00048664833
0.00048669057
0.00048673155
0.0004867712
0.00048680945
0.00048684627
0.0004868816
0.00048691543
0.00048694775
0.00048697857
0.00048700789
0.00048703576
0.00048706218
0.00048708719
0.00048711083
0.00048713314
0.00048715414
0.0004871739
0.00048719243
0.00048680456
0.00048758169
0.00048717209
0.00048716835
0.00048716413
0.00048715971
0.00048715494
0.00048714982
0.00048714438
0.00048713851
0.0004871323
0.0004871256
0.00048711853
0.00048711091
0.00048710288
0.00048709425
0.00048708515
0.00048707539
0.00048706512
0.00048705414
0.00048704258
0.00048703026
0.00048701731
0.00048700353
0.00048698907
0.00048697373
0.00048695765
0.00048694062
0.0004869228
0.00048690399
0.00048688433
0.00048686361
0.00048684196
0.00048681935
0.00048679562
0.00048677094
0.00048674512
0.00048671833
0.00048669038
0.00048666147
0.00048663143
0.00048660046
0.00048656842
0.00048653547
0.00048650164
0.00048646698
0.0004864316
0.00048639559
0.00048635908
0.00048632219
0.0004862851
0.00048624797
0.00048621101
0.00048617442
0.00048613847
0.0004861034
0.0004860695
0.00048603708
0.00048600645
0.00048597794
0.00048595192
0.00048592872
0.00048590871
0.00048589224
0.00048587966
0.00048587128
0.00048586741
0.00048586834
0.00048587426
0.00048588538
0.00048590182
0.00048592363
0.00048595079
0.00048598322
0.00048602063
0.00048597904
0.00048593789
0.00048590054
0.00048586754
0.00048583939
0.00048581654
0.00048579937
0.00048578821
0.00048578326
0.00048578463
0.00048579233
0.0004858062
0.000485826
0.00048585135
0.00048588178
0.00048591673
0.00048595561
0.00048599776
0.00048604256
0.0004860894
0.00048613771
0.000486187
0.00048623683
0.00048628684
0.00048633673
0.00048638625
0.0004864352
0.00048648341
0.00048653073
0.00048657704
0.00048662222
0.00048666618
0.00048670881
0.00048675005
0.00048678983
0.00048682812
0.00048686486
0.00048690006
0.00048693369
0.00048696579
0.00048699635
0.00048702542
0.00048705302
0.00048707919
0.00048710398
0.00048712742
0.00048714957
0.00048717046
0.00048719014
0.00048680343
0.00048758049
0.00048717085
0.00048716707
0.0004871628
0.00048715833
0.00048715348
0.0004871483
0.00048714277
0.00048713681
0.0004871305
0.00048712368
0.00048711649
0.00048710873
0.00048710054
0.00048709174
0.00048708246
0.00048707251
0.00048706202
0.00048705081
0.00048703901
0.00048702641
0.00048701318
0.00048699909
0.0004869843
0.0004869686
0.00048695214
0.00048693471
0.00048691646
0.00048689719
0.00048687704
0.00048685581
0.0004868336
0.00048681041
0.00048678606
0.00048676073
0.00048673422
0.00048670669
0.00048667798
0.00048664825
0.00048661735
0.00048658547
0.00048655248
0.00048651854
0.00048648366
0.00048644792
0.0004864114
0.00048637421
0.00048633648
0.00048629835
0.00048625997
0.00048622154
0.00048618326
0.00048614535
0.00048610809
0.00048607173
0.00048603658
0.00048600296
0.00048597121
0.00048594169
0.00048591477
0.00048589083
0.00048587025
0.00048585341
0.00048584068
0.00048583242
0.00048582894
0.00048583055
0.00048583748
0.00048584993
0.00048586803
0.00048589184
0.00048592134
0.00048595645
0.00048599695
0.0004859573
0.00048591168
0.00048587
0.00048583285
0.00048580079
0.00048577432
0.0004857539
0.00048573986
0.00048573247
0.00048573186
0.00048573805
0.0004857509
0.00048577015
0.00048579541
0.0004858262
0.00048586189
0.00048590187
0.00048594543
0.00048599189
0.00048604058
0.00048609089
0.00048614228
0.00048619427
0.00048624647
0.00048629854
0.00048635022
0.00048640129
0.00048645156
0.00048650087
0.00048654911
0.00048659615
0.00048664188
0.00048668621
0.00048672908
0.00048677042
0.00048681019
0.00048684836
0.00048688491
0.00048691986
0.00048695322
0.000486985
0.00048701526
0.00048704403
0.00048707134
0.00048709726
0.00048712182
0.00048714507
0.00048716708
0.00048718789
0.00048680232
0.0004875794
0.00048716972
0.00048716593
0.00048716161
0.00048715709
0.00048715219
0.00048714694
0.00048714134
0.0004871353
0.00048712889
0.00048712197
0.00048711466
0.00048710677
0.00048709845
0.00048708949
0.00048708004
0.00048706991
0.00048705922
0.00048704779
0.00048703576
0.00048702291
0.0004870094
0.00048699502
0.00048697991
0.00048696387
0.00048694705
0.00048692923
0.00048691056
0.00048689084
0.00048687021
0.00048684848
0.00048682573
0.00048680197
0.00048677701
0.00048675103
0.00048672383
0.00048669557
0.00048666608
0.00048663553
0.00048660376
0.00048657096
0.000486537
0.00048650204
0.00048646609
0.00048642922
0.00048639152
0.0004863531
0.00048631409
0.00048627463
0.00048623489
0.00048619507
0.00048615536
0.00048611602
0.00048607732
0.00048603953
0.00048600299
0.00048596802
0.00048593499
0.00048590429
0.00048587631
0.00048585145
0.00048583013
0.00048581275
0.00048579972
0.00048579142
0.00048578819
0.00048579037
0.0004857982
0.0004858119
0.00048583162
0.00048585741
0.00048588926
0.00048592707
0.00048597062
0.00048593431
0.00048588399
0.00048583776
0.00048579626
0.00048576011
0.00048572988
0.00048570605
0.00048568904
0.00048567913
0.00048567649
0.00048568116
0.000485693
0.00048571176
0.00048573702
0.00048576827
0.00048580485
0.00048584608
0.00048589122
0.00048593951
0.00048599024
0.00048604275
0.00048609643
0.00048615076
0.00048620533
0.00048625975
0.00048631374
0.00048636706
0.00048641951
0.00048647092
0.00048652118
0.00048657014
0.00048661771
0.00048666379
0.00048670832
0.00048675124
0.00048679251
0.00048683211
0.00048687003
0.00048690629
0.0004869409
0.00048697389
0.00048700532
0.00048703523
0.00048706366
0.00048709067
0.00048711632
0.00048714067
0.00048716377
0.00048718568
0.00048680123
0.00048757843
0.00048716872
0.00048716492
0.00048716055
0.00048715601
0.00048715106
0.00048714575
0.00048714009
0.00048713397
0.00048712748
0.00048712047
0.00048711306
0.00048710506
0.00048709661
0.00048708751
0.00048707791
0.0004870676
0.00048705673
0.0004870451
0.00048703284
0.00048701976
0.00048700599
0.00048699133
0.00048697592
0.00048695956
0.00048694238
0.00048692418
0.00048690511
0.00048688496
0.00048686387
0.00048684164
0.00048681837
0.00048679403
0.00048676847
0.00048674185
0.00048671396
0.00048668498
0.00048665471
0.00048662334
0.00048659069
0.00048655696
0.00048652201
0.000486486
0.00048644894
0.0004864109
0.00048637198
0.00048633227
0.00048629192
0.00048625107
0.00048620988
0.00048616856
0.00048612732
0.00048608642
0.00048604615
0.0004860068
0.0004859687
0.00048593222
0.00048589775
0.00048586568
0.00048583645
0.00048581049
0.00048578824
0.00048577015
0.00048575665
0.00048574815
0.00048574503
0.00048574764
0.00048575627
0.00048577115
0.00048579243
0.00048582018
0.00048585438
0.00048589494
0.00048594159
0.00048591004
0.00048585479
0.00048580377
0.00048575769
0.00048571725
0.00048568306
0.00048565569
0.00048563558
0.00048562306
0.00048561834
0.00048562147
0.00048563234
0.00048565066
0.00048567601
0.00048570784
0.00048574545
0.00048578812
0.00048583501
0.00048588535
0.00048593833
0.00048599324
0.00048604942
0.0004861063
0.00048616342
0.00048622036
0.00048627682
0.00048633254
0.0004863873
0.00048644092
0.00048649329
0.00048654425
0.00048659372
0.0004866416
0.00048668782
0.00048673234
0.00048677513
0.00048681617
0.00048685545
0.000486893
0.00048692885