/*--------------------------------*- C++ -*----------------------------------*\
| =========                 |                                                 |
| \\      /  F ield         | foam-extend: Open Source CFD                    |
|  \\    /   O peration     | Version:     4.1                                |
|   \\  /    A nd           | Web:         http://www.foam-extend.org         |
|    \\/     M anipulation  |                                                 |
\*---------------------------------------------------------------------------*/
FoamFile
{
    version     2.0;
    format      ascii;
    class       volScalarField;
    location    "0.3";
    object      p;
}
// * * * * * * * * * * * * * * * * * * * * * * * * * * * * * * * * * * * * * //

dimensions      [0 2 -2 0 0 0 0];

internalField   nonuniform List<scalar> 
16126
(
-6.7030448
-6.7393943
-8.4409636
-10.421576
-12.608395
-14.946693
-17.417608
-20.016213
-22.744549
-25.608371
-28.615535
-31.77514
-35.097031
-38.59149
-42.269032
-46.140264
-50.215767
-54.50601
-59.021272
-63.771574
-68.766615
-74.015718
-79.527784
-85.311236
-91.37399
-97.723407
-104.36627
-111.30876
-118.55641
-126.11412
-133.9861
-142.17593
-150.6864
-159.51964
-168.677
-178.15905
-187.96549
-198.09516
-208.54589
-219.31442
-230.39625
-241.7855
-253.4747
-265.45454
-277.71362
-290.2381
-303.01138
-316.01368
-329.22162
-342.60776
-356.14012
-369.78167
-383.48986
-397.21609
-410.90532
-424.49559
-437.91773
-451.0951
-463.94343
-476.37085
-488.278
-499.5584
-510.09897
-519.78078
-528.48004
-536.06926
-542.41877
-547.39833
-550.87904
-552.7354
-552.84755
-551.10357
-547.40187
-541.65347
-533.78431
-523.73725
-511.474
-496.97677
-480.24966
-461.3193
-440.23488
-417.06804
-391.91133
-364.87743
-336.10342
-305.74811
-273.97703
-240.96281
-206.89038
-171.9515
-136.34122
-100.2548
-63.884987
-27.419397
8.9616604
45.087105
80.796645
115.94199
150.38772
184.01179
216.70576
248.37478
278.93746
308.32582
336.4838
363.36253
388.92522
413.14894
436.01823
457.52516
477.66898
496.45564
513.89754
530.01302
544.82543
558.36525
570.68128
581.85656
591.97398
600.97671
608.71299
616.13535
627.19879
644.10203
-4.9787516
-6.3370325
-8.2499965
-10.311041
-12.526514
-14.875503
-17.34951
-19.947631
-22.673649
-25.534156
-28.537447
-31.692867
-35.010407
-38.500447
-42.173565
-46.040417
-50.111619
-54.397672
-58.908879
-63.655281
-68.646597
-73.892167
-79.400903
-85.181242
-91.241106
-97.587866
-104.22831
-111.16861
-118.41433
-125.97034
-133.84087
-142.02948
-150.53899
-159.37153
-168.52846
-178.01036
-187.81698
-197.94718
-208.39884
-219.16876
-230.25254
-241.64438
-253.33692
-265.32099
-277.58534
-290.1163
-302.89746
-315.90925
-329.12849
-342.52799
-356.07599
-369.7357
-383.46478
-397.21488
-410.93111
-424.55169
-438.00757
-451.22217
-464.11123
-476.58279
-488.53737
-499.86825
-510.46201
-520.19929
-528.95574
-536.60327
-543.01144
-548.04918
-551.58669
-553.49749
-553.66069
-551.96334
-548.3028
-542.5891
-534.74721
-524.71926
-512.46646
-497.9709
-481.23665
-462.29001
-441.1803
-417.9798
-392.78308
-365.70592
-336.88143
-306.45836
-274.60471
-241.50201
-207.3381
-172.30649
-136.60369
-100.42629
-63.968216
-27.418169
9.0426271
45.242327
81.020029
116.22699
150.72746
184.39918
217.13362
248.83587
279.42438
308.83032
336.99706
363.88145
389.44965
413.67518
436.54167
458.04096
478.17207
496.94057
514.35807
530.44149
545.21213
558.6978
570.94207
582.01139
591.95538
600.7149
608.25286
615.40007
624.15385
633.26066
-3.7945853
-5.8652469
-8.0362397
-10.21396
-12.478057
-14.844653
-17.32112
-19.913721
-22.629688
-25.477408
-28.466186
-31.606001
-34.907272
-38.3807
-42.037127
-45.887431
-49.942434
-54.212818
-58.709058
-63.441353
-68.419564
-73.65316
-79.151164
-84.922106
-90.973981
-97.314213
-103.94962
-110.8864
-118.13009
-125.68554
-133.55695
-141.74781
-150.26088
-159.09822
-168.26111
-177.75008
-187.56481
-197.70412
-208.1659
-218.94695
-230.04291
-241.44809
-253.15527
-265.15545
-277.43763
-289.98844
-302.79179
-315.8285
-329.07585
-342.50708
-356.09093
-369.7911
-383.56575
-397.36698
-411.14034
-424.82441
-438.3504
-451.64189
-464.61466
-477.17663
-489.228
-500.66156
-511.36318
-521.21257
-530.08424
-537.84872
-544.37401
-549.52727
-553.17676
-555.19394
-555.45576
-553.84711
-550.26319
-544.61197
-536.81666
-526.81798
-514.57582
-500.07095
-483.30629
-464.30782
-443.12532
-419.83179
-394.52327
-367.31781
-338.35199
-307.77794
-275.76401
-242.4921
-208.1527
-172.94208
-137.05939
-100.70372
-64.071238
-27.352662
9.2690515
45.620635
81.540082
116.87786
151.49772
185.27722
218.10789
249.89515
280.55787
310.02762
338.24811
365.17584
390.77791
415.03018
437.91747
459.43262
479.57565
498.35306
515.77724
531.8657
546.64035
560.13006
572.37705
583.43405
593.32596
602.0225
609.6262
616.76037
623.79275
628.45159
-3.211396
-5.4701195
-7.7679639
-10.023928
-12.327021
-14.709098
-17.187512
-19.774203
-22.479564
-25.313776
-28.287208
-31.410503
-34.694527
-38.1503
-41.78891
-45.62144
-49.658887
-53.912094
-58.39168
-63.107979
-68.070976
-73.290253
-78.774932
-84.533633
-90.574427
-96.904796
-103.53161
-110.46109
-117.69878
-125.24957
-133.11762
-141.30642
-149.81872
-158.65657
-167.82123
-177.31323
-187.1323
-197.2773
-207.74619
-218.53591
-229.64228
-241.05982
-252.78159
-264.79896
-277.10132
-289.67577
-302.50677
-315.57573
-328.86058
-342.33523
-355.96913
-369.7267
-383.56681
-397.44222
-411.29909
-425.07651
-438.70608
-452.11161
-465.20893
-477.90578
-490.10194
-501.6895
-512.55335
-522.57188
-531.61798
-539.56023
-546.26437
-551.59503
-555.41768
-557.6008
-558.01823
-556.55162
-553.09306
-547.54766
-539.83616
-529.89652
-517.68625
-503.18431
-486.39244
-467.33627
-446.06554
-422.65393
-397.19859
-369.81896
-340.65434
-309.86149
-277.6129
-244.09381
-209.49861
-174.02759
-137.88382
-101.27009
-64.386011
-27.425346
9.4263103
45.993493
82.112463
117.63241
152.41624
186.34111
219.29849
251.19409
281.94743
311.49105
339.76998
366.74119
392.37225
416.64018
439.53076
461.03765
481.1615
499.9092
517.29312
533.33028
548.042
561.4564
573.61125
584.54488
594.26797
602.78359
610.25602
617.07719
622.93496
625.99018
-2.9515929
-5.2232044
-7.5681351
-9.8635314
-12.187179
-14.574209
-17.046725
-19.620353
-22.307959
-25.121331
-28.071898
-31.171028
-34.430108
-37.860564
-41.473815
-45.281226
-49.294048
-53.523354
-57.979976
-62.674443
-67.616917
-72.817139
-78.284372
-84.027353
-90.054248
-96.372611
-102.98936
-109.91073
-117.14229
-124.68888
-132.55466
-140.74305
-149.25675
-158.09776
-167.2673
-176.76588
-186.59321
-196.7482
-207.22889
-218.03235
-229.1546
-240.59044
-252.33329
-264.37494
-276.70531
-289.31213
-302.18056
-315.29278
-328.62757
-342.15977
-355.85975
-369.69291
-383.61902
-397.59176
-411.5581
-425.4578
-439.22301
-452.77784
-466.03819
-478.91157
-491.29721
-503.08627
-514.16229
-524.40194
-533.67593
-541.85023
-548.78757
-554.34919
-558.39682
-560.79495
-561.41318
-560.12891
-556.83011
-551.41822
-543.81015
-533.94014
-521.76296
-507.25546
-490.41802
-471.27567
-449.8784
-426.30113
-400.64294
-373.02579
-343.59233
-312.50371
-279.9372
-246.08296
-211.14062
-175.31579
-138.81676
-101.85127
-64.623471
-27.331178
9.836513
46.701248
83.097015
118.87134
153.88609
188.01786
221.15811
253.21291
284.10252
313.76064
342.13377
369.18027
394.8692
419.17919
442.09752
463.61915
483.74579
502.48498
519.84916
535.85475
550.52178
563.87569
575.94673
586.75856
596.31242
604.62561
611.83525
618.10934
622.95761
625.20391
-2.7881084
-5.0116099
-7.3565782
-9.6619981
-11.989962
-14.372812
-16.833743
-19.390192
-22.056613
-24.845992
-27.770633
-30.84254
-34.073586
-37.47558
-41.060262
-44.839277
-48.824128
-53.026122
-57.456308
-62.125417
-67.043801
-72.221371
-77.667546
-83.391197
-89.400602
-95.70341
-102.3066
-109.21647
-116.4386
-123.97785
-131.83835
-140.02352
-148.53604
-157.37788
-166.55026
-176.05371
-185.88799
-196.0521
-206.54421
-217.36164
-228.50067
-239.95651
-251.72302
-263.79261
-276.15586
-288.80129
-301.71497
-314.88008
-328.27645
-341.88008
-355.66254
-369.59042
-383.62469
-397.72015
-411.8248
-425.87929
-439.81643
-453.56076
-467.02829
-480.12628
-492.75327
-504.79929
-516.14627
-526.66869
-536.23456
-544.7066
-551.94377
-557.80304
-562.14147
-564.81846
-565.69825
-564.65287
-561.56525
-556.33172
-548.86375
-539.09138
-526.96572
-512.46072
-495.57487
-476.33231
-454.7833
-431.00416
-405.09657
-377.18602
-347.41982
-315.96464
-283.00378
-248.73383
-213.36109
-177.09792
-140.15921
-102.75895
-65.107039
-27.40641
10.14944
47.378532
84.112024
120.1954
155.48924
189.86955
223.22781
255.4707
286.51948
316.30927
344.78825
371.91659
397.66531
422.01512
444.95537
466.48295
486.60132
505.31952
522.65108
538.61312
553.22594
566.5138
578.50209
589.20693
598.62994
606.79541
613.79103
619.63393
623.83465
625.66247
-2.6997879
-4.8635741
-7.1829499
-9.4756453
-11.79134
-14.157951
-16.597898
-19.129171
-21.7671
-24.525508
-27.417402
-30.455361
-33.651734
-37.018731
-40.568447
-44.312847
-48.263728
-52.432675
-56.830994
-61.469658
-66.35924
-71.509855
-76.931099
-82.631995
-88.620949
-94.905704
-101.49331
-108.3901
-115.60166
-123.13285
-130.98777
-139.16978
-147.68153
-156.52492
-165.70117
-175.21078
-185.05355
-195.22857
-205.73419
-216.56793
-227.72643
-239.20531
-250.99903
-263.10064
-275.50157
-288.19128
-301.1569
-314.38282
-327.85018
-341.53635
-355.41436
-369.45227
-383.61251
-397.85127
-412.11783
-426.35393
-440.49325
-454.4609
-468.17305
-481.53672
-494.4497
-506.8007
-518.46972
-529.32869
-539.24239
-548.06966
-555.66493
-561.88001
-566.56631
-569.5771
-570.77011
-570.01089
-567.17622
-562.15596
-554.85542
-545.19938
-533.13433
-518.63067
-501.68448
-482.31874
-460.58393
-436.558
-410.3456
-382.07657
-351.9038
-320.00063
-286.55775
-251.77966
-215.88087
-179.08203
-141.60609
-103.67467
-65.504685
-27.305296
10.724653
48.398787
85.544844
122.00585
157.64085
192.32514
225.9503
258.4237
289.66789
319.61972
348.22937
375.45919
401.28251
425.68235
448.65031
470.18535
490.29273
508.98288
526.27027
542.17248
556.70969
569.90449
581.77812
592.34261
601.60226
609.5823
616.33115
621.79799
625.56034
627.14602
-2.623587
-4.7227089
-7.0021004
-9.2670741
-11.558291
-13.899323
-16.311025
-18.811172
-21.415418
-24.138083
-26.992674
-29.992232
-33.149522
-36.477132
-39.9875
-43.692916
-47.605485
-51.737084
-56.0993
-60.70337
-65.560115
-70.679877
-76.072456
-81.747056
-87.712229
-93.975839
-100.54502
-107.42617
-114.6249
-122.14606
-129.99374
-138.17127
-146.68125
-155.52555
-164.70536
-174.22121
-184.07294
-194.25977
-204.78023
-215.63214
-226.81253
-238.31755
-250.14231
-262.28069
-274.72505
-287.46599
-300.49191
-313.7886
-327.33874
-341.12137
-355.11122
-369.27809
-383.58618
-397.99332
-412.45034
-426.90033
-441.27801
-455.50921
-469.51036
-483.18825
-496.43982
-509.15229
-521.20346
-532.46228
-542.78975
-552.04014
-560.06255
-566.70271
-571.80533
-575.21633
-576.78574
-576.37139
-573.84249
-569.08097
-561.98504
-552.47305
-540.48598
-525.98992
-508.97801
-489.47181
-467.52207
-443.20868
-416.63989
-387.95073
-357.3008
-324.87135
-290.86192
-255.4865
-218.96946
-181.54133
-143.43467
-104.88019
-66.103115
-27.319967
11.26413
49.457673
87.084454
123.98471
160.01578
195.05232
228.9861
261.72552
293.19478
323.33294
352.09271
379.43927
405.34888
429.80757
452.80986
474.35746
494.45809
513.12424
530.37196
546.21988
560.68842
573.7989
585.56947
596.00977
605.12493
612.93492
619.45988
624.62732
628.08928
629.52386
-2.5673433
-4.6016585
-6.8315042
-9.0565001
-11.311592
-13.616836
-15.991398
-18.452475
-21.015722
-23.695711
-26.506305
-29.460929
-32.572725
-35.854647
-39.319491
-42.979892
-46.848289
-50.936882
-55.257571
-59.821886
-64.640928
-69.72529
-75.085001
-80.729458
-86.667377
-92.906747
-99.454795
-106.31796
-113.50188
-121.01139
-128.85053
-137.02258
-145.53008
-154.37483
-163.55798
-173.08005
-182.94093
-193.13995
-203.67583
-214.54671
-225.75007
-237.28263
-249.14025
-261.31772
-273.80851
-286.6045
-299.69556
-313.06911
-326.70963
-340.59808
-354.7112
-369.02086
-383.4933
-398.08837
-412.75872
-427.44907
-442.09547
-456.62464
-470.95344
-484.98847
-498.62583
-511.75111
-524.23963
-535.957
-546.75995
-556.49751
-565.01264
-572.14406
-577.72869
-581.60393
-583.61085
-583.59826
-581.42624
-576.96754
-570.11195
-560.77011
-548.87643
-534.39177
-517.30569
-497.63801
-475.43966
-450.79276
-423.80977
-394.63187
-363.42652
-330.38428
-295.71517
-259.64442
-222.408
-184.24811
-145.40866
-106.131
-66.650093
-27.191068
12.033651
50.826629
89.00712
126.41219
162.89731
198.33642
232.62166
265.66267
297.38564
327.73221
356.6581
384.13175
410.13285
434.65093
457.6839
479.23671
499.32003
517.94896
535.14177
550.9188
565.30153
578.31119
589.96504
600.27272
609.24036
616.88282
623.20419
628.13236
631.38007
632.71338
-2.5125896
-4.4805658
-6.6545161
-8.8309838
-11.041263
-13.302733
-15.633018
-18.048602
-20.564937
-23.196681
-25.957924
-28.862391
-31.923555
-35.154718
-38.569027
-42.179473
-45.998848
-50.039702
-54.314274
-58.834423
-63.611556
-68.656553
-73.979699
-79.590616
-85.498206
-91.710604
-98.235141
-105.07832
-112.2458
-119.7424
-127.57213
-135.73819
-144.24304
-153.08843
-162.27544
-171.80456
-181.67573
-191.8884
-202.44149
-213.3335
-224.56236
-236.12547
-248.01949
-260.24025
-272.78248
-285.63948
-298.80278
-312.26169
-326.00273
-340.00906
-354.25974
-368.72903
-383.38557
-398.19153
-413.10173
-428.06282
-443.01244
-457.87846
-472.5783
-487.01849
-501.09424
-514.68942
-527.67662
-539.91773
-551.26463
-561.56048
-570.64122
-578.33755
-584.47748
-588.88857
-591.40156
-591.85479
-590.09759
-585.99214
-579.41845
-570.27813
-558.49782
-544.0322
-526.86656
-507.01856
-484.53927
-459.51332
-432.05805
-402.32174
-370.48099
-336.73725
-301.31272
-264.44574
-226.38584
-187.38878
-147.71159
-107.60798
-67.324128
-27.095015
12.858612
52.332616
91.14119
129.11794
166.11637
202.00983
236.69108
270.07137
302.0794
332.65991
361.77222
389.38866
415.493
440.0788
463.14796
484.70918
504.77655
523.36823
540.50505
556.20944
570.50428
583.41136
594.94812
605.12516
613.94964
621.43329
627.5738
632.30907
635.39756
636.6587
-2.4602922
-4.3594335
-6.4714497
-8.5913477
-10.748209
-12.957474
-15.235483
-17.598017
-20.060245
-22.636809
-25.341952
-28.189642
-31.193658
-34.36764
-37.725094
-41.279384
-45.043682
-49.030915
-53.253694
-57.724238
-62.454296
-67.455063
-72.737106
-78.310293
-84.183729
-90.365707
-96.863668
-103.68417
-110.8329
-118.31464
-126.13332
-134.29208
-142.79325
-151.63848
-160.82877
-170.36456
-180.2458
-190.47203
-201.0424
-211.95574
-223.21051
-234.80479
-246.73616
-259.00158
-271.59715
-284.5178
-297.75694
-311.30598
-325.15378
-339.28599
-353.68435
-368.32587
-383.18196
-398.2175
-413.38988
-428.64804
-443.93155
-459.16971
-474.28076
-489.17127
-503.73565
-517.85595
-531.40187
-544.23118
-556.19047
-567.11627
-576.83669
-585.17339
-591.94423
-596.96564
-600.05649
-601.04295
-599.76203
-596.06377
-589.81666
-580.91181
-569.26674
-554.82888
-537.57842
-517.53038
-494.73589
-469.28237
-441.29273
-410.92348
-378.36179
-343.8217
-307.53953
-269.76883
-230.77483
-190.82895
-150.2034
-109.16607
-67.975962
-26.879302
13.893744
54.131518
93.642604
132.25685
169.82573
206.22213
241.33972
275.09182
307.41013
338.24311
367.55436
395.32077
421.53087
446.18299
469.28369
490.84609
510.88843
529.43253
546.50253
562.1236
576.32072
589.11715
600.5316
610.57633
619.25978
626.59263
632.57195
637.14809
640.11297
641.31967
-2.4093731
-4.237363
-6.2827715
-8.3398981
-10.436533
-12.586732
-14.805809
-17.108909
-19.510889
-22.026325
-24.669553
-27.454748
-30.395971
-33.507192
-36.802286
-40.295006
-43.998929
-47.927392
-52.093416
-56.509615
-61.188118
-66.140469
-71.377555
-76.909517
-82.745692
-88.894547
-95.363645
-102.15962
-109.28814
-116.75398
-124.56099
-132.71217
-141.20974
-150.0552
-159.24942
-168.79277
-178.68519
-188.92627
-199.51539
-210.4517
-221.7342
-233.3617
-245.33278
-257.64562
-270.29782
-283.28611
-296.60597
-310.25117
-324.21318
-338.48049
-353.03786
-367.86543
-382.93779
-398.22294
-413.68125
-429.26438
-444.91421
-460.56179
-476.12646
-491.51503
-506.62119
-521.32514
-535.49351
-548.97964
-561.62427
-573.25666
-583.69617
-592.75432
-600.23758
-605.94979
-609.69633
-611.28937
-610.55188
-607.32005
-601.44907
-592.81784
-581.33331
-566.93437
-549.59517
-529.32753
-506.18246
-480.25049
-451.66087
-420.57948
-387.20563
-351.76787
-314.51881
-275.72948
-235.68317
-194.66931
-152.97745
-110.89163
-68.685476
-26.617847
15.070534
56.159674
96.452041
135.77349
173.97349
210.9247
246.52205
280.6815
313.33833
344.44545
373.97137
401.89832
428.22026
452.94099
476.07235
497.63252
517.64442
536.13417
553.12972
568.65956
582.75141
595.43082
606.71866
616.6295
625.17374
632.36295
638.19682
642.63788
645.50245
646.6659
-2.3539865
-4.1063216
-6.0796933
-8.0675668
-10.096906
-12.180768
-14.333659
-16.57018
-18.904897
-21.352296
-23.926786
-26.64273
-29.51446
-32.556284
-35.782457
-39.207149
-42.844371
-46.707907
-50.811224
-55.167375
-59.788904
-64.687745
-69.875134
-75.361517
-81.156482
-87.268688
-93.705827
-100.47459
-107.58068
-115.02877
-122.82263
-130.9651
-139.45822
-148.30332
-157.5011
-167.05178
-176.95525
-187.21115
-197.819
-208.77831
-220.0886
-231.74948
-243.76053
-256.12129
-268.83098
-281.8883
-295.29103
-309.03556
-323.11627
-337.52484
-352.24944
-367.27378
-382.57606
-398.1279
-413.89315
-429.82663
-445.87297
-461.96542
-478.02475
-493.95828
-509.65914
-525.00569
-539.86138
-554.07483
-567.48046
-579.89952
-591.14172
-601.00733
-609.29008
-615.77968
-620.26626
-622.54598
-622.42583
-619.72616
-614.28687
-605.97275
-594.67847
-580.33294
-562.90317
-542.39711
-518.86545
-492.40213
-463.14353
-431.26623
-396.98347
-360.54042
-322.20841
-282.27854
-241.05483
-198.84728
-155.9652
-112.71105
-69.374877
-26.229783
16.471781
58.500664
99.652731
139.74968
178.63907
216.19363
252.31014
286.90778
319.92622
351.32357
381.07416
409.16635
435.6004
460.38635
483.54212
505.09167
525.06326
543.48794
560.39809
575.8261
589.80306
602.35747
613.513
623.28708
631.69263
638.74354
644.44362
648.76621
651.54577
652.67313
-2.3006276
-3.9742689
-5.8711512
-7.7843631
-9.7404634
-11.751789
-13.832218
-15.995892
-18.257115
-20.630288
-23.129879
-25.770431
-28.566552
-31.532894
-34.684117
-38.034831
-41.599521
-45.392457
-49.427597
-53.718477
-58.278102
-63.11884
-68.252317
-73.689318
-79.439708
-85.512361
-91.915109
-98.654715
-105.73686
-113.16617
-120.94625
-129.07976
-137.56853
-146.41363
-155.61555
-165.17432
-175.08969
-185.36129
-195.98878
-206.97196
-218.31089
-230.00596
-242.05783
-254.46746
-267.23583
-280.36377
-293.85158
-307.69851
-321.90219
-336.45786
-351.3575
-366.58884
-382.13422
-397.96939
-414.06216
-430.3711
-446.84411
-463.41709
-480.01266
-496.539
-512.88887
-528.93895
-544.54936
-559.56378
-573.80981
-587.10004
-599.23357
-609.99821
-619.17354
-626.53352
-631.85109
-634.90421
-635.48181
-633.38622
-628.43979
-620.49111
-609.42058
-595.1455
-577.62445
-556.86067
-532.90424
-505.85281
-475.85077
-443.08687
-407.79024
-370.22507
-330.68412
-289.48149
-246.94486
-203.40773
-159.20188
-114.65053
-70.06227
-25.72606
18.092673
61.154792
103.24912
144.19308
183.83252
222.0407
258.71684
293.78411
327.18741
358.89096
388.87582
417.13741
443.68314
468.53015
491.70322
513.23279
533.15321
551.50111
568.3139
583.62846
597.47989
609.90026
620.91664
630.54976
638.81568
645.73146
651.30563
655.52078
658.22523
659.32106
-2.2403617
-3.8298704
-5.6449335
-7.4776389
-9.3542163
-11.286439
-13.287681
-15.371706
-17.552591
-19.844666
-22.262467
-24.820723
-27.534327
-30.418297
-33.487725
-36.757698
-40.243216
-43.959083
-47.919794
-52.13942
-56.631477
-61.408811
-66.483481
-71.866646
-77.568482
-83.598092
-89.963463
-96.671421
-103.72763
-111.13661
-118.9018
-127.02563
-135.50964
-144.3546
-153.56068
-163.12767
-173.05511
-183.34254
-193.98969
-204.99663
-216.36392
-228.09273
-240.18485
-252.64272
-265.4692
-278.66743
-292.24044
-306.19063
-320.51922
-335.22539
-350.30541
-365.75152
-381.55074
-397.68352
-414.12229
-430.82994
-447.75825
-464.84634
-482.01918
-499.18622
-516.24021
-533.05623
-549.49116
-565.38347
-580.55353
-594.80455
-607.9241
-619.68628
-629.85499
-638.18669
-644.43507
-648.3575
-649.72239
-648.31161
-643.92745
-636.3999
-625.59285
-611.41006
-593.80017
-572.76072
-548.34081
-520.64206
-489.81787
-456.07075
-419.64796
-380.83541
-339.95042
-297.33336
-253.33895
-208.3274
-162.65599
-116.67136
-70.702876
-25.057136
19.986179
64.177127
107.2971
149.15928
189.6081
228.51797
265.7913
301.3562
335.16381
367.1855
397.41012
425.84114
452.49414
477.39427
500.574
522.07106
541.9266
560.18346
576.8847
592.07229
605.78586
618.0616
628.93045
638.41686
646.54047
653.32205
658.77485
662.88936
665.52481
666.59193
-2.1820526
-3.6838768
-5.412613
-7.1596724
-8.9511701
-10.798436
-12.714431
-14.7126
-16.806829
-19.011394
-21.340911
-23.810311
-26.434788
-29.229757
-32.210772
-35.393444
-38.793332
-42.425828
-46.306023
-50.448575
-54.867572
-59.57639
-64.58757
-69.912689
-75.562264
-81.545657
-87.871019
-94.545243
-101.57396
-108.96157
-116.7113
-124.82528
-133.30469
-142.14994
-151.36082
-160.93673
-170.87694
-181.18082
-191.84806
-202.87894
-214.27448
-226.03661
-238.16828
-250.67344
-263.55697
-276.82445
-290.48186
-304.53507
-318.98921
-333.84782
-349.11194
-364.77888
-380.84093
-397.28389
-414.08548
-431.2136
-448.62459
-466.26145
-484.05213
-501.90785
-519.72173
-537.36756
-554.69899
-571.54915
-587.73081
-603.03713
-617.24314
-630.10795
-641.37817
-650.79085
-658.07825
-662.97455
-665.22488
-664.58787
-660.84307
-653.79903
-643.30062
-629.23579
-611.54146
-590.20829
-565.28389
-536.8741
-505.14236
-470.30679
-432.63525
-392.43853
-350.06197
-305.876
-260.26615
-213.62301
-166.33273
-118.76835
-71.282439
-24.201122
22.180321
67.600348
111.83262
154.68616
196.00452
235.66394
273.57104
309.65991
343.88909
376.23833
406.70539
435.30298
462.05588
486.99824
510.17114
531.62045
551.39482
569.54402
586.11737
601.16247
614.72403
626.84284
637.55413
646.88639
654.86317
661.50921
666.8423
670.8597
673.42954
674.46954
-2.1166872
-3.525159
-5.1623585
-6.8182856
-8.5188825
-10.275074
-12.099464
-14.005219
-16.006066
-18.11625
-20.350487
-22.72393
-25.252106
-27.950859
-30.836248
-33.924457
-37.231662
-40.773901
-44.566925
-48.626046
-52.965979
-57.600694
-62.543264
-67.805732
-73.398996
-79.3327
-85.615173
-92.253376
-99.252896
-106.61797
-114.35156
-122.45544
-130.93038
-139.7763
-148.9925
-158.57792
-168.53142
-178.85208
-189.53948
-200.59399
-212.01704
-223.81128
-235.9808
-248.53113
-261.46924
-274.80334
-288.54258
-302.69656
-317.27471
-332.28539
-347.73492
-363.62627
-379.95767
-396.72101
-413.90001
-431.46839
-449.38784
-467.60602
-486.05453
-504.64704
-523.27754
-541.81887
-560.12164
-578.01358
-595.29947
-611.76178
-627.16206
-641.24303
-653.73233
-664.34553
-672.79109
-678.77737
-682.02273
-682.25955
-679.2416
-672.75287
-662.61621
-648.70114
-630.93078
-609.28744
-583.81658
-554.62851
-521.89781
-485.86027
-446.80724
-405.07789
-361.04962
-315.12719
-267.73129
-219.28705
-170.21326
-120.91264
-71.76363
-23.113932
24.724214
71.476912
116.90988
160.82831
203.07546
243.53042
282.10511
318.74096
353.40525
386.08741
416.79549
445.55266
472.39408
497.36394
520.51294
541.89589
561.56977
579.59191
596.01851
610.90336
624.29671
636.24438
646.78622
655.95508
663.77862
670.28565
675.49821
679.41943
681.92501
682.93858
-2.0526491
-3.3638621
-4.9049902
-6.4647879
-8.0691391
-9.7285972
-11.455438
-13.26258
-15.16361
-17.172766
-19.304884
-21.575367
-24.000108
-26.595419
-29.37792
-32.364422
-35.571784
-39.016757
-42.715824
-46.68502
-50.939766
-55.494685
-60.363451
-65.558623
-71.091524
-76.972112
-83.208914
-89.808958
-96.777768
-104.11939
-111.83647
-119.93036
-128.40131
-137.24866
-146.47109
-156.06695
-166.03456
-176.37258
-187.08033
-198.15817
-209.60783
-221.43263
-233.63777
-246.23038
-259.21961
-272.61641
-286.43334
-300.68405
-315.38263
-330.54274
-346.17653
-362.29328
-378.89788
-395.98907
-413.55748
-431.58351
-450.03509
-468.86541
-488.0106
-507.38751
-526.89165
-546.3954
-565.74659
-584.76757
-603.25489
-620.9797
-637.68904
-653.10794
-666.94317
-678.88661
-688.62043
-695.82429
-700.18592
-701.40784
-699.21488
-693.36277
-683.64889
-669.92131
-652.08683
-630.11768
-604.05629
-574.01758
-540.18857
-502.82497
-462.2449
-418.81998
-372.96428
-325.12185
-275.75345
-225.3235
-174.28769
-123.08207
-72.11391
-21.754621
27.665183
75.85856
122.58324
167.641
210.87575
252.17056
291.44413
328.64668
363.75578
396.77214
427.71553
456.62099
483.53531
508.5139
531.61806
552.91249
572.46325
590.33594
606.59422
621.29859
634.50528
646.26553
656.62411
665.61842
673.28041
679.64293
684.73198
688.55587
690.99695
691.98408
-1.9825225
-3.1909784
-4.6310599
-6.0895497
-7.5921803
-9.1491127
-10.772301
-12.474428
-14.26896
-16.170143
-18.192961
-20.353099
-22.666856
-25.151065
-27.822962
-30.700051
-33.799947
-37.140195
-40.738085
-44.61046
-48.773519
-53.242622
-58.032105
-63.155107
-68.623423
-74.447362
-80.635666
-87.195433
-94.132108
-101.44951
-109.14989
-117.23412
-125.70181
-134.5516
-143.78143
-153.38889
-163.3716
-173.72762
-184.45588
-195.55658
-207.03161
-218.88488
-231.12263
-243.75362
-256.7892
-270.24324
-284.1319
-298.47318
-313.28624
-328.59055
-344.40466
-360.74489
-377.62357
-395.04719
-413.01419
-431.51266
-450.51781
-469.98938
-489.869
-510.07762
-530.51305
-551.04783
-571.52742
-591.76893
-611.56046
-630.66131
-648.80306
-665.69157
-681.01084
-694.42676
-705.59233
-714.15508
-719.7683
-722.10083
-720.84432
-715.72217
-706.50238
-693.00799
-675.12652
-652.81796
-626.12063
-595.15416
-560.11931
-521.29434
-479.02787
-433.72865
-385.85279
-335.88926
-284.34463
-231.72797
-178.53672
-125.24432
-72.290083
-20.07144
31.061218
80.807311
128.91669
175.18845
219.46827
261.64472
301.6449
339.42964
374.9886
408.33549
439.50347
468.54094
495.50774
520.47172
543.50583
564.68562
584.08701
601.78457
617.85001
632.35101
645.35021
656.90457
667.06403
675.87073
683.36097
689.57158
694.53222
698.25587
700.63094
701.5911
-1.9129993
-3.0146152
-4.3492155
-5.7015794
-7.0973398
-8.546247
-10.059925
-11.650819
-13.332283
-15.118589
-17.024896
-19.067203
-21.262265
-23.62749
-26.180798
-28.940465
-31.924941
-35.152652
-38.641789
-42.410093
-46.474633
-50.851586
-55.556034
-60.601764
-66.001099
-71.764743
-77.901677
-84.419077
-91.322289
-98.614855
-106.2986
-114.37378
-122.83928
-131.69289
-140.93164
-150.55219
-160.55127
-170.92616
-181.67519
-192.79823
-204.29715
-216.17634
-228.44299
-241.10746
-254.18334
-267.68754
-281.64002
-296.06342
-310.98241
-326.42275
-342.41009
-358.9685
-376.11863
-393.87567
-412.24695
-431.22935
-450.80653
-470.94595
-491.59587
-512.68241
-534.10666
-555.74211
-577.43238
-598.98963
-620.19344
-640.79076
-660.49675
-678.9967
-695.94977
-710.99338
-723.74835
-733.82633
-740.84171
-744.42547
-744.23129
-739.94559
-731.30244
-718.09564
-700.1899
-677.53038
-650.14986
-618.17262
-581.81464
-541.37966
-497.25111
-449.88029
-399.77152
-347.46531
-293.5206
-238.49726
-182.93996
-127.36412
-72.24457
-18.007212
34.976394
86.391582
135.98068
183.54109
228.92176
272.01856
312.76899
351.14657
387.15511
420.8233
452.19952
481.34722
508.34076
533.26174
556.19594
577.23066
596.45253
613.94577
629.79068
644.06258
656.8309
668.15859
678.10098
686.70504
694.01146
700.06099
704.88664
708.50566
710.81217
711.74435
-1.8387733
-2.8284372
-4.0529427
-5.2943518
-6.5781011
-7.9134747
-9.3117381
-10.78509
-12.346773
-14.0111
-15.793429
-17.710118
-19.778428
-22.016409
-24.44274
-27.076554
-29.93723
-33.044173
-36.416576
-40.073179
-44.032021
-48.310193
-52.92361
-57.886784
-63.212632
-68.9123
-74.995039
-81.468106
-88.336735
-95.604151
-103.27167
-111.33883
-119.80367
-128.66296
-137.91264
-147.54825
-157.5654
-167.96036
-178.73063
-189.87551
-201.3967
-213.29886
-225.59004
-238.2821
-251.39092
-264.93651
-278.94284
-293.4375
-308.45108
-324.0162
-340.16627
-356.93394
-374.34911
-392.43675
-411.21423
-430.68849
-450.85294
-471.68408
-493.13817
-515.14774
-537.61831
-560.42526
-583.41117
-606.38363
-629.11378
-651.33583
-672.74763
-693.01242
-711.76243
-728.60387
-743.12215
-754.88912
-763.47535
-768.46874
-769.47988
-766.15285
-758.18249
-745.32845
-727.4284
-704.40949
-676.29711
-643.22001
-605.41093
-563.20244
-517.01775
-467.35699
-414.77995
-359.88631
-303.29498
-245.62375
-187.47072
-129.39838
-71.920955
-15.495343
39.484387
92.689226
143.85464
192.77769
239.31248
283.36438
324.88369
363.859
400.31066
434.28453
465.84629
495.07626
522.06492
546.90901
569.70831
590.56288
609.57088
626.82682
642.42014
656.43422
668.9456
680.02346
689.72865
698.11309
705.22184
711.09941
715.78195
719.29066
721.52515
722.428
-1.7647398
-2.638415
-3.7486668
-4.8745959
-6.0414477
-7.2579848
-8.5350756
-9.8846493
-11.319831
-12.854988
-14.505706
-16.288743
-18.221928
-20.324025
-22.61456
-25.113618
-27.841613
-30.81904
-34.066208
-37.602972
-41.448453
-45.620764
-50.136756
-55.011752
-60.259343
-65.891171
-71.916795
-78.343567
-85.176592
-92.418731
-100.07071
-108.13125
-116.59738
-125.46469
-134.72783
-144.38094
-154.4183
-164.83489
-175.62709
-186.79341
-198.3351
-210.25688
-222.5675
-235.28022
-248.41318
-261.98956
-276.0375
-290.58987
-305.68358
-321.35868
-337.65709
-354.62089
-372.29029
-390.70115
-409.88223
-429.8519
-450.6148
-472.15802
-494.44729
-517.42308
-540.99667
-565.04657
-589.41522
-613.9063
-638.28272
-662.26571
-685.53494
-707.73017
-728.45454
-747.2801
-763.75329
-777.40214
-787.74814
-794.32948
-796.70809
-794.47978
-787.29396
-774.8703
-757.01435
-733.63136
-704.737
-670.46403
-631.06362
-586.90096
-538.44477
-486.25141
-430.94456
-373.19206
-313.68158
-253.09702
-192.09702
-131.29683
-71.254255
-12.459847
44.668592
99.787732
152.62721
202.98557
250.7244
295.76126
338.06206
377.63328
414.51447
448.7712
480.48866
509.76606
536.71172
561.43901
584.06289
604.69722
623.45249
640.43414
655.74125
669.46566
681.69126
692.49368
701.93938
710.08525
716.98068
722.67384
727.20376
730.59534
732.75357
733.62541
-1.6874083
-2.4405061
-3.4323964
-4.438467
-5.4836733
-6.5761729
-7.7263826
-8.9459297
-10.247811