/*--------------------------------*- C++ -*----------------------------------*\
| =========                 |                                                 |
| \\      /  F ield         | foam-extend: Open Source CFD                    |
|  \\    /   O peration     | Version:     4.1                                |
|   \\  /    A nd           | Web:         http://www.foam-extend.org         |
|    \\/     M anipulation  |                                                 |
\*---------------------------------------------------------------------------*/
FoamFile
{
    version     2.0;
    format      ascii;
    class       surfaceScalarField;
    location    "0.3";
    object      phi;
}
// * * * * * * * * * * * * * * * * * * * * * * * * * * * * * * * * * * * * * //

dimensions      [0 3 -1 0 0 0 0];

internalField   nonuniform List<scalar> 
31929
(
-0.042674564
5.9227754e-05
-0.04274088
6.6315954e-05
-0.042808324
6.744414e-05
-0.042875916
6.7592238e-05
-0.042943272
6.7355939e-05
-0.04301026
6.6988494e-05
-0.043076845
6.658458e-05
-0.043143036
6.6191277e-05
-0.04320887
6.5833335e-05
-0.043274398
6.5528486e-05
-0.043339685
6.5287383e-05
-0.043404805
6.5119839e-05
-0.043469837
6.5031337e-05
-0.043534864
6.5027757e-05
-0.043599976
6.5111241e-05
-0.04366526
6.5284599e-05
-0.043730807
6.5547037e-05
-0.043796706
6.5898504e-05
-0.043863041
6.6335393e-05
-0.043929896
6.6854932e-05
-0.043997347
6.7450874e-05
-0.044065465
6.8117969e-05
-0.044134313
6.8847636e-05
-0.044203945
6.9632548e-05
-0.044274407
7.0462262e-05
-0.044345735
7.1327935e-05
-0.044417953
7.2217889e-05
-0.044491076
7.3122456e-05
-0.044565105
7.4029461e-05
-0.044640034
7.4929205e-05
-0.044715844
7.5809813e-05
-0.044792506
7.6661982e-05
-0.044869982
7.7476288e-05
-0.044948225
7.8243029e-05
-0.045027181
7.8955789e-05
-0.045106788
7.9606698e-05
-0.04518698
8.0191702e-05
-0.045267685
8.0705427e-05
-0.045348832
8.1146464e-05
-0.045430344
8.1512066e-05
-0.045512147
8.1803434e-05
-0.045594167
8.2020376e-05
-0.045676333
8.2165817e-05
-0.045758576
8.2242374e-05
-0.045840829
8.2253709e-05
-0.045923033
8.2203843e-05
-0.04600513
8.2096886e-05
-0.046087067
8.1936932e-05
-0.046168794
8.17274e-05
-0.046250265
8.1471061e-05
-0.046331435
8.116957e-05
-0.046412258
8.0823226e-05
-0.046492689
8.0430673e-05
-0.046572678
7.998888e-05
-0.04665217
7.9492638e-05
-0.046731105
7.8934808e-05
-0.046809411
7.8306145e-05
-0.046887007
7.7595397e-05
-0.046963796
7.6789422e-05
-0.04703967
7.5873605e-05
-0.047114502
7.4831861e-05
-0.047188149
7.3647374e-05
-0.047260452
7.2302942e-05
-0.047331233
7.0781581e-05
-0.047400301
6.9067143e-05
-0.047467446
6.7144954e-05
-0.047532448
6.5002642e-05
-0.047595079
6.2630531e-05
-0.047655101
6.0022559e-05
-0.047712278
5.7176736e-05
-0.047766374
5.4095669e-05
-0.047817161
5.0786972e-05
-0.047864424
4.7263651e-05
-0.047907968
4.3544006e-05
-0.04794762
3.9651778e-05
-0.047983236
3.5615752e-05
-0.048014705
3.1469449e-05
-0.048041956
2.7250723e-05
-0.048064957
2.3001132e-05
-0.048083722
1.8764835e-05
-0.048098308
1.4586568e-05
-0.048108821
1.0512314e-05
-0.048115409
6.5879631e-06
-0.048118263
2.8545481e-06
-0.048117594
-6.6894858e-07
-0.048113626
-3.9684901e-06
-0.048106638
-6.9875582e-06
-0.048096974
-9.6647478e-06
-0.048085003
-1.1970605e-05
-0.048071116
-1.3886977e-05
-0.048055713
-1.5403241e-05
-0.048039197
-1.6515265e-05
-0.048021972
-1.722497e-05
-0.048004433
-1.7539791e-05
-0.04798696
-1.7472128e-05
-0.047969922
-1.7038694e-05
-0.047953662
-1.6259821e-05
-0.047938503
-1.5158743e-05
-0.047924742
-1.3760829e-05
-0.047912649
-1.2092963e-05
-0.047902467
-1.018289e-05
-0.047894408
-8.0586488e-06
-0.04788866
-5.7478724e-06
-0.047885383
-3.2772928e-06
-0.047884707
-6.759106e-07
-0.047886721
2.0138624e-06
-0.04789149
4.7688984e-06
-0.047899076
7.5866861e-06
-0.047909529
1.0452843e-05
-0.04792288
1.3350706e-05
-0.047939144
1.626396e-05
-0.047958321
1.9177059e-05
-0.047980396
2.2074976e-05
-0.048005338
2.4942445e-05
-0.048033101
2.7762611e-05
-0.048063616
3.0515717e-05
-0.048096797
3.3180177e-05
-0.048132526
3.5729679e-05
-0.048170626
3.8100049e-05
-0.048210735
4.0108913e-05
-0.048252226
4.1490362e-05
-0.048294691
4.2465364e-05
-0.04833969
4.4998618e-05
4.7400376e-05
-0.049042926
8.5665883e-05
-0.049066571
8.9960795e-05
-0.049090105
9.0978056e-05
-0.049113383
9.0870294e-05
-0.049136276
9.0249423e-05
-0.049158709
8.9421236e-05
-0.049180655
8.8530418e-05
-0.04920212
8.7656744e-05
-0.049223133
8.6845827e-05
-0.049243735
8.6130625e-05
-0.04926398
8.5532561e-05
-0.049283931
8.5070443e-05
-0.049303655
8.475626e-05
-0.049323229
8.4601543e-05
-0.04934273
8.4612066e-05
-0.049362239
8.4793593e-05
-0.049381838
8.5146345e-05
-0.04940161
8.5670625e-05
-0.049421636
8.6361251e-05
-0.049441995
8.7213243e-05
-0.04946276
8.821625e-05
-0.049484002
8.9360388e-05
-0.049505785
9.0630642e-05
-0.049528166
9.2012913e-05
-0.049551192
9.3488364e-05
-0.049574904
9.5039694e-05
-0.049599331
9.6645391e-05
-0.049624495
9.8286255e-05
-0.049650405
9.9939497e-05
-0.049677061
0.00010158551
-0.049704453
0.00010320178
-0.049732561
0.0001047694
-0.049761354
0.00010626945
-0.049790794
0.00010768309
-0.049820834
0.00010899637
-0.049851422
0.0001101939
-0.049882496
0.00011126613
-0.049913993
0.0001122024
-0.049945845
0.00011299823
-0.049977981
0.00011364801
-0.05001033
0.00011415234
-0.05004282
0.00011451056
-0.050075381
0.00011472704
-0.050107945
0.00011480619
-0.050140446
0.00011475441
-0.050172821
0.00011457887
-0.050205011
0.00011428708
-0.05023696
0.00011388653
-0.050268617
0.00011338362
-0.050299929
0.00011278351
-0.050330849
0.00011208931
-0.050361327
0.00011130152
-0.050391314
0.00011041753
-0.050420756
0.00010943138
-0.050449597
0.00010833302
-0.05047777
0.00010710851
-0.050505204
0.00010573983
-0.050531814
0.00010420495
-0.050557502
0.0001024781
-0.050582159
0.00010053049
-0.050605658
9.8330456e-05
-0.050627855
9.5844746e-05
-0.050648591
9.3039276e-05
-0.05066769
8.98803e-05
-0.050684959
8.6335644e-05
-0.05070019
8.2375995e-05
-0.050713164
7.7976442e-05
-0.05072365
7.3117482e-05
-0.050731415
6.7786679e-05
-0.050736217
6.1979666e-05
-0.050737823
5.5701207e-05
-0.050736002
4.8966056e-05
-0.050730538
4.1799669e-05
-0.050721232
3.4238188e-05
-0.050707909
2.6328542e-05
-0.050690421
1.8128216e-05
-0.050668656
9.7041743e-06
-0.050642537
1.1312848e-06
-0.050612026
-7.5091171e-06
-0.050577133
-1.6128636e-05
-0.050537912
-2.4634807e-05
-0.050494464
-3.2934906e-05
-0.050446939
-4.0937838e-05
-0.050395527
-4.8557438e-05
-0.050340486
-5.5709097e-05
-0.050282144
-6.2310614e-05
-0.050220834
-6.8297532e-05
-0.050156881
-7.3617969e-05
-0.050090627
-7.8225144e-05
-0.050022429
-8.2084514e-05
-0.049952658
-8.5174277e-05
-0.049881689
-8.7484662e-05
-0.049809896
-8.9017628e-05
-0.04973765
-8.978585e-05
-0.04966531
-8.9811691e-05
-0.049593223
-8.9125978e-05
-0.049521716
-8.7766627e-05
-0.049451097
-8.5777424e-05
-0.049381652
-8.3206274e-05
-0.049313641
-8.0104228e-05
-0.0492473
-7.6524059e-05
-0.049182839
-7.2519126e-05
-0.049120445
-6.8142348e-05
-0.049060276
-6.3445886e-05
-0.049002471
-5.8480627e-05
-0.048947167
-5.329012e-05
-0.04889448
-4.7918048e-05
-0.048844484
-4.2409212e-05
-0.04879723
-3.6801893e-05
-0.048752748
-3.1131239e-05
-0.048711054
-2.5429872e-05
-0.048672148
-1.9728441e-05
-0.048636017
-1.4056238e-05
-0.048602632
-8.4425891e-06
-0.04857195
-2.9189399e-06
-0.048543915
2.4798329e-06
-0.04851845
7.7158562e-06
-0.04849546
1.2739013e-05
-0.048474793
1.7433773e-05
-0.048456226
2.1541176e-05
-0.048439575
2.4839908e-05
-0.048424769
2.765954e-05
-0.048410152
3.0381245e-05
2.433846e-05
-0.049744542
0.00010107861
-0.049756709
0.00010212825
-0.049767842
0.00010211089
-0.049778439
0.00010146743
-0.049788656
0.00010046597
-0.049798548
9.9313218e-05
-0.049808153
9.8135204e-05
-0.04981751
9.7014118e-05
-0.049826666
9.60019e-05
-0.049835674
9.5138031e-05
-0.04984459
9.4449046e-05
-0.049853478
9.3957934e-05
-0.049862401
9.3679395e-05
-0.049871426
9.3626867e-05
-0.049880621
9.3806686e-05
-0.049890051
9.4224462e-05
-0.049899784
9.4878976e-05
-0.049909882
9.5768445e-05
-0.049920405
9.6884363e-05
-0.04993141
9.821787e-05
-0.049942947
9.9753573e-05
-0.049955063
0.00010147614
-0.049967796
0.00010336406
-0.04998118
0.00010539655
-0.049995239
0.00010754718
-0.05000999
0.00010979113
-0.050025443
0.00011209871
-0.0500416
0.00011444287
-0.050058453
0.00011679255
-0.050075988
0.00011912055
-0.050094183
0.00012139656
-0.050113008
0.00012359484
-0.050132429
0.00012569
-0.050152403
0.00012765721
-0.050172884
0.00012947793
-0.050193823
0.00013113239
-0.050215165
0.00013260836
-0.050236856
0.00013389277
-0.050258838
0.00013498046
-0.050281055
0.00013586541
-0.050303452
0.00013654949
-0.050325975
0.00013703342
-0.050348572
0.00013732424
-0.050371195
0.00013742927
-0.050393799
0.00013735826
-0.050416342
0.00013712188
-0.050438786
0.00013673102
-0.050461096
0.00013619622
-0.050483239
0.00013552625
-0.050505183
0.00013472776
-0.050526898
0.00013380421
-0.050548351
0.00013275501
-0.050569508
0.00013157485
-0.05059033
0.00013025331
-0.050610771
0.00012877388
-0.050630777
0.00012711423
-0.050650283
0.00012524593
-0.050669213
0.00012313462
-0.050687475
0.00012074046
-0.050704964
0.00011801905
-0.050721555
0.00011492193
-0.050737109
0.00011139823
-0.050751465
0.00010739598
-0.050764449
0.00010286375
-0.050775866
9.7752556e-05
-0.050785507
9.2017731e-05
-0.050793152
8.5621198e-05
-0.050798568
7.853307e-05
-0.050801515
7.0734015e-05
-0.050801752
6.2216796e-05
-0.050799039
5.2987795e-05
-0.050793141
4.3068294e-05
-0.050783837
3.249578e-05
-0.050770923
2.1323933e-05
-0.050754217
9.622394e-06
-0.050733565
-2.523139e-06
-0.050708848
-1.501317e-05
-0.050679982
-2.7735112e-05
-0.050646925
-4.0565356e-05
-0.050609681
-5.3373152e-05
-0.050568293
-6.6022313e-05
-0.050522854
-7.8374437e-05
-0.050473499
-9.0292773e-05
-0.050420411
-0.00010164546
-0.050363813
-0.00011230674
-0.050303963
-0.00012216083
-0.050241152
-0.00013110816
-0.050175705
-0.00013906481
-0.050107969
-0.00014596182
-0.050038305
-0.00015174774
-0.04996709
-0.00015638963
-0.049894702
-0.00015987226
-0.049821522
-0.00016219788
-0.049747923
-0.00016338477
-0.049674269
-0.00016346566
-0.049600909
-0.00016248599
-0.049528174
-0.00016050178
-0.049456374
-0.00015757789
-0.049385795
-0.00015378529
-0.049316699
-0.0001491997
-0.049249324
-0.00014389936
-0.04918388
-0.0001379634
-0.049120552
-0.00013147034
-0.0490595
-0.0001244973
-0.049000863
-0.00011711797
-0.048944752
-0.00010940124
-0.048891256
-0.00010141318
-0.048840449
-9.3216515e-05
-0.048792383
-8.4868274e-05
-0.048747093
-7.6421058e-05
-0.0487046
-6.792331e-05
-0.048664908
-5.9420355e-05
-0.048628009
-5.0955293e-05
-0.04859388
-4.2570875e-05
-0.048562487
-3.4311833e-05
-0.048533781
-2.6226241e-05
-0.048507698
-1.8367185e-05
-0.04848415
-1.0808959e-05
-0.048463017
-3.6994687e-06
-0.048444197
2.7211773e-06
-0.048427714
8.3568713e-06
-0.048413265
1.3210262e-05
-0.048399353
1.647002e-05
1.2105035e-05
-0.049803929
0.00011331206
-0.049814261
0.00011246001
-0.049823607
0.00011145681
-0.049832351
0.00011021137
-0.049840679
0.00010879448
-0.049848689
0.00010732256
-0.049856443
0.00010588924
-0.049863997
0.00010456795
-0.049871405
0.00010341017
-0.049878725
0.0001024579
-0.049886016
0.0001017404
-0.049893341
0.00010128322
-0.049900765
0.00010110271
-0.049908351
0.00010121334
-0.049916166
0.00010162139
-0.049924273
0.00010233175
-0.049932736
0.00010334137
-0.049941613
0.00010464602
-0.049950962
0.00010623362
-0.049960836
0.00010809122
-0.04997128
0.00011019831
-0.049982338
0.00011253402
-0.049994045
0.00011507041
-0.050006428
0.00011778005
-0.05001951
0.0001206291
-0.050033304
0.00012358543
-0.050047817
0.00012661139
-0.050063047
0.00012967241
-0.050078984
0.00013272949
-0.050095611
0.00013574821
-0.050112906
0.00013869084
-0.050130836
0.00014152525
-0.050149366
0.00014421996
-0.050168453
0.00014674462
-0.050188052
0.00014907648
-0.050208111
0.00015119183
-0.050228579
0.00015307609
-0.0502494
0.00015471417
-0.05027052
0.00015610055
-0.050291884
0.00015722914
-0.050313438
0.00015810329
-0.05033513
0.00015872534
-0.050356911
0.00015910524
-0.050378735
0.00015925334
-0.05040056
0.00015918289
-0.050422346
0.00015890815
-0.050444058
0.00015844348
-0.050465665
0.0001578025
-0.050487135
0.00015699637
-0.05050844
0.00015603324
-0.050529553
0.00015491683
-0.050550443
0.00015364545
-0.050571079
0.00015221093
-0.050591424
0.00015059823
-0.050611435
0.0001487842
-0.050631058
0.00014673783
-0.050650232
0.00014441995
-0.050668881
0.00014178349
-0.050686915
0.00013877406
-0.050704227
0.00013533111
-0.050720693
0.00013138873
-0.050736173
0.00012687779
-0.050750505
0.00012172763
-0.050763509
0.00011586837
-0.05077499
0.00010923335
-0.050784734
0.00010176171
-0.050792514
9.3401371e-05
-0.050798092
8.4111258e-05
-0.050801223
7.386444e-05
-0.050801656
6.2650184e-05
-0.050799144
5.0475734e-05
-0.050793445
3.7368858e-05
-0.050784328
2.3379208e-05
-0.050771582
8.5780513e-06
-0.050755018
-6.9422216e-06
-0.050734473
-2.3068084e-05
-0.05070982
-3.9666083e-05
-0.050680969
-5.6585471e-05
-0.050647874
-7.366103e-05
-0.05061053
-9.0716884e-05
-0.050568982
-0.00010757012
-0.050523322
-0.00012403495
-0.050473687
-0.00013992744
-0.050420263
-0.00015506961
-0.050363277
-0.00016929296
-0.050302994
-0.00018244368
-0.050239715
-0.00019438706
-0.050173771
-0.00020500891
-0.050105516
-0.00021421689
-0.050035321
-0.00022194227
-0.04996357
-0.00022814108
-0.049890649
-0.00023279292
-0.049816946
-0.00023590091
-0.049742841
-0.00023748957
-0.049668704
-0.00023760288
-0.049594888
-0.00023630174
-0.049521729
-0.00023366123
-0.049449538
-0.00022976822
-0.049378606
-0.00022471767
-0.049309195
-0.00021861082
-0.049241542
-0.00021155222
-0.049175858
-0.0002036475
-0.049112327
-0.0001950014
-0.049051108
-0.00018571645
-0.048992335
-0.00017589038
-0.04893612
-0.00016561598
-0.048882553
-0.00015498108
-0.048831701
-0.00014406784
-0.048783618
-0.00013295182
-0.048738336
-0.0001217027
-0.048695875
-0.00011038437
-0.048656239
-9.9056317e-05
-0.048619419
-8.777478e-05
-0.048585396
-7.6594858e-05
-0.048554134
-6.5572836e-05
-0.048525593
-5.4767924e-05
-0.048499713
-4.4246504e-05
-0.048476419
-3.4103085e-05
-0.048455622
-2.4496617e-05
-0.048437281
-1.5619596e-05
-0.048421393
-7.5319857e-06
-0.048407536
-6.4610355e-07
-0.048395275
4.2084043e-06
3.9204578e-06
-0.049807418
0.00012455783
-0.049817493
0.00012253482
-0.049826719
0.00012068332
-0.049835335
0.00011882752
-0.049843498
0.00011695696
-0.049851308
0.00011513249
-0.049858839
0.00011342052
-0.049866155
0.00011188393
-0.049873316
0.00011057132
-0.049880384
0.0001095254
-0.04988742
0.00010877704
-0.049894491
0.00010835371
-0.049901661
0.00010827303
-0.049908998
0.00010855033
-0.049916568
0.00010919171
-0.049924438
0.00011020132
-0.049932671
0.0001115742
-0.049941328
0.00011330364
-0.049950469
0.00011537396
-0.049960145
0.00011776807
-0.049970407
0.0001204602
-0.049981297
0.00012342389
-0.049992851
0.00012662459
-0.050005099
0.00013002808
-0.050018063
0.00013359293
-0.050031757
0.00013727946
-0.050046188
0.00014104188
-0.050061353
0.00014483782
-0.050077244
0.00014862011
-0.050093842
0.00015234686
-0.050111124
0.00015597271
-0.050129058
0.00015945881
-0.050147605
0.00016276746
-0.050166723
0.00016586255
-0.050186364
0.00016871694
-0.050206475
0.00017130286
-0.050227002
0.0001736033
-0.050247889
0.00017560111
-0.050269079
0.00017729041
-0.050290515
0.00017866509
-0.050312142
0.00017973013
-0.050333906
0.00018048972
-0.050355758
0.0001809569
-0.05037765
0.0001811454
-0.050399539
0.00018107232
-0.050421387
0.00018075594
-0.050443158
0.00018021449
-0.050464821
0.00017946517
-0.050486346
0.00017852199
-0.050507708
0.00017739505
-0.05052888
0.00017608881
-0.050549835
0.0001746008
-0.050570545
0.00017292039
-0.050590975
0.00017102815
-0.050611085
0.00016889439
-0.050630827
0.00016647949
-0.05065014
0.00016373342
-0.050668953
0.00016059614
-0.050687177
0.00015699828
-0.050704708
0.00015286262
-0.050721425
0.00014810509
-0.050737184
0.00014263742
-0.050751826
0.00013636934
-0.050765169
0.00012921141
-0.050777014
0.00012107817
-0.050787144
0.00011189139
-0.050795326
0.00010158381
-0.050801317
9.0102019e-05
-0.050804863
7.7410524e-05
-0.050805707
6.3493971e-05
-0.050803591
4.8359811e-05
-0.050798264
3.2042218e-05
-0.050789487
1.4602705e-05
-0.050777039
-3.8708003e-06
-0.050760719
-2.3262229e-05
-0.050740358
-4.3428852e-05
-0.050715821
-6.4202586e-05
-0.050687013
-8.5393294e-05
-0.050653882
-0.00010679252
-0.050616421
-0.00012817768
-0.050574674
-0.00014931726
-0.050528733
-0.00016997611
-0.050478739
-0.00018992115
-0.050424882
-0.00020892686
-0.050367394
-0.00022678045
-0.05030655
-0.00024328772
-0.05024266
-0.00025827766
-0.050176063
-0.00027160537
-0.050107126
-0.0002831544
-0.05003623
-0.00029283842
-0.049963768
-0.00030060248
-0.04989014
-0.00030642148
-0.04981574
-0.00031030011
-0.04974096
-0.00031227012
-0.049666175
-0.00031238778
-0.049591746
-0.0003107307
-0.049518013
-0.00030739426
-0.049445292
-0.00030248864
-0.049373876
-0.00029613399
-0.049304029
-0.00028845823
-0.049235988
-0.00027959324
-0.049169963
-0.00026967211
-0.049106138
-0.00025882652
-0.049044669
-0.00024718516
-0.048985689
-0.00023487066
-0.048929305
-0.00022199963
-0.048875605
-0.00020868167
-0.048824654
-0.00019501877
-0.048776501
-0.00018110478
-0.048731177
-0.00016702605
-0.0486887
-0.00015286134
-0.048649073
-0.00013868353
-0.048612287
-0.00012456081
-0.048578323
-0.00011055885
-0.048547153
-9.6742972e-05
-0.04851874
-8.3180472e-05
-0.04849304
-6.994692e-05
-0.048469997
-5.7145931e-05
-0.048449568
-4.492572e-05
-0.048431754
-3.3434204e-05
-0.04841653
-2.2755851e-05
-0.048403604
-1.3572108e-05
-0.048393179
-6.2161851e-06
-2.1685781e-06
-0.049809308
0.00013529661
-0.049819237
0.00013246371
-0.049828439
0.00012988502
-0.049837047
0.00012743637
-0.049845182
0.00012509204
-0.049852937
0.00012288699
-0.049860387
0.00012087033
-0.0498676
0.0001190967
-0.04987464
0.00011761169
-0.049881573
0.00011645815
-0.049888464
0.00011566804
-0.04989538
0.0001152704
-0.049902391
0.00011528394
-0.049909566
0.00011572472
-0.049916973
0.00011659863
-0.04992468
0.00011790902
-0.049932755
0.00011964904
-0.049941261
0.00012180946
-0.049950258
0.0001243709
-0.049959802
0.00012731202
-0.049969943
0.00013060172
-0.049980727
0.00013420774
-0.049992191
0.00013808873
-0.050004367
0.00014220345
-0.050017276
0.00014650261
-0.050030936
0.00015093868
-0.050045351
0.00015545739
-0.050060522
0.00016000828
-0.050076437
0.00016453563
-0.05009308
0.00016898973
-0.050110424
0.00017331723
-0.050128438
0.00017747228
-0.050147081
0.00018141058
-0.050166309
0.00018509002
-0.05018607
0.00018847882
-0.050206313
0.00019154498
-0.050226978
0.00019426892
-0.050248008
0.00019663136
-0.050269344
0.0001986261
-0.050290926
0.00020024709
-0.050312697
0.00020150115
-0.050334602
0.00020239452
-0.050356589
0.00020294371
-0.050378609
0.00020316623
-0.050400621
0.00020308354
-0.050422583
0.00020271845
-0.050444462
0.00020209366
-0.050466228
0.00020123055
-0.050487852
0.00020014661
-0.050509312
0.00019885452
-0.050530583
0.00019736002
-0.050551643
0.00019566041
-0.050572465
0.00019374297
-0.050593021
0.00019158422
-0.050613275
0.00018914816
-0.050633182
0.00018638652
-0.050652687
0.00018323831
-0.050671721
0.00017963018
-0.0506902
0.00017547727
-0.050708022
0.00017068497
-0.050725067
0.00016515013
-0.050741194
0.0001587643
-0.050756241
0.00015141633
-0.050770026
0.00014299586
-0.050782345
0.00013339717
-0.050792976
0.00012252316
-0.050801682
0.00011028987
-0.050808211
9.6630113e-05
-0.050812299
8.1498517e-05
-0.050813678
6.4873741e-05
-0.050812081
4.676291e-05
-0.050807245
2.7205859e-05
-0.050798917
6.2750739e-06
-0.050786864
-1.5924343e-05
-0.050770874
-3.9252394e-05
-0.050750767
-6.3535822e-05
-0.050726398
-8.8570901e-05
-0.050697665
-0.00011412652
-0.050664509
-0.00013994892
-0.05062692
-0.00016576665
-0.05058494
-0.00019129722
-0.050538662
-0.00021625351
-0.050488233
-0.0002403508
-0.050433846
-0.00026331371
-0.050375744
-0.00028488286
-0.05031421
-0.00030482155
-0.050249566
-0.00032292108
-0.050182167
-0.00033900493
-0.050112389
-0.00035293176
-0.05004063
-0.00036459728
-0.049967297
-0.00037393577
-0.049892801
-0.00038091798
-0.04981755
-0.00038555108
-0.049741945
-0.00038787526
-0.049666372
-0.00038796052
-0.0495912
-0.00038590272
-0.049516775
-0.00038181917
-0.049443418
-0.00037584499
-0.049371425
-0.00036812707
-0.049301062
-0.00035882151
-0.049232566
-0.00034808886
-0.049166148
-0.00033609077
-0.049101987
-0.0003229869
-0.04904024
-0.00030893287
-0.048981033
-0.0002940769
-0.048924473
-0.00027855971
-0.048870642
-0.00026251298
-0.048819602
-0.0002460588
-0.048771398
-0.00022930927
-0.048726056
-0.00021236723
-0.048683592
-0.00019532593
-0.048644004
-0.00017827109
-0.048607283
-0.00016128203
-0.048573408
-0.00014443382
-0.048542352
-0.00012779924
-0.04851408
-0.00011145179
-0.048488555
-9.5472571e-05
-0.048465736
-7.9965071e-05
-0.048445604
-6.5057145e-05
-0.048428173
-5.0865417e-05
-0.048413428
-3.7501325e-05
-0.048401247
-2.5752844e-05
-0.048392079
-1.5384186e-05
-7.1573866e-06
-0.049813612
0.00014580143
-0.049823421
0.00014227243
-0.049832568
0.00013903216
-0.049841138
0.00013600656
-0.049849223
0.00013317647
-0.049856904
0.00013056847
-0.049864257
0.00012822307
-0.049871351
0.00012619006
-0.049878252
0.00012451318
-0.049885029
0.00012323562
-0.049891752
0.00012239037
-0.049898489
0.00012200802
-0.049905314
0.00012210829
-0.049912297
0.00012270799
-0.049919511
0.00012381279
-0.049927027
0.00012542526
-0.049934915
0.00012753664
-0.049943241
0.00013013511
-0.049952067
0.00013319755
-0.049961454
0.00013669825
-0.049971452
0.0001406006
-0.049982111
0.00014486632
-0.049993469
0.00014944703
-0.05000556
0.00015429416
-0.050018408
0.00015935019
-0.050032028
0.00016455942
-0.05004643
0.00016985869
-0.05006161
0.00017518898
-0.05007756
0.00018048562
-0.050094261
0.00018569063
-0.050111686
0.00019074224
-0.050129801
0.00019558716
-0.050148565
0.00020017416
-0.050167929
0.00020445471
-0.050187843
0.00020839216
-0.050208248
0.00021195002
-0.050229085
0.00021510597
-0.050250292
0.00021783856
-0.050271807
0.00022014126
-0.050293568
0.00022200823
-0.050315515
0.00022344829
-0.050337591
0.0002244701
-0.050359741
0.00022509404
-0.050381917
0.00022534191
-0.050404074
0.00022524012
-0.050426172
0.00022481667
-0.050448178
0.00022409948
-0.050470062
0.00022311486
-0.0504918
0.00022188453
-0.05051337
0.0002204245
-0.050534752
0.00021874253
-0.050555928
0.00021683629
-0.050576877
0.00021469155
-0.050597574
0.00021228117
-0.050617989
0.00020956304
-0.050638082
0.00020648036
-0.050657805
0.00020296098
-0.050677093
0.00019891787
-0.050695866
0.00019425008
-0.050714025
0.00018884474
-0.050731454
0.00018257854
-0.050748011
0.00017532152
-0.050763535
0.00016694015
-0.05077784
0.00015730151
-0.050790721
0.00014627783
-0.050801949
0.00013375127
-0.050811279
0.00011961933
-0.050818448
0.00010379927
-0.050823183
8.6234069e-05
-0.050825205
6.6895174e-05
-0.05082423
4.57882e-05
-0.050819982
2.2957586e-05
-0.050812193
-1.5139344e-06
-0.050800614
-2.7503235e-05
-0.05078502
-5.4845921e-05
-0.050765218
-8.333778e-05
-0.050741052
-0.00011273772
-0.050712406
-0.00014277164
-0.050679217
-0.0001731381
-0.05064147
-0.00020351405
-0.050599204
-0.00023356311
-0.050552514
-0.00026294307
-0.050501551
-0.0002913145
-0.050446515
-0.00031834923
-0.05038766
-0.00034373843
-0.050325281
-0.00036720038
-0.050259715
-0.00038848692
-0.050191331
-0.00040738853
-0.050120525
-0.00042373811
-0.050047709
-0.00043741312
-0.049973308
-0.00044833722
-0.049897748
-0.00045647779
-0.049821453
-0.00046184562
-0.049744838
-0.00046449081
-0.049668299
-0.00046449885
-0.049592216
-0.00046198578
-0.049516943
-0.00045709284
-0.049442805
-0.00044998205
-0.049370104
-0.00044082899
-0.049299105
-0.00042981968
-0.049230049
-0.00041714496
-0.049163144
-0.00040299649
-0.049098567
-0.00038756302
-0.049036472
-0.00037102815
-0.048976983
-0.0003535663
-0.0489202
-0.00033534269
-0.048866201
-0.00031651137
-0.048815046
-0.00029721461
-0.048766772
-0.00027758264
-0.048721405
-0.00025773438
-0.048678954
-0.00023777703
-0.048639417
-0.00021780841
-0.048602781
-0.00019791794
-0.048569026
-0.00017818877
-0.048538125
-0.00015869971
-0.048510048
-0.00013952873
-0.048484762
-0.00012075917
-0.048462238
-0.00010248902
-0.048442469
-8.4826167e-05
-0.048425466
-6.7868545e-05
-0.04841123
-5.1736646e-05
-0.048399743
-3.724023e-05
-0.048391464
-2.3662909e-05
-1.1501491e-05
-0.049819949
0.0001561116
-0.049829628
0.00015195164
-0.049838686
0.00014808931
-0.049847176
0.00014449727
-0.049855172
0.00014117251
-0.049862747
0.00013814327
-0.049869972
0.00013544783
-0.049876916
0.00013313452
-0.04988365
0.00013124677
-0.049890243
0.00012982875
-0.049896768
0.00012891482
-0.049903297
0.0001285372
-0.049909905
0.00012871674
-0.049916668
0.00012947106
-0.049923661
0.00013080568
-0.049930958
0.00013272241
-0.049938632
0.00013521057
-0.049946753
0.00013825572
-0.049955386
0.00014183093
-0.049964594
0.00014590597
-0.049974432
0.00015043852
-0.04998495
0.00015538408
-0.049996189
0.00016068692
-0.050008186
0.0001662908
-0.050020966
0.00017212964
-0.050034545
0.00017813907
-0.050048933
0.00018424661
-0.050064128
0.00019038423
-0.050080121
0.00019647778
-0.05009689
0.00020246052
-0.05011441
0.00020826176
-0.050132643
0.0002138203
-0.050151546
0.00021907752
-0.05017107
0.00022397812
-0.050191158
0.0002284802
-0.05021175
0.0002325425
-0.050232784
0.00023613985
-0.050254194
0.00023924849
-0.050275915
0.00024186162
-0.05029788
0.0002439737
-0.050320028
0.00024559586
-0.050342297
0.0002467395
-0.050364632
0.00024742941
-0.050386983
0.00024769224
-0.050409303
0.00024756006
-0.050431553
0.00024706686
-0.0504537
0.00024624661
-0.050475716
0.00024513143
-0.05049758
0.00024374821
-0.050519273
0.00024211716
-0.050540779
0.00024024889
-0.050562085
0.00023814224
-0.050583176
0.0002357821
-0.050604033
0.00023313812
-0.050624632
0.00023016241
-0.050644941
0.0002267897
-0.050664917
0.0002229365
-0.050684501
0.00021850168
-0.050703618
0.00021336746
-0.050722175
0.00020740168
-0.050740056
0.00020045963
-0.050757123
0.00019238826
-0.050773213
0.00018302988
-0.050788138
0.00017222701
-0.050801688
0.0001598277
-0.050813628
0.00014569117
-0.050823703
0.00012969414
-0.05083164
0.0001117362
-0.050837152
9.1746521e-05
-0.050839945
6.9687883e-05
-0.050839719
4.5562854e-05
-0.050836181
1.9419219e-05
-0.050829045
-8.6502847e-06
-0.050818043
-3.8504823e-05
-0.050802934
-6.9954617e-05
-0.050783509
-0.00010276336
-0.050759596
-0.00013665086
-0.05073107
-0.00017129769
-0.050697856
-0.0002063518
-0.050659935
-0.00024143534
-0.050617343
-0.00027615441
-0.050570178
-0.00031010803
-0.050518594
-0.00034289836
-0.050462803
-0.00037414085
-0.050403067
-0.00040347385
-0.0503397
-0.00043056778
-0.050273054
-0.0004551327
-0.050203518
-0.00047692447
-0.050131507
-0.00049574922
-0.050057454
-0.0005114658
-0.049981804
-0.00052398762
-0.049905002
-0.00053327953
-0.04982749
-0.00053935739
-0.049749698
-0.00054228308
-0.049672037
-0.00054215971
-0.049594897
-0.00053912583
-0.049518641
-0.00053334902
-0.049443603
-0.0005250206
-0.049370084
-0.00051434715
-0.049298357
-0.00050154676
-0.04922866
-0.00048684247
-0.049161199
-0.00047045761
-0.04909615
-0.00045261145
-0.049033662
-0.00043351669
-0.048973853
-0.00041337483
-0.04891682
-0.00039237613
-0.048862634
-0.00037069732
-0.048811347
-0.00034850105
-0.048762995
-0.00032593548
-0.048717594
-0.00030313531
-0.04867515
-0.00028022112
-0.048635656
-0.00025730197
-0.048599098
-0.00023447633
-0.048565452
-0.00021183407
-0.048534694
-0.00018945847
-0.048506792
-0.00016742988
-0.048481721
-0.00014583046
-0.048459461
-0.00012474935
-0.04844001
-0.00010427677
-0.048423382
-8.4496757e-05
-0.048409598
-6.5520116e-05
-0.048398682
-4.8156221e-05
-0.048391028
-3.1317007e-05
-1.5439885e-05
-0.049828409
0.00016629397
-0.049837968
0.00016151027
-0.049846917
0.00015703801
-0.0498553
0.00015288007
-0.049863177
0.00014904946
-0.049870614
0.00014558069
-0.04987768
0.00014251403
-0.049884445
0.0001398991
-0.049890979
0.00013778057
-0.049897354
0.00013620454
-0.049903647
0.00013520722
-0.049909932
0.00013482278
-0.049916289
0.00013507344
-0.049922796
0.00013597774
-0.049929531
0.00013754119
-0.049936574
0.00013976489
-0.049943999
0.00014263629
-0.049951882
0.00014613828
-0.049960291
0.00015024001
-0.049969292
0.0001549066
-0.049978943
0.00016008982
-0.049989298
0.00016573864
-0.0500004
0.00017178967
-0.050012288
0.0001781786
-0.050024989
0.00018483031
-0.050038521
0.00019167131
-0.050052894
0.00019861927
-0.050068106
0.00020559654
-0.050084147
0.00021251896
-0.050100997
0.00021931042
-0.050118626
0.00022589074
-0.050136996
0.00023219026
-0.050156061
0.00023814245
-0.050175768
0.00024368477
-0.050196057
0.00024876968
-0.050216865
0.00025335087
-0.050238126
0.00025740005
-0.050259768
0.0002608911
-0.050281723
0.00026381693
-0.050303922
0.00026617251
-0.050326298
0.00026797152
-0.050348787
0.00026922858
-0.050371331
0.0002699734
-0.050393877
0.00027023824
-0.050416379
0.0002700616
-0.050438796
0.00026948441
-0.050461097
0.00026854765
-0.050483256
0.00026729034
-0.050505253
0.0002657456
-0.050527075
0.00026393889
-0.050548711
0.0002618847
-0.050570153
0.00025958391
-0.050591392
0.00025702129
-0.050612418
0.00025416393
-0.050633214
0.00025095851
-0.050653755
0.00024733138
-0.050674006
0.00024318758
-0.050693916
0.00023841135
-0.050713416
0.00023286727
-0.050732417
0.00022640277
-0.050750808
0.00021885019
-0.050768451
0.00021003162
-0.050785184
0.00019976311
-0.050800817
0.00018786029
-0.050815134
0.00017414453
-0.050827893
0.00015844951
-0.050838827
0.0001406285
-0.050847652
0.0001205609
-0.050854065
9.8159607e-05
-0.050857754
7.3376767e-05
-0.050858401
4.6210079e-05
-0.050855691
1.6709286e-05
-0.050849318
-1.5023436e-05
-0.050838993
-4.882944e-05
-0.050824454
-8.4493163e-05
-0.050805473
-0.00012174472
-0.050781861
-0.00016026273
-0.050753479
-0.00019967962
-0.050720242
-0.00023958938
-0.050682122
-0.00027955547
-0.050639154
-0.00031912224
-0.050591436
-0.00035782551
-0.05053913
-0.00039520456
-0.050482457
-0.00043081418
-0.050421695
-0.00046423598
-0.050357173
-0.00049508907