/*--------------------------------*- C++ -*----------------------------------*\
| =========                 |                                                 |
| \\      /  F ield         | foam-extend: Open Source CFD                    |
|  \\    /   O peration     | Version:     4.1                                |
|   \\  /    A nd           | Web:         http://www.foam-extend.org         |
|    \\/     M anipulation  |                                                 |
\*---------------------------------------------------------------------------*/
FoamFile
{
    version     2.0;
    format      ascii;
    class       volScalarField;
    location    "0.3";
    object      rAU;
}
// * * * * * * * * * * * * * * * * * * * * * * * * * * * * * * * * * * * * * //

dimensions      [0 0 1 0 0 0 0];

internalField   nonuniform List<scalar> 
16126
(
0.00013372346
0.00013353688
0.00013337777
0.0001332195
0.00013306138
0.00013290537
0.00013274997
0.00013259682
0.00013244427
0.00013229382
0.00013214378
0.00013199559
0.0001318475
0.00013170093
0.00013155411
0.00013140843
0.00013126209
0.00013111649
0.00013096982
0.00013082348
0.00013067568
0.00013052783
0.00013037815
0.00013022809
0.00013007591
0.00012992308
0.00012976792
0.00012961193
0.00012945348
0.00012929413
0.0001291323
0.00012896919
0.00012880487
0.00012863822
0.00012847091
0.0001283015
0.00012813169
0.00012796006
0.00012778836
0.00012761518
0.00012744229
0.00012726842
0.00012709478
0.00012692115
0.00012674777
0.00012657484
0.0001264025
0.00012623104
0.0001260605
0.00012589108
0.00012572293
0.0001255562
0.000125391
0.00012522757
0.00012506594
0.00012490631
0.00012474883
0.00012459367
0.00012444097
0.00012429105
0.00012414402
0.00012400014
0.0001238597
0.00012372297
0.00012359028
0.00012346191
0.00012333833
0.00012321979
0.00012310671
0.00012299945
0.00012289839
0.00012280384
0.00012271626
0.00012263583
0.00012256286
0.00012249755
0.00012244008
0.00012239048
0.00012234891
0.00012231516
0.00012228919
0.00012227076
0.00012225958
0.00012225529
0.00012225529
0.00012225752
0.00012226586
0.00012227974
0.00012229852
0.00012232146
0.00012234798
0.00012237719
0.0001224084
0.00012244086
0.00012247382
0.00012250658
0.00012253842
0.0001225688
0.00012259701
0.00012262252
0.00012264483
0.00012266349
0.00012267806
0.00012268829
0.00012269378
0.00012268974
0.00012267993
0.00012266476
0.00012264411
0.00012261803
0.00012258638
0.00012254921
0.00012250655
0.00012245847
0.00012240501
0.00012234644
0.00012228281
0.0001222144
0.00012214154
0.00012206494
0.00012198577
0.00012190494
0.00012181936
0.000121704
0.00012050984
0.00012042473
0.000120375
0.00012032835
0.00012028245
0.00012023852
0.00012019495
0.00012015318
0.00012011164
0.00012007176
0.00012003193
0.00011999354
0.00011995497
0.00011991758
0.00011987974
0.00011984278
0.00011980505
0.00011976791
0.00011972967
0.00011969169
0.00011965232
0.00011961291
0.00011957182
0.00011953043
0.00011948713
0.00011944332
0.00011939743
0.0001193509
0.00011930219
0.00011925277
0.00011920116
0.0001191485
0.00011909483
0.00011903909
0.00011898287
0.00011892475
0.00011886636
0.00011880632
0.00011874627
0.00011868486
0.00011862375
0.00011856169
0.00011849984
0.00011843794
0.00011837623
0.00011831486
0.00011825395
0.00011819376
0.00011813432
0.00011807582
0.00011801839
0.00011796216
0.00011790724
0.00011785387
0.00011780208
0.00011775207
0.00011770399
0.00011765802
0.00011761431
0.00011757318
0.00011753476
0.00011749933
0.00011746717
0.00011743858
0.00011741387
0.00011739335
0.00011737749
0.00011736654
0.00011736091
0.00011736096
0.00011736707
0.00011737953
0.00011739878
0.00011742499
0.00011745845
0.00011749934
0.00011754779
0.00011760073
0.00011764965
0.0001177061
0.00011777015
0.0001178417
0.00011792059
0.0001180066
0.00011809732
0.00011819078
0.00011829056
0.00011839622
0.00011850729
0.00011862317
0.00011874342
0.00011886729
0.00011899417
0.00011912342
0.00011925437
0.00011938636
0.00011951871
0.0001196509
0.00011978223
0.00011991217
0.00012004018
0.00012016579
0.0001202885
0.00012040804
0.00012052392
0.0001206314
0.00012073395
0.00012083184
0.00012092488
0.00012101307
0.00012109621
0.00012117429
0.00012124728
0.00012131518
0.00012137799
0.00012143109
0.0001214742
0.00012151288
0.00012154754
0.00012157893
0.00012160784
0.00012163417
0.00012165711
0.000121671
0.00011915377
0.00011909673
0.00011907116
0.00011904951
0.00011902893
0.00011901027
0.00011899172
0.0001189746
0.00011895725
0.00011894103
0.0001189243
0.00011890842
0.00011889174
0.00011887562
0.00011885841
0.00011884147
0.00011882315
0.00011880481
0.00011878483
0.00011876458
0.00011874245
0.00011871983
0.00011869515
0.00011866982
0.00011864231
0.00011861405
0.00011858355
0.00011855229
0.0001185188
0.00011848461
0.00011844827
0.00011841097
0.0001183728
0.00011833274
0.00011829239
0.00011825037
0.00011820832
0.00011816487
0.00011812166
0.00011807734
0.00011803353
0.000117989
0.00011794486
0.00011790083
0.00011785711
0.00011781381
0.00011777101
0.00011772894
0.00011768758
0.00011764707
0.0001176075
0.00011756898
0.00011753156
0.00011749546
0.0001174607
0.00011742742
0.00011739579
0.00011736596
0.00011733809
0.0001173125
0.00011728931
0.00011726883
0.00011725136
0.0001172372
0.00011722671
0.0001172202
0.00011721817
0.00011722089
0.00011722878
0.00011724224
0.00011726163
0.00011728727
0.00011731958
0.00011735872
0.00011740497
0.00011744521
0.00011748459
0.00011752782
0.00011756657
0.00011761252
0.0001176659
0.00011772681
0.00011779523
0.00011787112
0.00011795433
0.00011804464
0.00011814175
0.00011824528
0.00011835476
0.00011846965
0.0001185895
0.00011871359
0.0001188413
0.00011897197
0.00011910492
0.00011923945
0.00011937487
0.00011951061
0.00011964594
0.00011978027
0.00011991304
0.00012004371
0.00012017177
0.00012029687
0.00012041851
0.00012053637
0.00012065015
0.00012075958
0.00012086439
0.00012096451
0.00012105968
0.00012114982
0.00012123483
0.00012131466
0.00012138922
0.0001214538
0.00012150804
0.00012155738
0.00012160199
0.00012163699
0.00012166198
0.00012168417
0.00012170542
0.00012171478
0.0001190117
0.00011896409
0.00011894382
0.00011892673
0.00011891052
0.00011889616
0.00011888184
0.00011886881
0.0001188554
0.00011884293
0.00011882976
0.00011881721
0.00011880365
0.00011879041
0.00011877585
0.00011876132
0.00011874518
0.00011872879
0.00011871053
0.00011869178
0.00011867096
0.00011864945
0.00011862571
0.00011860116
0.00011857429
0.00011854656
0.00011851648
0.00011848557
0.00011845237
0.00011841843
0.00011838233
0.00011834528
0.00011830738
0.00011826763
0.00011822765
0.00011818608
0.00011814455
0.00011810171
0.00011805921
0.0001180157
0.00011797281
0.00011792931
0.00011788629
0.00011784349
0.00011780108
0.00011775919
0.00011771788
0.00011767735
0.00011763761
0.00011759876
0.00011756091
0.00011752413
0.0001174885
0.00011745422
0.00011742131
0.00011738993
0.00011736024
0.00011733241
0.00011730661
0.00011728319
0.00011726228
0.00011724423
0.00011722934
0.00011721796
0.00011721047
0.00011720723
0.00011720874
0.00011721531
0.00011722739
0.00011724538
0.00011726967
0.00011730058
0.00011733852
0.00011738367
0.00011741157
0.00011743067
0.0001174484
0.0001174728
0.00011750434
0.00011754317
0.0001175896
0.00011764379
0.00011770582
0.00011777571
0.00011785336
0.00011793863
0.00011803126
0.00011813089
0.00011823711
0.00011834939
0.00011846729
0.00011859007
0.00011871713
0.00011884778
0.00011898132
0.00011911702
0.00011925414
0.00011939209
0.00011953008
0.0001196675
0.00011980372
0.00011993818
0.00012007031
0.00012019973
0.00012032589
0.00012044844
0.00012056705
0.0001206814
0.00012079121
0.00012089637
0.0001209966
0.00012109178
0.0001211818
0.00012126658
0.000121346
0.00012142011
0.00012148877
0.00012155196
0.0001216095
0.00012165602
0.00012169081
0.00012172103
0.00012173955
0.00012173802
0.00011897984
0.00011893618
0.00011891794
0.00011890224
0.00011888717
0.00011887387
0.00011886056
0.00011884849
0.00011883598
0.00011882434
0.0001188119
0.0001188
0.00011878696
0.00011877414
0.00011875987
0.00011874549
0.00011872938
0.00011871288
0.00011869438
0.00011867525
0.00011865391
0.00011863177
0.00011860727
0.00011858186
0.00011855402
0.00011852522
0.00011849401
0.00011846189
0.00011842744
0.00011839221
0.0001183548
0.00011831643
0.00011827723
0.00011823621
0.00011819499
0.00011815224
0.0001181096
0.00011806575
0.00011802231
0.00011797798
0.00011793437
0.00011789026
0.00011784676
0.00011780358
0.00011776093
0.00011771891
0.00011767758
0.00011763716
0.00011759762
0.00011755908
0.00011752163
0.00011748536
0.00011745032
0.00011741672
0.00011738459
0.00011735408
0.00011732537
0.00011729863
0.00011727405
0.00011725198
0.00011723259
0.00011721623
0.00011720325
0.00011719403
0.00011718895
0.00011718841
0.00011719295
0.00011720291
0.00011721875
0.0001172409
0.00011726976
0.00011730566
0.00011734902
0.00011737683
0.00011737746
0.00011738166
0.00011739207
0.00011740911
0.00011743332
0.00011746493
0.00011750435
0.0001175518
0.00011760745
0.00011767138
0.00011774357
0.00011782392
0.00011791222
0.00011800817
0.00011811136
0.00011822128
0.0001183375
0.00011845929
0.00011858602
0.00011871697
0.00011885142
0.00011898861
0.00011912775
0.00011926821
0.00011940916
0.00011954994
0.00011968989
0.00011982837
0.0001199648
0.00012009874
0.00012022961
0.00012035703
0.00012048061
0.00012060003
0.00012071497
0.00012082529
0.00012093069
0.00012103104
0.00012112619
0.00012121604
0.00012130044
0.00012137943
0.0001214528
0.00012152048
0.00012158223
0.00012163776
0.00012168689
0.00012172883
0.00012175486
0.00012174938
0.00011895297
0.00011891169
0.00011889505
0.0001188805
0.00011886636
0.00011885389
0.00011884135
0.00011883
0.00011881815
0.00011880711
0.0001187952
0.00011878373
0.00011877104
0.00011875846
0.00011874431
0.00011872995
0.00011871371
0.00011869697
0.00011867809
0.00011865846
0.00011863648
0.00011861358
0.0001185882
0.00011856179
0.00011853285
0.00011850287
0.00011847037
0.00011843691
0.00011840106
0.00011836439
0.00011832552
0.00011828568
0.00011824501
0.00011820255
0.00011815994
0.00011811585
0.00011807195
0.00011802691
0.00011798239
0.00011793706
0.00011789259
0.00011784773
0.00011780361
0.00011775993
0.00011771691
0.00011767464
0.00011763319
0.00011759277
0.00011755333
0.00011751501
0.00011747787
0.00011744201
0.00011740747
0.00011737447
0.00011734301
0.00011731326
0.0001172854
0.00011725962
0.00011723611
0.00011721524
0.0001171972
0.00011718236
0.0001171711
0.00011716382
0.00011716094
0.00011716289
0.00011717025
0.00011718337
0.00011720276
0.00011722888
0.00011726213
0.00011730285
0.00011734213
0.00011733722
0.00011732843
0.0001173252
0.00011732807
0.00011733755
0.00011735426
0.00011737853
0.00011741083
0.00011745148
0.00011750072
0.00011755871
0.0001176255
0.00011770103
0.00011778515
0.00011787758
0.00011797795
0.00011808576
0.00011820057
0.00011832163
0.00011844831
0.00011857986
0.00011871551
0.00011885447
0.00011899591
0.00011913916
0.00011928331
0.00011942768
0.00011957154
0.00011971424
0.00011985511
0.0001199937
0.00012012939
0.00012026175
0.00012039036
0.00012051489
0.00012063497
0.00012075046
0.00012086102
0.0001209665
0.00012106675
0.00012116164
0.00012125102
0.00012133489
0.00012141304
0.00012148534
0.00012155158
0.00012161147
0.00012166476
0.00012171012
0.00012174734
0.00012174726
0.00011892272
0.00011888309
0.00011886785
0.00011885446
0.00011884132
0.00011882975
0.00011881803
0.00011880745
0.00011879633
0.00011878594
0.00011877461
0.00011876365
0.00011875137
0.00011873909
0.00011872513
0.00011871084
0.00011869455
0.00011867761
0.00011865841
0.00011863832
0.00011861575
0.00011859212
0.00011856588
0.0001185385
0.00011850846
0.00011847728
0.0001184435
0.00011840867
0.00011837139
0.00011833323
0.00011829285
0.00011825148
0.00011820929
0.00011816532
0.00011812123
0.00011807573
0.00011803047
0.00011798417
0.00011793848
0.00011789209
0.00011784667
0.000117801
0.00011775618
0.00011771195
0.00011766849
0.00011762592
0.0001175843
0.00011754383
0.00011750446
0.00011746631
0.00011742944
0.00011739395
0.00011735986
0.0001173274
0.00011729655
0.0001172675
0.00011724042
0.0001172155
0.00011719295
0.00011717316
0.00011715633
0.00011714286
0.00011713315
0.00011712764
0.00011712678
0.00011713103
0.00011714102
0.00011715712
0.00011717989
0.0001172098
0.0001172473
0.00011729275
0.00011731048
0.00011728945
0.00011727318
0.00011726228
0.00011725741
0.00011725914
0.0001172682
0.00011728498
0.00011731006
0.00011734385
0.00011738666
0.00011743874
0.0001175002
0.00011757103
0.00011765114
0.00011774027
0.00011783807
0.00011794404
0.00011805775
0.00011817843
0.00011830542
0.00011843793
0.00011857517
0.00011871628
0.00011886039
0.00011900677
0.00011915448
0.00011930275
0.00011945084
0.00011959802
0.0001197436
0.00011988707
0.00012002777
0.00012016524
0.00012029904
0.00012042879
0.00012055411
0.00012067484
0.00012079062
0.00012090127
0.00012100664
0.00012110657
0.0001212009
0.00012128962
0.0001213725
0.0001214494
0.00012152011
0.00012158439
0.00012164194
0.00012169117
0.0001217328
0.00012173898
0.000118889
0.00011885082
0.00011883692
0.00011882472
0.00011881266
0.00011880207
0.00011879128
0.00011878157
0.00011877126
0.00011876161
0.00011875096
0.00011874058
0.00011872878
0.00011871688
0.00011870319
0.00011868903
0.00011867274
0.00011865567
0.0001186362
0.00011861569
0.00011859256
0.00011856822
0.00011854115
0.00011851279
0.00011848165
0.00011844926
0.00011841417
0.00011837793
0.00011833917
0.00011829948
0.00011825753
0.00011821457
0.00011817078
0.00011812523
0.0001180796
0.0001180326
0.00011798592
0.00011793827
0.00011789134
0.00011784382
0.00011779739
0.00011775083
0.00011770526
0.00011766042
0.00011761649
0.00011757358
0.00011753175
0.00011749118
0.00011745184
0.00011741383
0.0001173772
0.00011734203
0.00011730835
0.00011727636
0.00011724605
0.00011721762
0.00011719121
0.00011716704
0.00011714532
0.00011712645
0.00011711066
0.00011709837
0.00011709001
0.00011708604
0.00011708698
0.0001170933
0.00011710567
0.00011712453
0.00011715046
0.00011718396
0.00011722553
0.00011727554
0.00011726467
0.00011723611
0.00011721207
0.00011719325
0.00011718037
0.00011717411
0.00011717528
0.00011718437
0.00011720207
0.00011722887
0.00011726518
0.00011731132
0.00011736746
0.00011743367
0.00011750988
0.00011759587
0.00011769132
0.00011779571
0.00011790861
0.00011802922
0.00011815685
0.00011829067
0.00011842984
0.00011857345
0.00011872058
0.00011887042
0.000119022
0.00011917448
0.00011932707
0.00011947898
0.00011962949
0.00011977803
0.00011992392
0.00012006666
0.00012020578
0.00012034087
0.00012047153
0.00012059758
0.00012071864
0.00012083454
0.00012094508
0.00012105012
0.00012114948
0.00012124313
0.00012133085
0.00012141249
0.00012148785
0.00012155673
0.0001216188
0.00012167235
0.00012171899
0.00012173148
0.00011885177
0.00011881489
0.00011880227
0.00011879128
0.00011878036
0.00011877084
0.00011876106
0.00011875231
0.00011874289
0.00011873408
0.00011872418
0.00011871447
0.00011870326
0.00011869182
0.00011867847
0.00011866453
0.00011864833
0.00011863119
0.0001186115
0.00011859063
0.00011856698
0.00011854197
0.00011851407
0.00011848475
0.00011845252
0.0001184189
0.00011838247
0.0001183448
0.00011830452
0.00011826325
0.00011821966
0.00011817504
0.00011812957
0.00011808237
0.0001180351
0.00011798653
0.00011793833
0.00011788926
0.000117841
0.00011779228
0.00011774476
0.00011769725
0.00011765088
0.00011760536
0.00011756091
0.00011751762
0.00011747554
0.00011743485
0.00011739552
0.00011735761
0.00011732119
0.00011728631
0.000117253
0.00011722144
0.00011719162
0.00011716372
0.0001171379
0.00011711438
0.00011709337
0.00011707528
0.00011706037
0.00011704907
0.00011704186
0.00011703923
0.00011704173
0.0001170499
0.00011706443
0.00011708581
0.00011711468
0.00011715158
0.00011719705
0.00011724836
0.0001172142
0.00011717783
0.00011714573
0.0001171187
0.00011709752
0.00011708299
0.00011707602
0.0001170772
0.00011708734
0.00011710701
0.00011713672
0.00011717688
0.00011722773
0.00011728939
0.00011736185
0.0001174449
0.00011753822
0.00011764133
0.00011775373
0.00011787464
0.00011800329
0.00011813882
0.00011828032
0.00011842685
0.00011857738
0.00011873109
0.0001188869
0.00011904394
0.00011920135
0.0001193583
0.00011951399
0.00011966785
0.00011981913
0.00011996731
0.00012011188
0.00012025242
0.0001203885
0.00012051993
0.00012064631
0.00012076746
0.00012088319
0.00012099332
0.0001210977
0.00012119628
0.00012128884
0.00012137525
0.00012145533
0.00012152891
0.00012159567
0.00012165384
0.00012170579
0.0001217245
0.00011881139
0.0001187758
0.00011876445
0.0001187547
0.00011874497
0.0001187366
0.00011872792
0.00011872022
0.00011871179
0.00011870391
0.00011869487
0.00011868593
0.00011867537
0.00011866449
0.00011865157
0.00011863793
0.00011862187
0.00011860474
0.00011858489
0.00011856369
0.00011853956
0.0001185139
0.0001184852
0.00011845491
0.00011842157
0.0001183867
0.0001183489
0.00011830975
0.00011826789
0.00011822497
0.00011817967
0.0001181333
0.00011808608
0.00011803712
0.00011798814
0.00011793789
0.00011788809
0.0001178375
0.00011778783
0.00011773781
0.00011768913
0.00011764059
0.00011759334
0.0001175471
0.00011750207
0.00011745835
0.00011741599
0.00011737515
0.00011733578
0.00011729796
0.00011726171
0.00011722708
0.00011719409
0.0001171629
0.00011713351
0.00011710606
0.00011708073
0.00011705773
0.00011703727
0.0001170198
0.00011700558
0.00011699507
0.00011698878
0.00011698724
0.00011699105
0.00011700079
0.00011701721
0.00011704086
0.00011707242
0.0001171125
0.00011716167
0.00011720684
0.0001171592
0.00011711471
0.00011707423
0.00011703863
0.00011700883
0.0001169857
0.00011697027
0.00011696328
0.0001169656
0.00011697795
0.00011700093
0.00011703503
0.00011708057
0.00011713773
0.00011720653
0.00011728681
0.00011737824
0.00011748033
0.00011759257
0.00011771412
0.00011784418
0.00011798182
0.00011812608
0.00011827592
0.00011843029
0.00011858825
0.00011874869
0.00011891065
0.00011907322
0.00011923551
0.00011939669
0.00011955611
0.00011971301
0.00011986682
0.00012001701
0.00012016314
0.00012030477
0.00012044167
0.00012057346
0.00012069994
0.0001208209
0.00012093619
0.00012104562
0.00012114918
0.00012124663
0.00012133787
0.00012142276
0.00012150113
0.00012157271
0.00012163571
0.00012169309
0.00012171789
0.00011876781
0.00011873348
0.00011872341
0.00011871494
0.00011870647
0.00011869932
0.00011869183
0.00011868527
0.00011867794
0.00011867109
0.000118663
0.00011865492
0.00011864513
0.0001186349
0.0001186225
0.00011860924
0.00011859341
0.00011857635
0.0001185564
0.00011853493
0.00011851035
0.00011848408
0.00011845458
0.00011842333
0.00011838887
0.00011835274
0.00011831353
0.00011827285
0.00011822936
0.00011818471
0.00011813762
0.00011808943
0.00011804036
0.00011798955
0.00011793874
0.00011788671
0.00011783521
0.000117783
0.00011773182
0.00011768042
0.0001176305
0.00011758087
0.00011753268
0.00011748566
0.00011744001
0.00011739583
0.00011735315
0.00011731213
0.00011727271
0.00011723495
0.00011719886
0.00011716446
0.00011713176
0.00011710091
0.00011707187
0.00011704481
0.00011701988
0.00011699728
0.00011697725
0.00011696023
0.0001169465
0.00011693657
0.00011693097
0.00011693027
0.00011693511
0.00011694615
0.00011696418
0.00011698983
0.00011702381
0.00011706683
0.00011711949
0.00011715596
0.00011710021
0.00011704725
0.00011699801
0.00011695348
0.00011691466
0.00011688256
0.00011685834
0.00011684285
0.00011683709
0.00011684189
0.00011685796
0.00011688589
0.00011692609
0.00011697878
0.00011704404
0.00011712172
0.00011721151
0.00011731287
0.0001174253
0.00011754788
0.00011767977
0.00011781997
0.00011796743
0.00011812106
0.0001182797
0.00011844236
0.00011860783
0.00011877511
0.0001189432
0.00011911117
0.00011927811
0.00011944336
0.00011960609
0.00011976573
0.00011992171
0.00012007355
0.00012022082
0.00012036328
0.00012050053
0.00012063236
0.00012075858
0.00012087903
0.00012099354
0.00012110208
0.00012120445
0.00012130056
0.00012139029
0.00012147352
0.00012155003
0.00012161796
0.0001216808
0.00012171156
0.00011872125
0.00011868821
0.00011867946
0.00011867231
0.00011866516
0.00011865932
0.0001186531
0.00011864778
0.00011864164
0.00011863593
0.00011862889
0.00011862179
0.00011861287
0.00011860338
0.0001185916
0.0001185788
0.00011856328
0.00011854635
0.00011852637
0.00011850468
0.00011847969
0.00011845282
0.00011842254
0.00011839033
0.00011835473
0.00011831729
0.00011827663
0.00011823436
0.00011818916
0.00011814271
0.00011809374
0.00011804362
0.00011799259
0.00011793982
0.00011788707
0.00011783315
0.00011777983
0.0001177259
0.00011767311
0.00011762023
0.00011756897
0.00011751817
0.00011746897
0.00011742111
0.00011737479
0.0001173301
0.00011728708
0.00011724586
0.00011720637
0.00011716865
0.00011713269
0.0001170985
0.00011706606
0.0001170355
0.00011700677
0.00011698001
0.00011695537
0.00011693305
0.00011691329
0.00011689655
0.00011688311
0.00011687352
0.00011686833
0.00011686819
0.00011687378
0.0001168858
0.00011690513
0.00011693246
0.00011696859
0.00011701427
0.0001170702
0.00011710152
0.00011703732
0.0001169755
0.00011691711
0.00011686321
0.00011681495
0.00011677346
0.00011674004
0.00011671566
0.00011670149
0.00011669846
0.00011670742
0.00011672905
0.00011676383
0.00011681208
0.00011687389
0.00011694914
0.00011703752
0.00011713848
0.00011725144
0.00011737547
0.00011750963
0.00011765286
0.00011780401
0.00011796191
0.00011812532
0.00011829314
0.00011846411
0.00011863713
0.00011881113
0.00011898513
0.00011915816
0.00011932953
0.00011949835
0.00011966402
0.00011982597
0.00011998368
0.00012013672
0.00012028483
0.0001204276
0.00012056485
0.00012069637
0.00012082201
0.00012094161
0.00012105516
0.00012116246
0.00012126346
0.00012135807
0.00012144619
0.00012152768
0.00012160058
0.00012166887
0.00012170545
0.00011867168
0.00011863996
0.00011863256
0.0001186268
0.00011862103
0.00011861658
0.00011861173
0.00011860776
0.00011860292
0.00011859845
0.00011859259
0.00011858656
0.00011857862
0.00011856999
0.00011855892
0.00011854669
0.00011853157
0.00011851486
0.0001184949
0.00011847305
0.00011844769
0.00011842025
0.0001183892
0.00011835602
0.00011831926
0.00011828048
0.00011823832
0.00011819439
0.00011814741
0.00011809907
0.00011804812
0.00011799596
0.00011794286
0.00011788801
0.0001178332
0.00011777727
0.00011772201
0.00011766624
0.00011761173
0.00011755727
0.00011750459
0.00011745253
0.00011740225
0.0001173535
0.00011730647
0.00011726125
0.00011721785
0.00011717642
0.00011713685
0.00011709917
0.00011706334
0.00011702935
0.00011699715
0.00011696685
0.00011693838
0.00011691186
0.00011688742
0.00011686526
0.00011684562
0.00011682896
0.0001168156
0.0001168061
0.00011680107
0.00011680118
0.00011680718
0.00011681986
0.00011684015
0.00011686883
0.00011690678
0.00011695484
0.00011701377
0.00011704402
0.00011697097
0.00011689988
0.00011683186
0.00011676812
0.00011670994
0.00011665858
0.00011661549
0.0001165818
0.00011655883
0.00011654765
0.00011654924
0.00011656438
0.00011659367
0.00011663746
0.00011669591
0.00011676891
0.00011685614
0.00011695701
0.00011707092
0.00011719683
0.00011733375
0.00011748051
0.00011763588
0.00011779857
0.00011796726
0.00011814075
0.00011831769
0.00011849689
0.00011867722
0.00011885762
0.00011903709
0.00011921486
0.00011939003
0.00011956196
0.00011973004
0.00011989378
0.00012005269
0.00012020653
0.0001203549
0.0001204976
0.00012063445
0.0001207653
0.00012088999
0.00012100855
0.00012112079
0.00012122668
0.00012132617
0.00012141921
0.00012150569
0.00012158356
0.00012165725
0.00012169952
0.00011861924
0.00011858888
0.00011858288
0.00011857856
0.00011857426
0.00011857129
0.00011856791
0.00011856539
0.00011856196
0.00011855885
0.00011855428
0.00011854946
0.00011854261
0.00011853494
0.0001185247
0.00011851313
0.00011849849
0.00011848208
0.00011846222
0.00011844025
0.00011841457
0.00011838658
0.00011835476
0.0001183206
0.00011828266
0.0001182425
0.00011819877
0.00011815312
0.00011810426
0.00011805393
0.00011800089
0.00011794657
0.00011789126
0.0001178342
0.0001177772
0.00011771913
0.00011766179
0.00011760406
0.0001175477
0.00011749155
0.00011743734
0.00011738395
0.00011733252
0.00011728281
0.00011723502
0.00011718923
0.00011714544
0.00011710379
0.00011706414
0.00011702649
0.00011699079
0.000116957
0.00011692502
0.00011689496
0.0001168667
0.00011684035
0.00011681602
0.0001167939
0.00011677422
0.00011675746
0.00011674394
0.00011673427
0.00011672908
0.00011672912
0.00011673519
0.00011674815
0.00011676904
0.00011679869
0.00011683811
0.00011688821
0.00011694987
0.00011698363
0.00011690133
0.00011682049
0.00011674235
0.00011666824
0.00011659958
0.00011653781
0.00011648452
0.00011644104
0.00011640882
0.00011638912
0.00011638303
0.00011639148
0.00011641515
0.00011645448
0.00011650965
0.00011658057
0.00011666692
0.00011676806
0.00011688332
0.0001170116
0.00011715179
0.00011730263
0.00011746278
0.00011763085
0.00011780538
0.00011798508
0.0001181685
0.00011835437
0.00011854148
0.0001187287
0.00011891496
0.00011909945
0.00011928124
0.00011945965
0.00011963407
0.00011980397
0.00011996888
0.00012012855
0.00012028258
0.00012043078
0.00012057297
0.00012070903
0.00012083882
0.00012096238
0.00012107954
0.00012119032
0.00012129469
0.00012139262
0.00012148408
0.00012156691
0.00012164592
0.00012169376
0.00011856389
0.00011853496
0.00011853042
0.00011852761
0.00011852487
0.00011852346
0.00011852167
0.00011852071
0.00011851882
0.00011851719
0.00011851404
0.00011851055
0.00011850492
0.00011849834
0.00011848904
0.00011847824
0.00011846419
0.00011844816
0.00011842847
0.00011840645
0.00011838048
0.00011835197
0.00011831939
0.00011828424
0.00011824509
0.0001182035
0.00011815814
0.00011811068
0.00011805986
0.00011800742
0.00011795217
0.00011789555
0.00011783791
0.00011777849
0.00011771915
0.00011765878
0.00011759923
0.00011753939
0.00011748107
0.00011742311
0.00011736728
0.00011731245
0.00011725979
0.00011720907
0.00011716048
0.0001171141
0.00011706991
0.00011702803
0.00011698831
0.00011695071
0.00011691517
0.00011688158
0.00011684984
0.00011682
0.00011679193
0.00011676569
0.00011674138
0.00011671918
0.0001166993
0.00011668223
0.00011666832
0.00011665819
0.00011665253
0.00011665213
0.00011665789
0.00011667073
0.0001166918
0.00011672202
0.00011676251
0.0001168143
0.00011687835
0.00011692079
0.00011682879
0.00011673769
0.00011664887
0.00011656379
0.00011648405
0.00011641124
0.00011634716
0.00011629331
0.00011625134
0.00011622267
0.00011620856
0.00011621006
0.00011622796
0.00011626279
0.00011631476
0.00011638379
0.00011646954
0.00011657133
0.00011668839
0.00011681955
0.00011696358
0.00011711911
0.00011728465
0.0001174587
0.00011763967
0.00011782618
0.00011801663
0.00011820969
0.00011840404
0.00011859849
0.00011879192
0.00011898347
0.00011917216
0.00011935729
0.00011953824
0.00011971446
0.00011988548
0.00012005106
0.00012021081
0.00012036454
0.00012051209
0.00012065337
0.00012078824
0.00012091677
0.00012103884
0.00012115448
0.00012126368
0.00012136649
0.00012146289
0.0001215506
0.00012163485
0.00012168814
0.00011850575
0.00011847827
0.00011847526
0.00011847405
0.00011847295
0.00011847322
0.00011847311
0.00011847384
0.00011847361
0.00011847361
0.00011847201
0.00011846998
0.0001184657
0.00011846034
0.00011845211
0.00011844219
0.00011842883
0.00011841327
0.00011839383
0.00011837181
0.0001183456
0.00011831659
0.00011828327
0.00011824711
0.00011820671
0.00011816364
0.00011811658
0.00011806722
0.00011801432
0.00011795966
0.00011790206
0.00011784301
0.00011778286
0.00011772093
0.00011765909
0.00011759626
0.00011753435
0.00011747225
0.00011741182
0.00011735193
0.00011729435
0.00011723799
0.00011718403
0.00011713224
0.00011708281
0.0001170358
0.00011699121
0.00011694911
0.00011690934
0.00011687182
0.00011683645
0.00011680309
0.0001167716
0.00011674199
0.00011671408
0.00011668791
0.00011666354
0.00011664113
0.00011662089
0.00011660331
0.00011658874
0.00011657785
0.00011657138
0.00011657017
0.0001165752
0.00011658748
0.00011660826
0.0001166386
0.00011667973
0.00011673279
0.00011679888
0.0001168558
0.00011675359
0.00011665168
0.00011655156
0.00011645486
0.00011636334
0.00011627881
0.00011620326
0.00011613841
0.0001160861
0.00011604796
0.00011602541
0.00011601967
0.00011603163
0.0001160619
0.00011611074
0.00011617808
0.00011626354
0.00011636638
0.00011648575
0.00011662035
0.00011676884
0.0001169297
0.00011710131
0.000117282
0.00011747008
0.00011766401
0.0001178621
0.00011806289
0.00011826499
0.00011846714
0.00011866813
0.00011886707
0.00011906296
0.00011925506
0.00011944273
0.00011962543
0.00011980268
0.00011997425
0.00012013976
0.00012029904
0.00012045197
0.00012059844
0.00012073837
0.00012087185
0.00012099878
0.00012111923
0.00012123323
0.00012134085
0.00012144213
0.00012153466
0.00012162404
0.00012168266
0.00011844477
0.00011841883
0.00011841742
0.00011841789
0.00011841853
0.00011842058
0.00011842229
0.00011842484
0.00011842641
0.00011842817
0.00011842827
0.00011842786
0.00011842508
0.00011842108
0.00011841404
0.00011840513
0.00011839257
0.00011837759
0.00011835848
0.00011833653
0.00011831012
0.00011828065
0.00011824658
0.0001182094
0.00011816771
0.00011812311
0.00011807427
0.00011802291
0.00011796782
0.00011791079
0.0001178507
0.00011778904
0.00011772624
0.00011766161
0.00011759709
0.00011753164
0.00011746718
0.00011740267
0.00011733997
0.00011727801
0.00011721857
0.00011716058
0.00011710524
0.00011705232
0.000117002
0.00011695437
0.00011690937
0.00011686707
0.00011682728
0.00011678988
0.00011675473
0.00011672166
0.00011669045
0.00011666108
0.00011663333
0.00011660719
0.00011658269
0.00011655996
0.0001165392
0.00011652088
0.0001165054
0.00011649343
0.00011648577
0.00011648333
0.00011648716
0.0001164984
0.0001165184
0.00011654835
0.00011658961
0.00011664349
0.00011671121
0.00011678599
0.00011667616
0.00011656281
0.0001164507
0.00011634164
0.00011623758
0.00011614054
0.00011605276
0.00011597617
0.00011591286
0.00011586467
0.00011583323
0.00011581989
0.0001158257
0.00011585133
0.00011589712
0.00011596297
0.00011604847
0.00011615281
0.00011627503
0.0001164137
0.00011656732
0.00011673422
0.00011691262
0.00011710069
0.00011729658
0.00011749861
0.00011770497
0.00011791408
0.00011812447
0.00011833478
0.00011854376
0.00011875046
0.00011895384
0.00011915316
0.00011934774
0.00011953707
0.00011972066
0.00011989829
0.00012006961
0.00012023447
0.00012039275