/*--------------------------------*- C++ -*----------------------------------*\
| =========                 |                                                 |
| \\      /  F ield         | foam-extend: Open Source CFD                    |
|  \\    /   O peration     | Version:     4.1                                |
|   \\  /    A nd           | Web:         http://www.foam-extend.org         |
|    \\/     M anipulation  |                                                 |
\*---------------------------------------------------------------------------*/
FoamFile
{
    version     2.0;
    format      ascii;
    class       volVectorField;
    location    "0.3";
    object      U;
}
// * * * * * * * * * * * * * * * * * * * * * * * * * * * * * * * * * * * * * //

dimensions      [0 1 -1 0 0 0 0];

internalField   nonuniform List<vector> 
16126
(
(132.14451 -0.095027767 0)
(132.39628 -0.10407276 0)
(132.60104 -0.10561801 0)
(132.81081 -0.10596428 0)
(133.02006 -0.10586433 0)
(133.22832 -0.10562039 0)
(133.43535 -0.10534282 0)
(133.64112 -0.10508283 0)
(133.84572 -0.10486836 0)
(134.04929 -0.10471676 0)
(134.252 -0.10463985 0)
(134.45407 -0.10464602 0)
(134.65574 -0.10474125 0)
(134.85726 -0.10492952 0)
(135.05891 -0.1052131 0)
(135.26095 -0.10559266 0)
(135.46367 -0.10606731 0)
(135.66734 -0.10663469 0)
(135.87224 -0.10729103 0)
(136.07863 -0.10803118 0)
(136.28674 -0.10884874 0)
(136.49682 -0.10973612 0)
(136.70908 -0.11068472 0)
(136.92368 -0.11168499 0)
(137.1408 -0.11272665 0)
(137.36055 -0.11379884 0)
(137.58303 -0.11489033 0)
(137.8083 -0.11598969 0)
(138.03639 -0.11708551 0)
(138.26729 -0.11816661 0)
(138.50095 -0.11922224 0)
(138.73731 -0.12024225 0)
(138.97626 -0.12121742 0)
(139.21767 -0.12213938 0)
(139.46137 -0.12300096 0)
(139.70719 -0.12379624 0)
(139.95494 -0.12452064 0)
(140.20438 -0.12517096 0)
(140.45531 -0.12574542 0)
(140.70749 -0.12624359 0)
(140.96069 -0.12666636 0)
(141.21468 -0.12701579 0)
(141.46922 -0.12729491 0)
(141.72411 -0.12750765 0)
(141.97913 -0.12765843 0)
(142.23409 -0.12775201 0)
(142.48881 -0.12779312 0)
(142.7431 -0.12778618 0)
(142.99682 -0.12773497 0)
(143.24982 -0.12764227 0)
(143.50196 -0.12750959 0)
(143.75309 -0.12733687 0)
(144.00308 -0.1271222 0)
(144.25178 -0.12686165 0)
(144.49903 -0.1265491 0)
(144.74465 -0.12617619 0)
(144.98844 -0.12573231 0)
(145.23017 -0.12520466 0)
(145.46955 -0.12457849 0)
(145.70628 -0.12383736 0)
(145.93999 -0.12296347 0)
(146.17025 -0.12193815 0)
(146.39661 -0.12074242 0)
(146.61854 -0.11935757 0)
(146.83547 -0.11776581 0)
(147.04676 -0.11595103 0)
(147.25177 -0.11389949 0)
(147.44978 -0.11160052 0)
(147.64007 -0.10904723 0)
(147.8219 -0.10623708 0)
(147.99454 -0.10317242 0)
(148.15727 -0.099860944 0)
(148.30939 -0.096315966 0)
(148.45027 -0.092556563 0)
(148.57932 -0.088607534 0)
(148.69606 -0.084499168 0)
(148.80009 -0.080266458 0)
(148.89112 -0.075947918 0)
(148.96898 -0.071583926 0)
(149.03367 -0.067216269 0)
(149.08527 -0.062888763 0)
(149.12405 -0.058646801 0)
(149.1504 -0.054531627 0)
(149.16483 -0.050573804 0)
(149.16804 -0.046791741 0)
(149.16067 -0.043226373 0)
(149.14342 -0.039964146 0)
(149.11732 -0.037074353 0)
(149.08348 -0.03458762 0)
(149.04309 -0.032521482 0)
(148.99738 -0.030885117 0)
(148.9476 -0.029680565 0)
(148.895 -0.02890332 0)
(148.84082 -0.028542908 0)
(148.78627 -0.028583508 0)
(148.73252 -0.029004661 0)
(148.68066 -0.029782019 0)
(148.63174 -0.030888119 0)
(148.58671 -0.032293111 0)
(148.54646 -0.033965425 0)
(148.51177 -0.03587233 0)
(148.48336 -0.037980437 0)
(148.46184 -0.040256023 0)
(148.44775 -0.04266402 0)
(148.44154 -0.045164907 0)
(148.44359 -0.047716167 0)
(148.45406 -0.050307925 0)
(148.47318 -0.052939621 0)
(148.50112 -0.055592111 0)
(148.538 -0.058241822 0)
(148.58391 -0.060863832 0)
(148.63886 -0.063431927 0)
(148.70282 -0.065917676 0)
(148.77573 -0.068288513 0)
(148.85748 -0.070504664 0)
(148.94791 -0.072515817 0)
(149.04677 -0.074258186 0)
(149.15363 -0.075641854 0)
(149.26794 -0.07649345 0)
(149.38961 -0.076472885 0)
(149.5194 -0.075229073 0)
(149.65441 -0.07290906 0)
(149.77825 -0.069291596 0)
(149.87065 -0.054125948 0)
(151.97255 -0.15894652 0)
(152.07084 -0.17143907 0)
(152.14296 -0.17385621 0)
(152.21572 -0.17392305 0)
(152.28735 -0.17300316 0)
(152.35763 -0.17170846 0)
(152.42641 -0.17030219 0)
(152.49368 -0.16891824 0)
(152.55949 -0.16763471 0)
(152.62395 -0.16650311 0)
(152.68722 -0.16556049 0)
(152.74947 -0.16483497 0)
(152.81091 -0.16434814 0)
(152.87177 -0.1641163 0)
(152.93227 -0.16415097 0)
(152.99267 -0.1644591 0)
(153.05323 -0.16504323 0)
(153.11419 -0.16590147 0)
(153.17581 -0.16702764 0)
(153.23835 -0.16841131 0)
(153.30204 -0.17003801 0)
(153.3671 -0.17188937 0)
(153.43374 -0.17394349 0)
(153.50215 -0.1761752 0)
(153.5725 -0.17855654 0)
(153.64492 -0.18105718 0)
(153.71951 -0.183645 0)
(153.79637 -0.18628661 0)
(153.87553 -0.188948 0)
(153.95701 -0.19159511 0)
(154.0408 -0.19419452 0)
(154.12685 -0.19671399 0)
(154.21507 -0.19912328 0)
(154.30536 -0.20139441 0)
(154.3976 -0.20350233 0)
(154.49162 -0.2054254 0)
(154.58724 -0.20714564 0)
(154.68428 -0.20864904 0)
(154.78253 -0.20992565 0)
(154.88177 -0.21096965 0)
(154.98177 -0.21177915 0)
(155.08233 -0.21235604 0)
(155.18322 -0.21270546 0)
(155.28422 -0.21283547 0)
(155.38512 -0.21275627 0)
(155.48573 -0.21247949 0)
(155.58585 -0.21201739 0)
(155.68532 -0.21138191 0)
(155.78395 -0.21058378 0)
(155.88159 -0.20963152 0)
(155.9781 -0.20853049 0)
(156.07331 -0.20728208 0)
(156.16708 -0.20588284 0)
(156.25924 -0.20432388 0)
(156.34964 -0.20259034 0)
(156.43807 -0.20066111 0)
(156.52433 -0.19850872 0)
(156.60818 -0.19609958 0)
(156.68933 -0.19339437 0)
(156.76747 -0.19034881 0)
(156.84222 -0.18691463 0)
(156.91318 -0.18304085 0)
(156.97986 -0.17867533 0)
(157.04175 -0.17376646 0)
(157.09828 -0.16826516 0)
(157.14882 -0.16212682 0)
(157.19271 -0.15531351 0)
(157.22926 -0.147796 0)
(157.25773 -0.13955581 0)
(157.27738 -0.13058699 0)
(157.28749 -0.12089771 0)
(157.28731 -0.11051166 0)
(157.27616 -0.099468833 0)
(157.2534 -0.087826085 0)
(157.21843 -0.075657166 0)
(157.17075 -0.063051156 0)
(157.10995 -0.050110115 0)
(157.03575 -0.036948315 0)
(156.94796 -0.023692463 0)
(156.84653 -0.010485084 0)
(156.73156 0.0025322607 0)
(156.6033 0.015217013 0)
(156.46214 0.027430704 0)
(156.3086 0.039049118 0)
(156.14335 0.049969898 0)
(155.96731 0.060088827 0)
(155.78159 0.069275599 0)
(155.58717 0.077411022 0)
(155.38507 0.084415751 0)
(155.17638 0.09023528 0)
(154.96224 0.094836026 0)
(154.74381 0.098203814 0)
(154.52224 0.10034267 0)
(154.29871 0.10127341 0)
(154.07434 0.10103197 0)
(153.85023 0.099667416 0)
(153.62743 0.097239914 0)
(153.40692 0.093818454 0)
(153.18962 0.089478713 0)
(152.97639 0.084300985 0)
(152.76799 0.078368271 0)
(152.56511 0.071764518 0)
(152.36836 0.064573178 0)
(152.17829 0.056877336 0)
(151.99535 0.048763082 0)
(151.81993 0.040318438 0)
(151.65249 0.031610511 0)
(151.49329 0.022684516 0)
(151.34253 0.013592091 0)
(151.20033 0.0043840329 0)
(151.06676 -0.0048919417 0)
(150.94184 -0.014191224 0)
(150.82556 -0.023471228 0)
(150.71784 -0.032688787 0)
(150.61859 -0.041796011 0)
(150.52766 -0.050737375 0)
(150.44482 -0.059453567 0)
(150.36973 -0.067851617 0)
(150.30201 -0.075681915 0)
(150.24166 -0.082404925 0)
(150.18907 -0.087612631 0)
(150.14136 -0.091934111 0)
(150.0891 -0.095081915 0)
(150.0301 -0.078140365 0)
(154.17382 -0.19534191 0)
(154.22836 -0.2009403 0)
(154.26332 -0.20207099 0)
(154.29696 -0.20128015 0)
(154.32918 -0.19952541 0)
(154.36032 -0.19736189 0)
(154.39051 -0.1950882 0)
(154.41987 -0.19287689 0)
(154.44852 -0.19083696 0)
(154.47663 -0.18904362 0)
(154.50437 -0.18755228 0)
(154.53192 -0.18640544 0)
(154.55947 -0.18563586 0)
(154.58724 -0.18526826 0)
(154.61543 -0.18532001 0)
(154.64425 -0.18580143 0)
(154.6739 -0.18671601 0)
(154.70459 -0.18806038 0)
(154.73651 -0.18982454 0)
(154.76983 -0.19199184 0)
(154.80474 -0.19453939 0)
(154.84137 -0.19743823 0)
(154.87985 -0.20065388 0)
(154.92031 -0.20414677 0)
(154.96283 -0.207873 0)
(155.00748 -0.21178492 0)
(155.05429 -0.2158321 0)
(155.10329 -0.2199621 0)
(155.15447 -0.2241215 0)
(155.20778 -0.2282568 0)
(155.26319 -0.23231547 0)
(155.32059 -0.23624689 0)
(155.3799 -0.24000341 0)
(155.441 -0.2435411 0)
(155.50375 -0.24682057 0)
(155.56799 -0.2498078 0)
(155.63357 -0.25247453 0)
(155.70031 -0.25479877 0)
(155.76805 -0.25676495 0)
(155.83661 -0.25836398 0)
(155.9058 -0.25959304 0)
(155.97547 -0.26045519 0)
(156.04545 -0.2609587 0)
(156.11558 -0.26111632 0)
(156.18572 -0.26094414 0)
(156.25573 -0.26046046 0)
(156.32549 -0.2596844 0)
(156.39489 -0.25863444 0)
(156.46382 -0.2573269 0)
(156.53218 -0.25577437 0)
(156.59989 -0.25398415 0)
(156.66683 -0.25195686 0)
(156.73291 -0.2496851 0)
(156.79802 -0.24715241 0)
(156.86203 -0.24433241 0)
(156.92477 -0.24118834 0)
(156.98608 -0.23767293 0)
(157.04573 -0.23372866 0)
(157.10346 -0.22928855 0)
(157.15897 -0.22427733 0)
(157.21191 -0.2186131 0)
(157.26186 -0.21220943 0)
(157.30836 -0.20497792 0)
(157.35088 -0.19683105 0)
(157.38886 -0.18768545 0)
(157.42167 -0.17746519 0)
(157.44864 -0.16610544 0)
(157.46907 -0.15355583 0)
(157.48221 -0.13978394 0)
(157.48733 -0.12477822 0)
(157.48366 -0.10855081 0)
(157.47048 -0.091139448 0)
(157.44707 -0.07260959 0)
(157.41276 -0.053054941 0)
(157.36696 -0.032596068 0)
(157.30913 -0.01137843 0)
(157.23887 0.010423497 0)
(157.15583 0.032612192 0)
(157.05984 0.054973961 0)
(156.95083 0.077286116 0)
(156.82887 0.099310927 0)
(156.69417 0.12080818 0)
(156.54709 0.14153891 0)
(156.38812 0.16127144 0)
(156.2179 0.17978838 0)
(156.03718 0.19689857 0)
(155.8468 0.21244483 0)
(155.64773 0.22628952 0)
(155.44101 0.23831327 0)
(155.22776 0.24842703 0)
(155.0091 0.25657349 0)
(154.78623 0.26272655 0)
(154.56031 0.26688979 0)
(154.33253 0.26909443 0)
(154.10402 0.2693966 0)
(153.8759 0.2678742 0)
(153.64922 0.26462345 0)
(153.42497 0.25975531 0)
(153.20409 0.25339183 0)
(152.98742 0.24566271 0)
(152.77573 0.23670196 0)
(152.56972 0.22664477 0)
(152.37001 0.21562488 0)
(152.17712 0.20377219 0)
(151.99152 0.19121121 0)
(151.8136 0.17805997 0)
(151.64365 0.1644375 0)
(151.48195 0.15045723 0)
(151.32867 0.13621711 0)
(151.18396 0.12180612 0)
(151.04789 0.10730572 0)
(150.92051 0.092790706 0)
(150.80181 0.078330545 0)
(150.69175 0.063991979 0)
(150.59024 0.049842188 0)
(150.49715 0.035948942 0)
(150.41228 0.022383552 0)
(150.33536 0.0092461876 0)
(150.26615 -0.003227652 0)
(150.20467 -0.014607626 0)
(150.15077 -0.024775071 0)
(150.10183 -0.034229865 0)
(150.05455 -0.042489689 0)
(150.01555 -0.036353136 0)
(154.36452 -0.22142374 0)
(154.40955 -0.22145245 0)
(154.43911 -0.2204418 0)
(154.46707 -0.21856997 0)
(154.49347 -0.21615454 0)
(154.51875 -0.2135206 0)
(154.54314 -0.21089978 0)
(154.56682 -0.20845063 0)
(154.58997 -0.20628403 0)
(154.61276 -0.20448068 0)
(154.63536 -0.20310116 0)
(154.65796 -0.20219163 0)
(154.68077 -0.20178674 0)
(154.70399 -0.20191123 0)
(154.72781 -0.20258068 0)
(154.75244 -0.20380191 0)
(154.77807 -0.20557322 0)
(154.8049 -0.20788447 0)
(154.83311 -0.21071739 0)
(154.86287 -0.2140457 0)
(154.89433 -0.21783564 0)
(154.92763 -0.22204623 0)
(154.96289 -0.2266301 0)
(155.00021 -0.23153402 0)
(155.03967 -0.23669987 0)
(155.08132 -0.24206549 0)
(155.1252 -0.24756587 0)
(155.1713 -0.25313406 0)
(155.21962 -0.25870262 0)
(155.27011 -0.26420459 0)
(155.32271 -0.26957492 0)
(155.37734 -0.27475156 0)
(155.43388 -0.27967669 0)
(155.49223 -0.28429778 0)
(155.55223 -0.28856847 0)
(155.61374 -0.29244955 0)
(155.6766 -0.29590939 0)
(155.74064 -0.29892456 0)
(155.80569 -0.30147984 0)
(155.87159 -0.30356831 0)
(155.93815 -0.30519087 0)
(156.00522 -0.30635573 0)
(156.07265 -0.30707745 0)
(156.14027 -0.30737581 0)
(156.20796 -0.30727436 0)
(156.27559 -0.30679879 0)
(156.34304 -0.3059751 0)
(156.41022 -0.30482761 0)
(156.47701 -0.30337689 0)
(156.54334 -0.30163773 0)
(156.60912 -0.29961701 0)
(156.67425 -0.29731189 0)
(156.73865 -0.29470806 0)
(156.80221 -0.29177834 0)
(156.86481 -0.28848162 0)
(156.9263 -0.28476227 0)
(156.98649 -0.28055006 0)
(157.04519 -0.27576058 0)
(157.10214 -0.27029635 0)
(157.15702 -0.26404849 0)
(157.20949 -0.25689908 0)
(157.25913 -0.24872406 0)
(157.30548 -0.2393968 0)
(157.348 -0.22879206 0)
(157.38612 -0.21679048 0)
(157.41919 -0.20328327 0)
(157.44653 -0.1881771 0)
(157.46742 -0.17139892 0)
(157.48111 -0.15290078 0)
(157.48682 -0.13266397 0)
(157.48378 -0.11070228 0)
(157.47122 -0.087065813 0)
(157.44841 -0.061843975 0)
(157.41466 -0.035164934 0)
(157.36934 -0.0071927908 0)
(157.31191 0.0218614 0)
(157.24191 0.051758781 0)
(157.15901 0.082230269 0)
(157.06298 0.11297889 0)
(156.95376 0.14368835 0)
(156.83139 0.17403038 0)
(156.6961 0.20367108 0)
(156.54825 0.23227989 0)
(156.38832 0.25953593 0)
(156.21697 0.28513196 0)
(156.03497 0.30878598 0)
(155.84319 0.33025491 0)
(155.64262 0.34933478 0)
(155.43432 0.36585961 0)
(155.21943 0.37970583 0)
(154.99911 0.39079385 0)
(154.77457 0.39908759 0)
(154.54702 0.40459269 0)
(154.31763 0.40735356 0)
(154.08759 0.40744971 0)
(153.85801 0.40499127 0)
(153.62996 0.40011419 0)
(153.40446 0.39297523 0)
(153.18242 0.38374693 0)
(152.96471 0.37261276 0)
(152.7521 0.35976259 0)
(152.5453 0.34538858 0)
(152.34489 0.32968159 0)
(152.15143 0.31282801 0)
(151.96537 0.29500582 0)
(151.78707 0.27638171 0)
(151.61686 0.25711527 0)
(151.45497 0.2373586 0)
(151.3016 0.21725235 0)
(151.15687 0.19692711 0)
(151.02087 0.17650495 0)
(150.89363 0.15610146 0)
(150.77514 0.13582874 0)
(150.66536 0.11580014 0)
(150.56421 0.09613563 0)
(150.47156 0.076965458 0)
(150.38725 0.05843796 0)
(150.31104 0.040761587 0)
(150.24281 0.024290464 0)
(150.1825 0.0094973305 0)
(150.12967 -0.0033808892 0)
(150.08222 -0.013737097 0)
(150.03992 -0.020389659 0)
(150.01019 -0.016217324 0)
(154.37708 -0.24609587 0)
(154.41984 -0.2429649 0)
(154.44896 -0.23995167 0)
(154.47655 -0.23670851 0)
(154.50248 -0.23327748 0)
(154.52719 -0.22983083 0)
(154.55092 -0.22653708 0)
(154.57389 -0.22353431 0)
(154.59628 -0.22093092 0)
(154.61829 -0.21881188 0)
(154.6401 -0.21724389 0)
(154.66192 -0.21627896 0)
(154.68394 -0.21595643 0)
(154.70637 -0.21630414 0)
(154.72943 -0.21733899 0)
(154.75331 -0.21906719 0)
(154.77822 -0.22148447 0)
(154.80435 -0.22457618 0)
(154.8319 -0.22831759 0)
(154.86103 -0.23267407 0)
(154.8919 -0.2376017 0)
(154.92465 -0.2430477 0)
(154.95941 -0.24895138 0)
(154.99629 -0.25524486 0)
(155.03535 -0.2618543 0)
(155.07667 -0.26870094 0)
(155.12026 -0.27570261 0)
(155.16614 -0.28277492 0)
(155.21428 -0.28983299 0)
(155.26466 -0.29679277 0)
(155.3172 -0.30357277 0)
(155.37181 -0.3100954 0)
(155.42839 -0.31628857 0)
(155.48681 -0.322087 0)
(155.54692 -0.32743327 0)
(155.60858 -0.33227908 0)
(155.67161 -0.33658578 0)
(155.73585 -0.3403251 0)
(155.80111 -0.34347916 0)
(155.86723 -0.34604057 0)
(155.93402 -0.34801183 0)
(156.00132 -0.34940462 0)
(156.06896 -0.35023858 0)
(156.1368 -0.35053988 0)
(156.2047 -0.35033936 0)
(156.27252 -0.34967044 0)
(156.34016 -0.34856675 0)
(156.40751 -0.34705961 0)
(156.47448 -0.3451754 0)
(156.54098 -0.34293288 0)
(156.60694 -0.34034056 0)
(156.67226 -0.33739427 0)
(156.73687 -0.33407494 0)
(156.80068 -0.33034683 0)
(156.86356 -0.32615612 0)
(156.92538 -0.32143014 0)
(156.98597 -0.31607724 0)
(157.04514 -0.30998738 0)
(157.10263 -0.30303347 0)
(157.15815 -0.29507359 0)
(157.21135 -0.28595397 0)
(157.26181 -0.27551281 0)
(157.30907 -0.26358482 0)
(157.3526 -0.2500064 0)
(157.39181 -0.23462147 0)
(157.42605 -0.21728754 0)
(157.45462 -0.1978821 0)
(157.47678 -0.17630895 0)
(157.49176 -0.15250449 0)
(157.49875 -0.12644292 0)
(157.49697 -0.098140169 0)
(157.48561 -0.067661016 0)
(157.46391 -0.035121056 0)
(157.43116 -0.00068401751 0)
(157.38669 0.035433001 0)
(157.32992 0.07296953 0)
(157.2604 0.1116146 0)
(157.17774 0.15101655 0)
(157.08173 0.19079033 0)
(156.97226 0.23052572 0)
(156.84941 0.26979595 0)
(156.71337 0.30816805 0)
(156.56452 0.34521333 0)
(156.40336 0.38051717 0)
(156.23056 0.4136879 0)
(156.0469 0.44436675 0)
(155.85329 0.47223782 0)
(155.65076 0.49703336 0)
(155.44038 0.51853739 0)
(155.22334 0.53658935 0)
(155.00083 0.55108553 0)
(154.77408 0.56197857 0)
(154.54434 0.56927507 0)
(154.31283 0.57303179 0)
(154.08073 0.57335077 0)
(153.84919 0.5703735 0)
(153.6193 0.56427461 0)
(153.39208 0.55525527 0)
(153.16847 0.54353658 0)
(152.94933 0.52935331 0)
(152.73545 0.51294797 0)
(152.52751 0.4945655 0)
(152.32613 0.47444883 0)
(152.13183 0.45283488 0)
(151.94506 0.42995072 0)
(151.76618 0.40601087 0)
(151.5955 0.38121688 0)
(151.43326 0.35575624 0)
(151.27962 0.32980098 0)
(151.13472 0.30350838 0)
(150.99863 0.27702217 0)
(150.87138 0.25047458 0)
(150.75295 0.22398938 0)
(150.64332 0.19768648 0)
(150.54239 0.17168695 0)
(150.45007 0.14611815 0)
(150.36622 0.12112783 0)
(150.29067 0.096926271 0)
(150.22339 0.073835369 0)
(150.16432 0.052223092 0)
(150.11302 0.032351928 0)
(150.06827 0.015566659 0)
(150.03115 0.0028969475 0)
(150.00749 -0.0016107252 0)
(154.38383 -0.2686661 0)
(154.42538 -0.26361534 0)
(154.45432 -0.25905674 0)
(154.48189 -0.25465175 0)
(154.50777 -0.25035189 0)
(154.53235 -0.2462446 0)
(154.55586 -0.24245047 0)
(154.57854 -0.23908575 0)
(154.60059 -0.23625129 0)
(154.62219 -0.23403121 0)
(154.64357 -0.23249397 0)
(154.66492 -0.23169379 0)
(154.68645 -0.23167163 0)
(154.70839 -0.23245575 0)
(154.73093 -0.23406206 0)
(154.75431 -0.23649417 0)
(154.77872 -0.2397436 0)
(154.80438 -0.24378977 0)
(154.83146 -0.24860043 0)
(154.86016 -0.25413184 0)
(154.89063 -0.26032952 0)
(154.92304 -0.26712876 0)
(154.95749 -0.2744558 0)
(154.99412 -0.28222858 0)
(155.03298 -0.29035841 0)
(155.07416 -0.29875099 0)
(155.11767 -0.30730835 0)
(155.16354 -0.3159302 0)
(155.21173 -0.324516 0)
(155.26221 -0.33296651 0)
(155.31492 -0.34118582 0)
(155.36975 -0.34908296 0)
(155.4266 -0.35657375 0)
(155.48534 -0.36358235 0)
(155.54582 -0.37004251 0)
(155.60787 -0.37589903 0)
(155.67132 -0.38110834 0)
(155.73599 -0.38563938 0)
(155.80171 -0.38947359 0)
(155.86828 -0.39260494 0)
(155.93552 -0.39503922 0)
(156.00326 -0.39679317 0)
(156.07133 -0.39789292 0)
(156.13958 -0.39837228 0)
(156.20787 -0.39827046 0)
(156.27606 -0.39762947 0)
(156.34404 -0.39649127 0)
(156.41172 -0.39489469 0)
(156.479 -0.39287216 0)
(156.5458 -0.39044646 0)
(156.61206 -0.38762751 0)
(156.6777 -0.38440933 0)
(156.74264 -0.3807674 0)
(156.80681 -0.37665637 0)
(156.87011 -0.37200838 0)
(156.9324 -0.36673211 0)
(156.99355 -0.36071255 0)
(157.05336 -0.35381171 0)
(157.11158 -0.34587031 0)
(157.16795 -0.33671044 0)
(157.2221 -0.32613922 0)
(157.27365 -0.31395352 0)
(157.32211 -0.29994555 0)
(157.36695 -0.28390927 0)
(157.40758 -0.26564757 0)
(157.44334 -0.24497987 0)
(157.47351 -0.22175 0)
(157.49732 -0.19583406 0)
(157.51397 -0.16714868 0)
(157.52265 -0.13565607 0)
(157.52251 -0.10137127 0)
(157.51272 -0.064370645 0)
(157.49249 -0.024791835 0)
(157.46105 0.017165471 0)
(157.41771 0.061233976 0)
(157.36186 0.10708703 0)
(157.293 0.15434096 0)
(157.21072 0.20256127 0)
(157.11479 0.25127088 0)
(157.00509 0.2999605 0)
(156.88167 0.34809971 0)
(156.74475 0.39514972 0)
(156.5947 0.44057646 0)
(156.43204 0.48386342 0)
(156.25745 0.52452416 0)
(156.07176 0.56211462 0)
(155.87591 0.5962435 0)
(155.67095 0.62657963 0)
(155.45802 0.6528574 0)
(155.23832 0.67488067 0)
(155.01311 0.69252421 0)
(154.78366 0.70573295 0)
(154.55125 0.71451887 0)
(154.31713 0.71895629 0)
(154.08252 0.71917562 0)
(153.84861 0.71535603 0)
(153.61649 0.70771754 0)
(153.38721 0.69651273 0)
(153.16172 0.68201849 0)
(152.94089 0.66452817 0)
(152.7255 0.6443442 0)
(152.51625 0.62177147 0)
(152.31374 0.59711174 0)
(152.11849 0.57065869 0)
(151.93094 0.54269396 0)
(151.75144 0.51348448 0)
(151.58029 0.48328106 0)
(151.41771 0.45231692 0)
(151.26386 0.42080686 0)
(151.11885 0.38894774 0)
(150.98276 0.35691962 0)
(150.85559 0.32488782 0)
(150.73732 0.29300592 0)
(150.62792 0.26141965 0)
(150.52731 0.23027075 0)
(150.43538 0.19970185 0)
(150.352 0.16987072 0)
(150.27708 0.14098117 0)
(150.21058 0.11329566 0)
(150.15243 0.087062105 0)
(150.10233 0.062489153 0)
(150.05973 0.04108589 0)
(150.0262 0.022774819 0)
(150.0061 0.0097443652 0)
(154.39751 -0.29032854 0)
(154.4384 -0.28369231 0)
(154.46711 -0.27763603 0)
(154.49454 -0.27194632 0)
(154.5203 -0.2665746 0)
(154.54468 -0.26157557 0)
(154.56793 -0.2570442 0)
(154.59027 -0.25308339 0)
(154.61192 -0.24978966 0)
(154.63307 -0.24724791 0)
(154.65394 -0.24552965 0)
(154.67475 -0.24469268 0)
(154.69571 -0.24478098 0)
(154.71706 -0.24582467 0)
(154.73901 -0.24783994 0)
(154.76178 -0.25082892 0)
(154.78561 -0.25477974 0)
(154.81069 -0.25966649 0)
(154.83723 -0.26544962 0)
(154.86542 -0.27207617 0)
(154.89542 -0.27948061 0)
(154.92741 -0.28758549 0)
(154.96151 -0.29630272 0)
(154.99783 -0.30553463 0)
(155.03647 -0.31517576 0)
(155.07749 -0.32511423 0)
(155.12092 -0.33523392 0)
(155.16678 -0.34541612 0)
(155.21504 -0.35554198 0)
(155.26567 -0.36549431 0)
(155.31859 -0.37516003 0)
(155.37371 -0.38443204 0)
(155.43091 -0.39321141 0)
(155.49004 -0.40140925 0)
(155.55097 -0.40894815 0)
(155.61351 -0.41576392 0)
(155.67748 -0.42180632 0)
(155.7427 -0.42704006 0)
(155.80897 -0.43144478 0)
(155.8761 -0.43501515 0)
(155.94389 -0.43775997 0)
(156.01217 -0.43970115 0)
(156.08076 -0.44087189 0)
(156.14951 -0.44131459 0)
(156.21826 -0.44107814 0)
(156.28688 -0.44021484 0)
(156.35527 -0.43877699 0)
(156.42333 -0.43681312 0)
(156.49096 -0.43436414 0)
(156.55811 -0.4314594 0)
(156.62471 -0.42811277 0)
(156.6907 -0.42431905 0)
(156.75601 -0.42005066 0)
(156.82059 -0.41525488 0)
(156.88435 -0.40985179 0)
(156.94719 -0.40373302 0)
(157.00896 -0.39676143 0)
(157.06949 -0.38877194 0)
(157.12856 -0.3795734 0)
(157.1859 -0.3689518 0)
(157.24117 -0.35667459 0)
(157.29398 -0.34249632 0)
(157.34385 -0.32616532 0)
(157.39024 -0.30743147 0)
(157.43256 -0.28605479 0)
(157.47011 -0.26181461 0)
(157.50218 -0.2345192 0)
(157.52796 -0.20401525 0)
(157.54662 -0.17019802 0)
(157.55731 -0.13301678 0)
(157.55914 -0.092485605 0)
(157.55124 -0.048692369 0)
(157.53277 -0.0017969502 0)
(157.50291 0.047965552 0)
(157.46093 0.10028426 0)
(157.40618 0.1547701 0)
(157.3381 0.21096472 0)
(157.25628 0.26834774 0)
(157.16043 0.32634677 0)
(157.05044 0.38434986 0)
(156.92633 0.44171907 0)
(156.78833 0.49780595 0)
(156.6368 0.5519672 0)
(156.4723 0.60358049 0)
(156.29553 0.65205989 0)
(156.10735 0.69687042 0)
(155.90875 0.73754047 0)
(155.70082 0.77367128 0)
(155.48475 0.80494399 0)
(155.26181 0.83112401 0)
(155.0333 0.85206262 0)
(154.80053 0.8676958 0)
(154.56484 0.87804036 0)
(154.32753 0.88318806 0)
(154.08986 0.88329785 0)
(153.85303 0.87858698 0)
(153.61818 0.86932119 0)
(153.38637 0.85580471 0)
(153.15857 0.8383702 0)
(152.93566 0.81736925 0)
(152.71842 0.79316355 0)
(152.50755 0.76611692 0)
(152.30364 0.73658848 0)
(152.10721 0.70492684 0)
(151.91868 0.67146541 0)
(151.7384 0.6365193 0)
(151.56665 0.60038325 0)
(151.40363 0.56333024 0)
(151.2495 0.52561103 0)
(151.10435 0.48745476 0)
(150.96824 0.44907043 0)
(150.84117 0.41064946 0)
(150.72311 0.3723692 0)
(150.61403 0.33439719 0)
(150.51384 0.29689577 0)
(150.42244 0.26002867 0)
(150.33974 0.22397564 0)
(150.26565 0.1889537 0)
(150.20014 0.15521312 0)
(150.14314 0.12298742 0)
(150.09448 0.092531987 0)
(150.05394 0.065456146 0)
(150.02313 0.040641424 0)
(150.00529 0.019345969 0)
(154.41764 -0.31234745 0)
(154.45791 -0.3044124 0)
(154.4863 -0.29709576 0)
(154.51349 -0.29028741 0)
(154.53899 -0.28396581 0)
(154.56307 -0.27817965 0)
(154.58596 -0.27301287 0)
(154.60787 -0.26856106 0)
(154.62902 -0.26491801 0)
(154.64962 -0.26216908 0)
(154.6699 -0.2603879 0)
(154.69007 -0.25963474 0)
(154.71038 -0.25995559 0)
(154.73105 -0.26138153 0)
(154.75231 -0.26392829 0)
(154.7744 -0.26759594 0)
(154.79755 -0.27236875 0)
(154.82198 -0.27821512 0)
(154.8479 -0.28508797 0)
(154.87551 -0.29292498 0)
(154.90499 -0.30164956 0)
(154.93651 -0.31117153 0)
(154.9702 -0.32138867 0)
(155.0062 -0.33218785 0)
(155.04458 -0.34344717 0)
(155.08543 -0.3550374 0)
(155.12878 -0.36682467 0)
(155.17464 -0.37867221 0)
(155.22299 -0.39044327 0)
(155.27379 -0.4020031 0)
(155.32697 -0.41322189 0)
(155.38241 -0.42397683 0)
(155.44001 -0.4341547 0)
(155.49962 -0.443654 0)
(155.56106 -0.45238662 0)
(155.62416 -0.46027992 0)
(155.68873 -0.46727746 0)
(155.75457 -0.4733403 0)
(155.82148 -0.4784469 0)
(155.88924 -0.48259329 0)
(155.95767 -0.48579197 0)
(156.02656 -0.4880708 0)
(156.09574 -0.48947085 0)
(156.16504 -0.49004397 0)
(156.23432 -0.48984961 0)
(156.30343 -0.48895124 0)
(156.37227 -0.48741234 0)
(156.44075 -0.48529197 0)
(156.50879 -0.48264025 0)
(156.57632 -0.47949366 0)
(156.64329 -0.47587049 0)
(156.70967 -0.47176647 0)
(156.7754 -0.46715087 0)
(156.84045 -0.46196321 0)
(156.90474 -0.45611071 0)
(156.96818 -0.44946674 0)
(157.03068 -0.44187039 0)
(157.09206 -0.43312731 0)
(157.15212 -0.42301182 0)
(157.21061 -0.41127065 0)
(157.2672 -0.3976279 0)
(157.32149 -0.38179166 0)
(157.37303 -0.36346184 0)
(157.42127 -0.34233931 0)
(157.46558 -0.31813603 0)
(157.50529 -0.29058595 0)
(157.53962 -0.2594564 0)
(157.56776 -0.22455948 0)
(157.58883 -0.1857639 0)
(157.60192 -0.14300228 0)
(157.60612 -0.096283628 0)
(157.6005 -0.045703654 0)
(157.58415 0.00855707 0)
(157.55621 0.066222206 0)
(157.51589 0.12692537 0)
(157.46249 0.19021205 0)
(157.39539 0.25554461 0)
(157.31416 0.32231127 0)
(157.21846 0.38983794 0)
(157.10816 0.45740288 0)
(156.98328 0.52425321 0)
(156.84403 0.58962322 0)
(156.69079 0.65275336 0)
(156.52415 0.71290919 0)
(156.34483 0.76939995 0)
(156.15375 0.82159554 0)
(155.95192 0.86894129 0)
(155.74052 0.91096946 0)
(155.52078 0.94730776 0)
(155.29404 0.97768442 0)
(155.06166 1.0019298 0)
(154.82502 1.0199749 0)
(154.58551 1.0318462 0)
(154.34447 1.0376587 0)
(154.10323 1.0376065 0)
(153.86301 1.0319517 0)
(153.625 1.0210128 0)
(153.39027 1.0051528 0)
(153.1598 0.984767 0)
(152.93449 0.9602717 0)
(152.71513 0.93209385 0)
(152.50241 0.90066166 0)
(152.29691 0.86639657 0)
(152.09914 0.82970656 0)
(151.90951 0.79098075 0)
(151.72836 0.75058566 0)
(151.55593 0.70886257 0)
(151.39242 0.66612595 0)
(151.23797 0.62266291 0)
(151.09265 0.57873375 0)
(150.9565 0.5345733 0)
(150.82951 0.49039348 0)
(150.71164 0.44638651 0)
(150.60285 0.40272889 0)
(150.50305 0.35958589 0)
(150.41214 0.31711849 0)
(150.33004 0.27549604 0)
(150.25669 0.234909 0)
(150.19206 0.19556087 0)
(150.13609 0.15764679 0)
(150.08873 0.12141421 0)
(150.04994 0.088509067 0)
(150.02112 0.057008673 0)
(150.00479 0.027881643 0)
(154.44414 -0.33284705 0)
(154.48395 -0.32357988 0)
(154.51199 -0.31494662 0)
(154.53885 -0.30691903 0)
(154.564 -0.29951166 0)
(154.58769 -0.29278277 0)
(154.61012 -0.28681722 0)
(154.6315 -0.28171067 0)
(154.65206 -0.27755845 0)
(154.67201 -0.27444901 0)
(154.69159 -0.27245975 0)
(154.71103 -0.27165471 0)
(154.73056 -0.27208288 0)
(154.75044 -0.27377709 0)
(154.77091 -0.27675329 0)
(154.7922 -0.28100986 0)
(154.81457 -0.28652747 0)
(154.83824 -0.29326879 0)
(154.86344 -0.30117893 0)
(154.89038 -0.3101857 0)
(154.91925 -0.32020065 0)
(154.95022 -0.33111984 0)
(154.98345 -0.34282566 0)
(155.01906 -0.35518805 0)
(155.05715 -0.36806694 0)
(155.0978 -0.38131401 0)
(155.14105 -0.39477561 0)
(155.18692 -0.4082949 0)
(155.23537 -0.42171512 0)
(155.28637 -0.4348819 0)
(155.33984 -0.4476466 0)
(155.39568 -0.45986877 0)
(155.45374 -0.47141905 0)
(155.51388 -0.48218167 0)
(155.57592 -0.49205644 0)
(155.63968 -0.50096103 0)
(155.70494 -0.50883201 0)
(155.77149 -0.51562622 0)
(155.83912 -0.52132082 0)
(155.90761 -0.52591338 0)
(155.97676 -0.52942076 0)
(156.04635 -0.53187776 0)
(156.11619 -0.53333475 0)
(156.18612 -0.5338548 0)
(156.25598 -0.53351005 0)
(156.32564 -0.53237759 0)
(156.39497 -0.53053475 0)
(156.46391 -0.52805399 0)
(156.53237 -0.52499763 0)
(156.6003 -0.5214123 0)
(156.66768 -0.51732364 0)
(156.73446 -0.51273114 0)
(156.80063 -0.50760349 0)
(156.86616 -0.50187464 0)
(156.93101 -0.49544074 0)
(156.99512 -0.48815818 0)
(157.05839 -0.47984297 0)
(157.1207 -0.47027152 0)
(157.18185 -0.45918304 0)
(157.24162 -0.44628365 0)
(157.29969 -0.43125215 0)
(157.35567 -0.41374756 0)
(157.4091 -0.39341818 0)
(157.45943 -0.3699122 0)
(157.50604 -0.34288953 0)
(157.54821 -0.31203452 0)
(157.58516 -0.27706926 0)
(157.61601 -0.23776724 0)
(157.63987 -0.19396641 0)
(157.65576 -0.14558005 0)
(157.66272 -0.092609295 0)
(157.65975 -0.035155298 0)
(157.64588 0.026580673 0)
(157.62019 0.092291781 0)
(157.58182 0.16156041 0)
(157.53 0.23386459 0)
(157.46407 0.30858413 0)
(157.38354 0.38501105 0)
(157.28803 0.4623635 0)
(157.17739 0.53980287 0)
(157.05161 0.61645319 0)
(156.91091 0.69142285 0)
(156.75569 0.76382698 0)
(156.58655 0.83281014 0)
(156.40426 0.89756817 0)
(156.20978 0.95736823 0)
(156.00419 1.0115661 0)
(155.78873 1.05962 0)
(155.56472 1.1011006 0)
(155.33355 1.1356964 0)
(155.09666 1.1632163 0)
(154.85551 1.1835862 0)
(154.61155 1.1968443 0)
(154.36619 1.2031311 0)
(154.1208 1.2026789 0)
(153.87667 1.1957983 0)
(153.63499 1.1828646 0)
(153.39689 1.1643032 0)
(153.16336 1.1405759 0)
(152.9353 1.1121673 0)
(152.7135 1.0795729 0)
(152.49866 1.043288 0)
(152.29136 1.0037989 0)
(152.09208 0.96157517 0)
(151.90122 0.91706334 0)
(151.71909 0.87068311 0)
(151.54593 0.82282422 0)
(151.38191 0.77384484 0)
(151.22714 0.7240712 0)
(151.08167 0.67379819 0)
(150.94553 0.62329091 0)
(150.81869 0.57278729 0)
(150.70111 0.52250126 0)
(150.5927 0.47262647 0)
(150.49339 0.42334052 0)
(150.40308 0.3748113 0)
(150.32168 0.32720611 0)
(150.24914 0.2806972 0)
(150.18543 0.23545322 0)
(150.1305 0.19163336 0)
(150.08437 0.14943857 0)
(150.04705 0.11052107 0)
(150.01973 0.072302051 0)
(150.00445 0.035725412 0)
(154.47626 -0.35450628 0)
(154.51559 -0.34399447 0)
(154.54325 -0.33414626 0)
(154.56971 -0.32498695 0)
(154.59443 -0.31656402 0)
(154.61763 -0.3089512 0)
(154.63951 -0.30224053 0)
(154.66027 -0.2965321 0)
(154.68014 -0.29192539 0)
(154.69935 -0.2885132 0)
(154.71813 -0.28637739 0)
(154.73672 -0.28558599 0)
(154.75538 -0.2861911 0)
(154.77436 -0.28822739 0)
(154.79392 -0.29171101 0)
(154.81432 -0.29663872 0)
(154.83581 -0.30298754 0)
(154.85863 -0.31071443 0)
(154.88302 -0.31975667 0)
(154.9092 -0.3300321 0)
(154.93738 -0.34144033 0)
(154.96775 -0.35386351 0)