/*--------------------------------*- C++ -*----------------------------------*\
| =========                 |                                                 |
| \\      /  F ield         | foam-extend: Open Source CFD                    |
|  \\    /   O peration     | Version:     4.1                                |
|   \\  /    A nd           | Web:         http://www.foam-extend.org         |
|    \\/     M anipulation  |                                                 |
\*---------------------------------------------------------------------------*/
FoamFile
{
    version     2.0;
    format      ascii;
    class       surfaceScalarField;
    location    "0.5";
    object      phi;
}
// * * * * * * * * * * * * * * * * * * * * * * * * * * * * * * * * * * * * * //

dimensions      [0 3 -1 0 0 0 0];

internalField   nonuniform List<scalar> 
32976
(
-0.24552728
2.3153628e-05
-0.24555052
2.3236169e-05
-0.24557394
2.3419394e-05
-0.24559765
2.3707346e-05
-0.24562175
2.4100511e-05
-0.24564635
2.460074e-05
-0.24567156
2.5209478e-05
-0.24569749
2.5929372e-05
-0.24572425
2.6762635e-05
-0.24575196
2.7712715e-05
-0.24578074
2.8782578e-05
-0.24581072
2.9976481e-05
-0.24584202
3.1298134e-05
-0.24587477
3.2752601e-05
-0.24590911
3.4344314e-05
-0.24594519
3.6079136e-05
-0.24598316
3.7962185e-05
-0.24602316
4.0000094e-05
-0.24606535
4.2198609e-05
-0.24610992
4.4565083e-05
-0.24615703
4.7105798e-05
-0.24620685
4.9828737e-05
-0.24625959
5.2740586e-05
-0.24631544
5.5849819e-05
-0.24637461
5.9163335e-05
-0.2464373
6.2689893e-05
-0.24650373
6.6436337e-05
-0.24657415
7.0411426e-05
-0.24664877
7.4621576e-05
-0.24672784
7.907515e-05
-0.24681162
8.3777649e-05
-0.24690036
8.8736137e-05
-0.24699431
9.3956025e-05
-0.24709375
9.9440508e-05
-0.24719895
0.00010519426
-0.24731016
0.00011121726
-0.24742768
0.00011751116
-0.24755175
0.0001240719
-0.24768264
0.00013089683
-0.24782062
0.0001379765
-0.24796592
0.00014530245
-0.24811878
0.00015285833
-0.24827941
0.00016062726
-0.24844799
0.00016858557
-0.2486247
0.0001767052
-0.24880965
0.00018495228
-0.24900294
0.00019328659
-0.2492046
0.00020166141
-0.24941462
0.00021002221
-0.24963293
0.00021830687
-0.24985937
0.00022644483
-0.25009373
0.00023435678
-0.25033568
0.00024195422
-0.25058482
0.00024913978
-0.25084063
0.00025580616
-0.25110247
0.00026183728
-0.25136958
0.00026710817
-0.25164106
0.00027148563
-0.25191589
0.00027482915
-0.25219288
0.00027699266
-0.25247071
0.0002778251
-0.25274788
0.00027717358
-0.25302277
0.0002748853
-0.25329358
0.00027081058
-0.25355838
0.00026480615
-0.25381512
0.00025673881
-0.25406161
0.00024649003
-0.25429557
0.00023395921
-0.25451464
0.00021906925
-0.25471641
0.00020177057
-0.25489846
0.00018204561
-0.25505837
0.00015991285
-0.2551938
0.00013543071
-0.2553025
0.00010869959
-0.25538237
7.9864372e-05
-0.25543148
4.9114724e-05
-0.25544817
1.668521e-05
-0.25543102
-1.714548e-05
-0.25537896
-5.2063274e-05
-0.25529123
-8.7722223e-05
-0.25516748
-0.00012374957
-0.25500773
-0.00015975384
-0.2548124
-0.0001953338
-0.25458231
-0.00023008787
-0.25431869
-0.00026362377
-0.25402312
-0.00029556798
-0.25369754
-0.00032557451
-0.25334421
-0.00035333276
-0.25296564
-0.00037857404
-0.25256456
-0.00040107644
-0.25214389
-0.00042066888
-0.25170666
-0.0004372311
-0.25125596
-0.00045069509
-0.25079492
-0.0004610426
-0.25032662
-0.00046830218
-0.24985407
-0.00047254497
-0.2493802
-0.00047387937
-0.24890775
-0.00047244636
-0.24843934
-0.00046841148
-0.24797738
-0.00046196078
-0.24752408
-0.00045329384
-0.24708146
-0.00044261845
-0.24665132
-0.00043014527
-0.24623524
-0.00041608419
-0.2458346
-0.00040063861
-0.24545059
-0.00038400399
-0.24508423
-0.00036636432
-0.24473634
-0.00034789035
-0.2444076
-0.00032873798
-0.24409855
-0.00030904811
-0.24380961
-0.00028894483
-0.24354107
-0.00026853677
-0.24329315
-0.0002479167
-0.24306599
-0.00022716226
-0.24285965
-0.00020633666
-0.24267416
-0.00018549008
-0.2425095
-0.00016465983
-0.24236563
-0.00014387242
-0.24224249
-0.00012314427
-0.24214
-0.00010248316
-0.24205812
-8.1889509e-05
-0.24199676
-6.1357779e-05
-0.24195588
-4.0876772e-05
-2.0430569e-05
-0.24553733
4.6260353e-05
-0.24556052
4.6426036e-05
-0.2455839
4.6792269e-05
-0.24560756
4.736772e-05
-0.24563161
4.81534e-05
-0.24565616
4.9153027e-05
-0.24568132
5.0369499e-05
-0.2457072
5.1808109e-05
-0.24573391
5.3473281e-05
-0.24576157
5.5371913e-05
-0.2457903
5.7509939e-05
-0.24582022
5.9895872e-05
-0.24585146
6.2537132e-05
-0.24588415
6.5443851e-05
-0.24591843
6.8624895e-05
-0.24595444
7.2091995e-05
-0.24599233
7.585539e-05
-0.24603226
7.9928355e-05
-0.24607439
8.4322392e-05
-0.24611887
8.9052213e-05
-0.2461659
9.4130401e-05
-0.24621564
9.9572933e-05
-0.24626829
0.00010539321
-0.24632405
0.00011160819
-0.24638312
0.00011823171
-0.24644571
0.00012528132
-0.24651205
0.00013277075
-0.24658235
0.00014071755
-0.24665687
0.00014913463
-0.24673583
0.00015803875
-0.24681949
0.00016744099
-0.24690811
0.00017735557
-0.24700195
0.00018779339
-0.24710127
0.00019876094
-0.24720634
0.00021026768
-0.24731744
0.00022231372
-0.24743483
0.00023490246
-0.24755879
0.00024802598
-0.24768957
0.00026167913
-0.24782744
0.00027584318
-0.24797263
0.00029050143
-0.2481254
0.00030562138
-0.24828594
0.0003211695
-0.24845445
0.00033709868
-0.2486311
0.00035335305
-0.24881601
0.00036986511
-0.24900928
0.00038655468
-0.24921095
0.00040332857
-0.249421
0.00042007793
-0.24963938
0.00043667873
-0.24986592
0.00045299005
-0.25010042
0.0004688534
-0.25034256
0.00048409188
-0.25059193
0.00049851073
-0.25084802
0.00051189532
-0.25111019
0.00052401332
-0.2513777
0.00053461445
-0.25164964
0.00054343196
-0.251925
0.00055018419
-0.25220259
0.0005545783
-0.25248107
0.00055631123
-0.25275897
0.00055507609
-0.25303465
0.00055056599
-0.25330632
0.00054248005
-0.25357205
0.0005305301
-0.25382976
0.00051444792
-0.25407726
0.00049399453
-0.25431227
0.00046896671
-0.25453241
0.00043920829
-0.25473526
0.00040461817
-0.25491837
0.00036515945
-0.25507932
0.00032086755
-0.25521575
0.00027185812
-0.25532538
0.00021833125
-0.2554061
0.00016057649
-0.25545595
9.8973736e-05
-0.25547326
3.3993275e-05
-0.2554566
-3.3807115e-05
-0.25540487
-0.00010379673
-0.25531731
-0.00017528051
-0.25519355
-0.00024750941
-0.25503361
-0.00031969666
-0.2548379
-0.0003910356
-0.25460727
-0.00046071894
-0.25434294
-0.00052795791
-0.25404651
-0.00059200161
-0.25371993
-0.0006521546
-0.25336547
-0.00070779275
-0.25298566
-0.00075837645
-0.25258328
-0.00080346034
-0.25216125
-0.00084270153
-0.25172262
-0.00087585945
-0.25127051
-0.00090279877
-0.25080807
-0.00092348426
-0.2503384
-0.00093797484
-0.24986453
-0.00094641494
-0.24938939
-0.00094902387
-0.24891575
-0.00094608616
-0.24844622
-0.00093793558
-0.24798324
-0.00092494682
-0.24752901
-0.00090752154
-0.24708555
-0.00088607757
-0.24665466
-0.00086103827
-0.24623792
-0.00083282518
-0.24583671
-0.00080184659
-0.24545222
-0.0007684946
-0.24508544
-0.00073313815
-0.24473721
-0.00069611935
-0.2444082
-0.00065775047
-0.24409894
-0.00061831353
-0.24380982
-0.00057805675
-0.24354116
-0.00053719727
-0.24329316
-0.00049592043
-0.24306594
-0.00045438118
-0.24285957
-0.00041270554
-0.24267407
-0.00037099339
-0.24250941
-0.00032931885
-0.24236555
-0.00028773441
-0.24224242
-0.00024627241
-0.24213995
-0.00020494783
-0.24205808
-0.00016376094
-0.24199674
-0.00012270008
-0.24195588
-8.1742426e-05
-4.0855791e-05
-0.24555674
6.927631e-05
-0.24557984
6.9524701e-05
-0.24560312
7.0073308e-05
-0.24562669
7.0935318e-05
-0.24565065
7.2112234e-05
-0.2456751
7.3609636e-05
-0.24570017
7.5431877e-05
-0.24572594
7.7586894e-05
-0.24575255
8.0081328e-05
-0.24578011
8.2925521e-05
-0.24580872
8.6128378e-05
-0.24583853
8.970267e-05
-0.24586965
9.3659533e-05
-0.24590222
9.8014168e-05
-0.24593638
0.00010277988
-0.24597226
0.00010797428
-0.24601002
0.00011361274
-0.24604981
0.00011971519
-0.24609178
0.0001262989
-0.24613612
0.00013338597
-0.24618298
0.0001409953
-0.24623256
0.00014915092
-0.24628504
0.00015787295
-0.24634062
0.00016718692
-0.2463995
0.00017711364
-0.2464619
0.00018767951
-0.24652803
0.00019890524
-0.24659813
0.00021081726
-0.24667243
0.00022343506
-0.24675118
0.00023678395
-0.24683462
0.00025088073
-0.24692301
0.00026574689
-0.24701661
0.00028139904
-0.2471157
0.00029784716
-0.24722054
0.0003151057
-0.2473314
0.00033317518
-0.24744856
0.00035206101
-0.24757228
0.00037175172
-0.24770284
0.00039223998
-0.2478405
0.00041349817
-0.2479855
0.00043550173
-0.24813808
0.00045820243
-0.24829846
0.00048155053
-0.24846684
0.00050547596
-0.24864338
0.0005298955
-0.24882823
0.00055470854
-0.24902147
0.0005797954
-0.24922315
0.00060501691
-0.24943329
0.00063021035
-0.2496518
0.00065519022
-0.24987855
0.00067974557
-0.25011334
0.00070363901
-0.25035585
0.0007266054
-0.2506057
0.00074835266
-0.25086236
0.00076855866
-0.25112522
0.00078687447
-0.25139353
0.00080292399
-0.2516664
0.00081630604
-0.25194282
0.00082659671
-0.25222159
0.00083335489
-0.2525014
0.00083612371
-0.25278077
0.00083444011
-0.25305804
0.0008278405
-0.25333143
0.00081586987
-0.25359899
0.00079809183
-0.25385865
0.00077409956
-0.25410818
0.00074352977
-0.25434529
0.00070607266
-0.25456757
0.00066148895
-0.25477257
0.00060962214
-0.25495783
0.00055041236
-0.25512087
0.00048390885
-0.25525929
0.00041028197
-0.25537079
0.00032982983
-0.2554532
0.00024298612
-0.25550455
0.00015032154
-0.2555231
5.2543788e-05
-0.2555074
-4.950758e-05
-0.25545631
-0.00015488009
-0.25536907
-0.00026252332
-0.25524527
-0.00037130489
-0.25508494
-0.00048003481
-0.25488848
-0.00058749269
-0.25465674
-0.00069245685
-0.25439097
-0.00079373373
-0.25409278
-0.00089018716
-0.25376417
-0.00098076528
-0.25340744
-0.0010645247
-0.25302516
-0.0011406502
-0.25262015
-0.0012084703
-0.25219539
-0.0012674688
-0.25175396
-0.0013172848
-0.25129904
-0.0013577173
-0.25083381
-0.0013887167
-0.25036141
-0.0014103762
-0.24988491
-0.0014229179
-0.24940725
-0.0014266771
-0.24893125
-0.0014220873
-0.24845953
-0.0014096559
-0.24799453
-0.0013899514
-0.24753847
-0.0013635826
-0.24709336
-0.0013311819
-0.24666101
-0.0012933894
-0.24624299
-0.0012508418
-0.24584068
-0.0012041553
-0.24545526
-0.0011539209
-0.2450877
-0.0011006942
-0.24473883
-0.0010449901
-0.2444093
-0.000987278
-0.24409964
-0.00092798138
-0.24381022
-0.00086747264
-0.24354134
-0.00080607722
-0.24329319
-0.00074407247
-0.24306588
-0.00068168999
-0.24285947
-0.00061911777
-0.24267396
-0.00055650444
-0.24250932
-0.00049395991
-0.24236549
-0.00043156158
-0.2422424
-0.00036935658
-0.24213999
-0.00030736598
-0.24205816
-0.00024558876
-0.24199685
-0.00018400604
-0.24195601
-0.00012258234
-6.1267901e-05
-0.245585
9.2156239e-05
-0.24560796
9.2486938e-05
-0.24563111
9.3217018e-05
-0.24565454
9.4364171e-05
-0.24567835
9.5930391e-05
-0.24570267
9.7923123e-05
-0.24572758
0.00010034818
-0.24575321
0.00010321613
-0.24577967
0.00010653584
-0.24580706
0.0001103211
-0.24583552
0.00011458379
-0.24586516
0.00011934093
-0.24589611
0.00012460738
-0.24592849
0.00013040341
-0.24596246
0.0001367468
-0.24599815
0.00014366102
-0.2460357
0.0001511666
-0.24607528
0.00015929015
-0.24611703
0.00016805474
-0.24616114
0.00017748989
-0.24620776
0.00018762087
-0.24625709
0.00019847977
-0.24630931
0.00021009354
-0.24636462
0.00022249631
-0.24642322
0.00023571597
-0.24648533
0.00024978789
-0.24655117
0.00026473983
-0.24662096
0.00028060729
-0.24669494
0.00029741646
-0.24677336
0.0003152014
-0.24685646
0.00033398482
-0.24694451
0.00035379575
-0.24703777
0.00037465673
-0.2471365
0.00039658158
-0.24724098
0.00041959007
-0.24735149
0.00044368348
-0.2474683
0.00046886967
-0.24759168
0.00049513409
-0.24772191
0.00052246773
-0.24785925
0.00055083463
-0.24800395
0.00058020293
-0.24815626
0.00061050935
-0.24831639
0.00064168858
-0.24848457
0.0006736483
-0.24866095
0.00070627869
-0.24884569
0.00073944673
-0.24903889
0.00077299401
-0.24924061
0.00080673612
-0.24945085
0.00084045716
-0.24966957
0.00087391076
-0.24989664
0.00090681653
-0.25013186
0.00093885859
-0.25037494
0.00096968381
-0.25062549
0.00099890286
-0.25088302
0.0010260859
-0.25114691
0.001050767
-0.25141643
0.0010724432
-0.2516907
0.0010905779
-0.25196871
0.001104603
-0.25224928
0.0011139272
-0.2525311
0.0011179368
-0.25281266
0.0011160094
-0.25309234
0.0011075207
-0.25336833
0.0010918573
-0.25363867
0.0010684295
-0.25390126
0.0010366865
-0.25415386
0.0009961347
-0.25439414
0.00094635184
-0.25461966
0.0008870094
-0.25482793
0.00081788957
-0.25501642
0.00073890402
-0.25518262
0.000650111
-0.25532407
0.00055173181
-0.2554384
0.0004441601
-0.25552339
0.00032797274
-0.255577
0.0002039321
-0.25559744
7.2985832e-05
-0.25558321
-6.3740031e-05
-0.25553313
-0.0002049639
-0.25544638
-0.00034927112
-0.25532255
-0.0004951353
-0.25516163
-0.00064095132
-0.25496405
-0.00078507227
-0.25473066
-0.0009258491
-0.25446272
-0.0010616706
-0.25416191
-0.0011910035
-0.25383024
-0.0013124288
-0.25347009
-0.0014246748
-0.2530841
-0.0015266444
-0.25267513
-0.0016174348
-0.25224625
-0.0016963547
-0.25180061
-0.0017629232
-0.25134145
-0.0018168756
-0.25087202
-0.0018581524
-0.2503955
-0.0018868864
-0.24991504
-0.0019033847
-0.24943361
-0.001908106
-0.24895406
-0.001901641
-0.24847903
-0.0018846788
-0.24801099
-0.0018579899
-0.24755218
-0.0018223976
-0.2471046
-0.001778756
-0.24667007
-0.001727928
-0.24625014
-0.0016707707
-0.24584618
-0.0016081124
-0.24545935
-0.0015407468
-0.24509063
-0.0014694189
-0.2447408
-0.001394818
-0.24441051
-0.001317572
-0.24410024
-0.0012382463
-0.24381038
-0.0011573377
-0.24354118
-0.0010752795
-0.24329281
-0.00099244014
-0.24306537
-0.00090912695
-0.2428589
-0.00082558856
-0.24267338
-0.00074202095
-0.24250878
-0.00065856826
-0.24236501
-0.00057533117
-0.24224199
-0.00049236996
-0.24213965
-0.0004097101
-0.24205789
-0.00032734758
-0.24199664
-0.00024525469
-0.24195584
-0.00016338162
-8.1659166e-05
-0.24562261
0.0001148551
-0.24564539
0.000115268
-0.24566835
0.00011617843
-0.24569159
0.00011760886
-0.24571522
0.00011956182
-0.24573935
0.00012204664
-0.24576407
0.00012507058
-0.2457895
0.00012864687
-0.24581575
0.00013278658
-0.24584294
0.00013750694
-0.24587118
0.0001428228
-0.24590059
0.00014875547
-0.24593131
0.00015532351
-0.24596346
0.0001625523
-0.24599717
0.00017046405
-0.2460326
0.00017908814
-0.24606988
0.0001884503
-0.24610918
0.00019858381
-0.24615064
0.00020951759
-0.24619444
0.00022128862
-0.24624075
0.00023392858
-0.24628974
0.00024747771
-0.24634162
0.00026196987
-0.24639657
0.00027744787
-0.2464548
0.0002939468
-0.24651653
0.0003115111
-0.24658196
0.00033017581
-0.24665134
0.00034998558
-0.2467249
0.00037097361
-0.24680288
0.00039318287
-0.24688554
0.0004166423
-0.24697313
0.00044138878
-0.24706592
0.00046745114
-0.24716419
0.00049484741
-0.2472682
0.00052360315
-0.24737824
0.00055372091
-0.24749458
0.00058521155
-0.24761751
0.00061805804
-0.24774729
0.00065225038
-0.2478842
0.00068774498
-0.2480285
0.00072450351
-0.24818044
0.00076244844
-0.24834025
0.00080149982
-0.24850815
0.00084154399
-0.24868431
0.00088244553
-0.24886891
0.00092404
-0.24906204
0.00096613128
-0.2492638
0.0010084907
-0.24947419
0.0010508501
-0.24969318
0.0010929031
-0.24992067
0.0011343006
-0.25015646
0.001174649
-0.25040028
0.0012135073
-0.25065177
0.0012503892
-0.25091044
0.001284757
-0.2511757
0.0013160269
-0.25144682
0.0013435683
-0.25172295
0.0013667073
-0.25200308
0.0013847297
-0.25228604
0.0013968905
-0.25257052
0.0014024163
-0.25285503
0.0014005204
-0.25313793
0.0013904131
-0.25341738
0.0013713161
-0.25369144
0.0013424799
-0.25395795
0.0013032023
-0.25421467
0.0012528519
-0.2544592
0.0011908854
-0.25468907
0.0011168769
-0.25490172
0.0010305392
-0.25509456
0.00093174799
-0.25526502
0.00082056387
-0.25541054
0.00069725389
-0.25552868
0.00056230367
-0.25561714
0.00041643191
-0.2556738
0.00026059365
-0.2556968
9.5980066e-05
-0.25568455
-7.5989843e-05
-0.25563582
-0.00025369553
-0.25554974
-0.00043534617
-0.25542587
-0.00061900692
-0.25526418
-0.00080264136
-0.25506509
-0.00098415876
-0.25482948
-0.001161465
-0.25455863
-0.0013325138
-0.25425428
-0.0014953583
-0.25391851
-0.0016481982
-0.25355376
-0.0017894215
-0.25316277
-0.0019176397
-0.25274849
-0.0020317131
-0.25231407
-0.0021307722
-0.25186278
-0.0022142164
-0.25139793
-0.0022817207
-0.25092286
-0.0023332214
-0.25044085
-0.002368899
-0.24995508
-0.0023891547
-0.24946861
-0.0023945814
-0.24898431
-0.0023859378
-0.24850488
-0.0023641061
-0.2480328
-0.0023300695
-0.24757032
-0.0022848761
-0.24711947
-0.0022296106
-0.24668203
-0.0021653672
-0.24625957
-0.0020932305
-0.24585344
-0.0020142469
-0.24546477
-0.0019294171
-0.24509451
-0.0018396791
-0.24474342
-0.0017458992
-0.24441213
-0.0016488652
-0.24410109
-0.0015492854
-0.24381065
-0.0014477807
-0.24354104
-0.0013448915
-0.2432924
-0.0012410767
-0.24306481
-0.0011367177
-0.24285828
-0.0010321219
-0.24267277
-0.00092753086
-0.24250821
-0.00082312076
-0.24236453
-0.00071901341
-0.24224162
-0.00061527999
-0.24213938
-0.00051194813
-0.24205772
-0.00040900857
-0.24199655
-0.00030642256
-0.24195581
-0.00020412377
-0.00010202114
-0.24566936
0.00013733024
-0.24569191
0.00013782365
-0.24571465
0.00013891272
-0.24573766
0.00014062402
-0.24576106
0.00014296052
-0.24578495
0.00014593336
-0.24580943
0.00014955129
-0.24583461
0.00015383015
-0.24586061
0.00015878325
-0.24588753
0.00016443125
-0.2459155
0.000170792
-0.24594464
0.00017789103
-0.24597506
0.00018575068
-0.24600691
0.00019440139
-0.24604032
0.00020386986
-0.24607542
0.0002141914
-0.24611237
0.00022539693
-0.24615131
0.00023752645
-0.24619241
0.00025061479
-0.24623583
0.00026470641
-0.24628174
0.00027983951
-0.24633032
0.00029606252
-0.24638177
0.00031341631
-0.24643627
0.00033195251
-0.24649404
0.00035171353
-0.24655528
0.00037275307
-0.24662022
0.0003951136
-0.24668908
0.0004188492
-0.24676211
0.00044400027
-0.24683954
0.00047061905
-0.24692164
0.00049874102
-0.24700867
0.00052841129
-0.24710088
0.00055966545
-0.24719856
0.00059252624
-0.24730198
0.00062702556
-0.24741143
0.00066316785
-0.24752718
0.00070096767
-0.24764953
0.00074040627
-0.24777876
0.00078147351
-0.24791513
0.00082411908
-0.24805893
0.00086829917
-0.2482104
0.00091392305
-0.2483698
0.00096089727
-0.24853734
0.001009088
-0.24871323
0.0010583355
-0.24889764
0.0011084451
-0.24909069
0.0011591843
-0.24929248
0.0012102813
-0.24950305
0.0012614171
-0.24972237
0.0013122263
-0.24995036
0.0013622922
-0.25018686
0.0014111438
-0.2504316
0.0014582534
-0.25068425
0.0015030375
-0.25094435
0.0015448502
-0.25121131
0.0015829896
-0.25148444
0.001616696
-0.25176288
0.0016451559
-0.25204566
0.0016675065
-0.25233162
0.0016828458
-0.25261944
0.0016902355
-0.25290763
0.0016887198
-0.25319456
0.0016773365
-0.25347838
0.0016551353
-0.2537571
0.0016211986
-0.25402856
0.0015746631
-0.25429045
0.0015147497
-0.25454035
0.0014407838
-0.25477571
0.0013522314
-0.25499389
0.0012487256
-0.25519224
0.0011300963
-0.25536808
0.0009963981
-0.25551876
0.00084793667
-0.25564174
0.00068528497
-0.25573461
0.00050930154
-0.25579515
0.0003211351
-0.2558214
0.00012222478
-0.25581168
-8.5709174e-05
-0.25576468
-0.00030069475
-0.25567947
-0.00052054986
-0.25555557
-0.00074291287
-0.25539291
-0.00096529535
-0.25519193
-0.0011851405
-0.25495351
-0.0013998862
-0.254679
-0.0016070291
-0.25437017
-0.0018041877
-0.2540292
-0.0019891616
-0.25365864
-0.0021599833
-0.25326132
-0.0023149611
-0.25284032
-0.0024527109
-0.25239891
-0.0025721814
-0.25194048
-0.0026726531
-0.25146845
-0.0027537449
-0.25098628
-0.0028153965
-0.25049733
-0.0028578463
-0.25000488
-0.002881602
-0.24951206
-0.0028874042
-0.2490218
-0.0028761938
-0.24853685
-0.0028490602
-0.24805971
-0.0028072132
-0.24759264
-0.0027519386
-0.24713769
-0.0026845637
-0.24669663
-0.0026064242
-0.24627102
-0.002518841
-0.24586218
-0.0024230858
-0.24547123
-0.0023203724
-0.24509907
-0.002211836
-0.24474645
-0.002098523
-0.24441393
-0.0019813827
-0.24410195
-0.0018612672
-0.24381081
-0.0017389213
-0.24354071
-0.0016149919
-0.24329176
-0.0014900267
-0.243064
-0.0013644792
-0.2428574
-0.0012387137
-0.24267192
-0.0011130145
-0.24250745
-0.00098758727
-0.24236389
-0.00086257222
-0.24224113
-0.00073804859
-0.24213903
-0.0006140433
-0.2420575
-0.00049053905
-0.24199644
-0.0003674833
-0.24195577
-0.0002447904
-0.00012234442
-0.24572542
0.00015953457
-0.24574771
0.0001601092
-0.24577017
0.00016137541
-0.24579291
0.0001633648
-0.24581603
0.00016608098
-0.24583963
0.00016953699
-0.24586383
0.00017374302
-0.24588871
0.00017871756
-0.24591441
0.00018447612
-0.24594102
0.00019104282
-0.24596866
0.00019843848
-0.24599747
0.0002066929
-0.24602755
0.00021583216
-0.24605904
0.00022589179
-0.24609207
0.00023690302
-0.24612679
0.00024890706
-0.24616333
0.00026194009
-0.24620185
0.00027604886
-0.24624251
0.00029127414
-0.24628547
0.00030766795
-0.24633091
0.00032527509
-0.246379
0.00034415227
-0.24642993
0.00036434749
-0.2464839
0.0003859213
-0.24654111
0.00040892366
-0.24660177
0.00043341766
-0.24666611
0.00045945346
-0.24673436
0.00048709481
-0.24680675
0.00051638967
-0.24688353
0.00054739984
-0.24696496
0.0005801678
-0.24705129
0.00061474733
-0.24714281
0.00065118129
-0.24723978
0.00068949774
-0.24734249
0.00072973558
-0.24745122
0.00077190191
-0.24756627
0.00081601579
-0.24768792
0.00086205772
-0.24781647
0.00091001835
-0.24795219
0.00095984183
-0.24809537
0.00101148
-0.24824628
0.0010648302
-0.24840517
0.0011197869
-0.24857228
0.0011761976
-0.24874782
0.0012338795
-0.24893199
0.0012926094
-0.24912492
0.00135212
-0.24932674
0.0014120979
-0.24953749
0.0014721745
-0.2497572
0.0015319271
-0.24998578
0.0015908724
-0.2502231
0.0016484633
-0.25046893
0.0017040856
-0.25072295
0.0017570593
-0.25098473
0.0018066303
-0.25125372
0.0018519772
-0.25152923
0.00189221
-0.25181045
0.0019263737
-0.2520964
0.0019534532
-0.25238594
0.0019723855
-0.25267776
0.0019820621
-0.25297039
0.0019813512
-0.25326217
0.0019691105
-0.25355124
0.0019442088
-0.25383559
0.0019055496
-0.25411303
0.0018520979
-0.25438119
0.0017829142
-0.25463759
0.00169718
-0.2548796
0.0015942401
-0.25510451
0.001473635
-0.25530955
0.0013351368
-0.25549193
0.0011787831
-0.2556489
0.0010049097
-0.25577779
0.00081417068
-0.25587605
0.00060756159
-0.25594134
0.00038642586
-0.25597157
0.0001524558
-0.25596496
-9.2317257e-05
-0.2559201
-0.00034555465
-0.25583599
-0.00060466452
-0.25571207
-0.0008668358
-0.25554826
-0.0011291024
-0.25534499
-0.0013884139
-0.25510316
-0.0016417121
-0.25482418
-0.0018860084
-0.25450991
-0.0021184611
-0.25416262
-0.0023364467
-0.25378498
-0.002537623
-0.25337996
-0.0027199809
-0.25295079
-0.0028818824
-0.25250088
-0.0030220905
-0.25203377
-0.0031397677
-0.25155303
-0.0032344827
-0.25106224
-0.0033061881
-0.25056489
-0.0033551931
-0.25006437
-0.0033821273
-0.24956387
-0.0033878956
-0.24906643
-0.003373639
-0.24857482
-0.0033406716
-0.24809158
-0.0032904467
-0.24761902
-0.0032245037
-0.24715916
-0.0031444269
-0.24671377
-0.0030518059
-0.24628441
-0.0029482086
-0.24587235
-0.002835141
-0.24547869
-0.0027140366
-0.24510429
-0.002586233
-0.24474985
-0.0024529601
-0.24441591
-0.002315331
-0.24410283
-0.002174342
-0.24381089
-0.0020308618
-0.24354024
-0.0018856427
-0.24329095
-0.0017393191
-0.24306301
-0.0015924144
-0.24285638
-0.0014453469
-0.24267095
-0.0012984406
-0.24250661
-0.0011519275
-0.24236322
-0.0010059627
-0.24224064
-0.00086063019
-0.24213873
-0.00071595268
-0.24205737
-0.00057190149
-0.24199644
-0.00042840691
-0.24195587
-0.00028536067
-0.00014261841
-0.2457903
0.00018142915
-0.24581227
0.00018208187
-0.24583442
0.00018352264
-0.24585684
0.00018578673
-0.24587964
0.00018887811
-0.24590291
0.00019281161
-0.24592677
0.00019759889
-0.24595131
0.00020326105
-0.24597665
0.00020981585
-0.2460029
0.00021729081
-0.24603017
0.00022570977
-0.24605858
0.00023510676
-0.24608826
0.00024551165
-0.24611934
0.00025696504
-0.24615194
0.00026950271
-0.2461862
0.0002831718
-0.24622227
0.00029801378
-0.24626031
0.00031408219
-0.24630046
0.00033142383
-0.24634289
0.00035009831
-0.24638777
0.00037015711
-0.24643528
0.00039166536
-0.24648561
0.00041467831
-0.24653896
0.00043926559
-0.24659552
0.00046548488
-0.24665551
0.00049340888
-0.24671915
0.00052309573
-0.24678668
0.00055461914
-0.24685832
0.00058803496
-0.24693434
0.00062341498
-0.24701498
0.00066080913
-0.24710051
0.00070028042
-0.24719121
0.00074187956
-0.24728735
0.00078564067
-0.24738923
0.00083161037
-0.24749713
0.00087979933
-0.24761134
0.00093023204
-0.24773217
0.00098288931
-0.24785992
0.0010377638
-0.24799487
0.0010947953
-0.24813733
0.0011539328
-0.24828756
0.0012150633
-0.24844584
0.0012780706
-0.24861243
0.0013427851
-0.24878755
0.0014090031
-0.24897142
0.0014764745
-0.2491642
0.0015448988
-0.24936602
0.0016139232
-0.24957698
0.0016831313
-0.2497971
0.0017520445
-0.25002634
0.0018201145
-0.2502646
0.0018867193
-0.25051167
0.0019511594
-0.25076727
0.0020126585
-0.25103099
0.0020703541
-0.25130232
0.0021233049
-0.2515806
0.0021704887
-0.25186503
0.0022108065
-0.25215467
0.0022430875
-0.25244838
0.0022661024
-0.25274489
0.0022785665
-0.2530427
0.0022791646
-0.25334015
0.002266565
-0.25363539
0.0022394448
-0.25392636
0.0021965168
-0.25421082
0.0021365606
-0.25448637
0.0020584619
-0.25475043
0.0019612429
-0.2550003
0.0018441115
-0.25523317
0.0017065
-0.25544614
0.001548108
-0.2556363
0.0013689428
-0.25580075
0.0011693593
-0.25593666
0.00095008492
-0.25604135
0.00071224851
-0.25611231
0.00045738895
-0.25614731
0.00018745757
-0.25614444
-9.519165e-05
-0.25610216
-0.00038783528
-0.25601937
-0.00068744967
-0.25589546
-0.000990747
-0.25573031
-0.0012942526
-0.25552434
-0.0015943891
-0.25527848
-0.0018875677
-0.25499421
-0.0021702812
-0.25467347
-0.002439196
-0.25431868
-0.0026912377
-0.25393264
-0.0029236665
-0.25351848
-0.0031341384
-0.25307961
-0.0033207508
-0.25261963
-0.0034820765
-0.25214223
-0.0036171613
-0.25165119
-0.0037255311
-0.25115021
-0.0038071632
-0.25064295
-0.0038624539
-0.2501329
-0.0038921731
-0.24962339
-0.003897411
-0.2491175
-0.0038795298
-0.24861808
-0.0038400895
-0.24812772
-0.0037808073
-0.24764873
-0.003703495
-0.24718314
-0.0036100109
-0.24673274
-0.0035022133
-0.24629901
-0.0033819299
-0.24588325
-0.0032509109
-0.24548646
-0.0031108176
-0.2451095
-0.0029631957
-0.244753
-0.0028094626
-0.24441743
-0.0026508972
-0.24410313
-0.0024886409
-0.24381031
-0.0023236857
-0.24353906
-0.0021568875
-0.24328942
-0.0019889655
-0.24306132
-0.0018205099
-0.24285468
-0.0016519895
-0.24266936
-0.0014837644
-0.2425052
-0.001316089
-0.24236203
-0.0011491294
-0.24223969
-0.00098297011
-0.24213802
-0.00081762579
-0.24205686
-0.00065305228
-0.24199611
-0.00048915888
-0.24195566
-0.00032581078
-0.00016283101
-0.24586444
0.00020296493
-0.24588606
0.00020369723
-0.24590785
0.00020531067
-0.24592991
0.00020784577
-0.24595234
0.00021130723
-0.24597524
0.00021571175
-0.24599871
0.00022107245
-0.24602286
0.00022741304
-0.2460478
0.00023475351
-0.24607363
0.00024312481
-0.24610048
0.00025255377
-0.24612845
0.00026307869
-0.24615767
0.00027473319
-0.24618827
0.00028756298
-0.24622037
0.0003016084
-0.24625412
0.00031692255
-0.24628966
0.00033355222
-0.24632714
0.0003515578
-0.24636671
0.00037099215
-0.24640853
0.00039192257
-0.24645278
0.00041440735
-0.24649964
0.00043852007
-0.24654928
0.00046432345
-0.24660191
0.00049189634
-0.24665773
0.00052130436
-0.24671695
0.00055263008
-0.2467798
0.00058593988
-0.2468465
0.00062131777
-0.24691729
0.00065882793
-0.24699243
0.00069855256
-0.24707217
0.0007405496
-0.24715678
0.00078489184
-0.24724654
0.0008316386
-0.24734173
0.00088083076
-0.24744264
0.0009325236
-0.24754957
0.0009867323
-0.24766283
0.0010434879
-0.24778271
0.0011027728
-0.24790953
0.0011645829
-0.24804359
0.0012288552
-0.2481852
0.0012955373
-0.24833464
0.0013645077
-0.24849221
0.0014356412
-0.24865818
0.0015087534
-0.2488328
0.0015836213
-0.24901629
0.0016599704
-0.24920886
0.0017374691
-0.24941067
0.0018157271
-0.24962182
0.0018942825
-0.24984238
0.0019726028
-0.25007234
0.0020500764
-0.25031163
0.0021260083
-0.25056008
0.0021996144
-0.25081745
0.002270023
-0.25108336
0.0023362631
-0.25135732
0.002397273
-0.25163873
0.0024518967
-0.25192681
0.0024988882
-0.25222064
0.0025369169
-0.25251912
0.0025645821
-0.25282097
0.002580416
-0.25312472
0.0025829107
-0.25342869
0.0025705352
-0.25373101
0.0025417626
-0.25402959
0.0024951009
-0.25432216
0.0024291285
-0.25460624
0.0023425398
-0.25487917
0.002234179
-0.25513816
0.0021030988
-0.25538027
0.0019486047
-0.25560246
0.0017703059
-0.25580168
0.0015681634
-0.25597486
0.0013425377
-0.256119
0.0010942199
-0.25623122
0.00082446689
-0.25630884
0.00053501331
-0.25634946
0.0002280759
-0.25635099
-9.3655686e-05
-0.25631178
-0.0004270522
-0.25623059
-0.00076863222
-0.25610674
-0.0011145987
-0.25594006
-0.0014609316
-0.25573097
-0.0018034867
-0.25548043
-0.0021381037
-0.25519
-0.0024607163
-0.25486173
-0.0027674615
-0.25449819
-0.0030547808
-0.25410234
-0.0033195092
-0.25367753
-0.0035589479
-0.25322737
-0.0037709166
-0.25275565
-0.0039537928
-0.25226631
-0.0041065083
-0.25176328
-0.004228555
-0.25125049
-0.0043199504
-0.25073175
-0.0043811967
-0.2502107
-0.0044132272
-0.24969077
-0.0044173416
-0.24917515
-0.004395149
-0.24866676
-0.0043484805
-0.24816822
-0.0042793413
-0.24768188
-0.0041898376
-0.24720977
-0.0040821215
-0.24675365
-0.0039583373
-0.24631499
-0.0038205869
-0.24589502
-0.003670876
-0.24549474
-0.0035111028
-0.24511491
-0.0033430275
-0.24475611
-0.0031682593
-0.24441876
-0.0029882449
-0.24410313
-0.0028042716
-0.24380936
-0.0026174536
-0.2435375
-0.0024287485
-0.24328751
-0.0022389573
-0.24305929
-0.0020487334
-0.24285268
-0.0018585921
-0.24266752
-0.0016689254
-0.24250361
-0.0014800055
-0.24236073
-0.0012920047
-0.2422387
-0.0011050035
-0.24213732
-0.00091900368
-0.24205643
-0.00073394114
-0.24199589
-0.00054969969
-0.24195559
-0.00036611358
-0.00018296847
-0.24594766
0.00022410658
-0.24596887
0.00022491416
-0.24599026
0.00022669691
-0.24601191
0.00022949868
-0.24603393
0.00023332445
-0.24605641
0.0002381927
-0.24607946
0.00024411802
-0.24610317
0.00025112671
-0.24612766
0.00025924099
-0.24615303
0.00026849522
-0.24617939
0.00027891924
-0.24620687
0.00029055558
-0.24623558
0.00030344168
-0.24626564
0.00031762833
-0.2462972
0.00033316045
-0.24633037
0.00035009713
-0.24636531
0.00036849054
-0.24640216
0.00038840792