/*--------------------------------*- C++ -*----------------------------------*\
| =========                 |                                                 |
| \\      /  F ield         | foam-extend: Open Source CFD                    |
|  \\    /   O peration     | Version:     4.1                                |
|   \\  /    A nd           | Web:         http://www.foam-extend.org         |
|    \\/     M anipulation  |                                                 |
\*---------------------------------------------------------------------------*/
FoamFile
{
    version     2.0;
    format      ascii;
    class       volVectorField;
    location    "0.5";
    object      U;
}
// * * * * * * * * * * * * * * * * * * * * * * * * * * * * * * * * * * * * * //

dimensions      [0 1 -1 0 0 0 0];

internalField   nonuniform List<vector> 
16796
(
(152.21595 -0.0047373289 0)
(152.23432 -0.0047543455 0)
(152.24854 -0.0047922487 0)
(152.26315 -0.0048517841 0)
(152.27795 -0.0049331315 0)
(152.29303 -0.0050365917 0)
(152.30845 -0.0051625479 0)
(152.32429 -0.0053114628 0)
(152.34061 -0.0054838819 0)
(152.35748 -0.005680429 0)
(152.37497 -0.0059018117 0)
(152.39316 -0.0061488141 0)
(152.41214 -0.0064223047 0)
(152.43197 -0.0067232267 0)
(152.45275 -0.0070526066 0)
(152.47456 -0.0074115428 0)
(152.49749 -0.0078012143 0)
(152.52163 -0.0082228666 0)
(152.54709 -0.0086778212 0)
(152.57396 -0.0091674576 0)
(152.60234 -0.0096932231 0)
(152.63236 -0.01025661 0)
(152.66413 -0.010859166 0)
(152.69776 -0.011502466 0)
(152.73338 -0.012188119 0)
(152.77112 -0.012917736 0)
(152.81112 -0.013692937 0)
(152.8535 -0.014515305 0)
(152.89842 -0.015386396 0)
(152.94603 -0.016307681 0)
(152.99648 -0.017280551 0)
(153.04991 -0.018306251 0)
(153.10651 -0.019385874 0)
(153.16642 -0.020520303 0)
(153.22981 -0.021710155 0)
(153.29686 -0.022955754 0)
(153.36772 -0.024257039 0)
(153.44257 -0.02561354 0)
(153.52157 -0.027024256 0)
(153.60489 -0.02848763 0)
(153.69267 -0.030001411 0)
(153.78507 -0.031562615 0)
(153.88222 -0.033167374 0)
(153.98425 -0.034810875 0)
(154.09127 -0.036487229 0)
(154.20337 -0.038189363 0)
(154.32062 -0.039908905 0)
(154.44306 -0.041636072 0)
(154.5707 -0.043359557 0)
(154.70351 -0.045066421 0)
(154.84142 -0.046742 0)
(154.98432 -0.048369818 0)
(155.13204 -0.04993153 0)
(155.28437 -0.051406879 0)
(155.441 -0.052773695 0)
(155.6016 -0.054007925 0)
(155.76571 -0.055083715 0)
(155.93285 -0.055973543 0)
(156.10239 -0.05664842 0)
(156.27367 -0.057078152 0)
(156.4459 -0.057231689 0)
(156.61821 -0.057077552 0)
(156.78963 -0.056584344 0)
(156.9591 -0.055721351 0)
(157.12547 -0.054459231 0)
(157.28749 -0.05277078 0)
(157.44385 -0.050631762 0)
(157.59316 -0.048021798 0)
(157.73397 -0.044925285 0)
(157.86481 -0.041332311 0)
(157.98417 -0.037239546 0)
(158.09053 -0.032651063 0)
(158.18243 -0.027579043 0)
(158.25843 -0.022044305 0)
(158.31717 -0.016076645 0)
(158.35741 -0.0097149457 0)
(158.37801 -0.0030071384 0)
(158.37802 0.0039902634 0)
(158.35666 0.011213636 0)
(158.31337 0.018591409 0)
(158.24779 0.026046237 0)
(158.15982 0.033496851 0)
(158.0496 0.040859904 0)
(157.91751 0.04805194 0)
(157.7642 0.054991406 0)
(157.59053 0.061600623 0)
(157.39762 0.067807628 0)
(157.18676 0.073547818 0)
(156.95944 0.078765315 0)
(156.71729 0.083414015 0)
(156.46207 0.087458274 0)
(156.19564 0.09087325 0)
(155.91991 0.093644859 0)
(155.63679 0.095769424 0)
(155.34823 0.09725303 0)
(155.05613 0.09811063 0)
(154.76231 0.098364985 0)
(154.46856 0.098045463 0)
(154.17653 0.097186788 0)
(153.88778 0.095827765 0)
(153.60375 0.094010043 0)
(153.32575 0.09177695 0)
(153.05495 0.089172421 0)
(152.79241 0.086240055 0)
(152.53905 0.083022293 0)
(152.29567 0.079559748 0)
(152.06293 0.07589066 0)
(151.84141 0.072050485 0)
(151.63158 0.068071605 0)
(151.4338 0.063983148 0)
(151.24838 0.059810903 0)
(151.07553 0.055577319 0)
(150.91542 0.051301573 0)
(150.76813 0.046999688 0)
(150.63374 0.042684704 0)
(150.51228 0.038366879 0)
(150.40374 0.034053905 0)
(150.30811 0.029751155 0)
(150.22537 0.025461933 0)
(150.15543 0.021187738 0)
(150.09817 0.01692855 0)
(150.05355 0.01268307 0)
(150.02216 0.0084488613 0)
(150.00495 0.0042224941 0)
(152.22221 -0.014403513 0)
(152.24053 -0.014454853 0)
(152.25473 -0.014568593 0)
(152.26931 -0.014747114 0)
(152.28408 -0.014990967 0)
(152.29913 -0.015301056 0)
(152.31453 -0.015678528 0)
(152.33033 -0.01612477 0)
(152.34661 -0.016641414 0)
(152.36345 -0.017230328 0)
(152.38091 -0.017893632 0)
(152.39907 -0.018633674 0)
(152.41801 -0.019453057 0)
(152.43781 -0.020354605 0)
(152.45855 -0.021341396 0)
(152.48031 -0.022416721 0)
(152.5032 -0.023584116 0)
(152.5273 -0.024847314 0)
(152.55271 -0.026210279 0)
(152.57953 -0.02767715 0)
(152.60787 -0.029252271 0)
(152.63784 -0.030940122 0)
(152.66955 -0.03274535 0)
(152.70313 -0.034672686 0)
(152.73869 -0.036726972 0)
(152.77637 -0.038913052 0)
(152.8163 -0.041235803 0)
(152.85862 -0.043700001 0)
(152.90348 -0.046310337 0)
(152.95102 -0.049071261 0)
(153.00139 -0.051986987 0)
(153.05476 -0.055061302 0)
(153.11128 -0.058297538 0)
(153.17112 -0.061698418 0)
(153.23444 -0.065265867 0)
(153.30141 -0.069000957 0)
(153.3722 -0.072903611 0)
(153.44697 -0.076972533 0)
(153.5259 -0.081204866 0)
(153.60915 -0.085596091 0)
(153.69686 -0.09013963 0)
(153.7892 -0.094826721 0)
(153.88629 -0.099645972 0)
(153.98827 -0.10458318 0)
(154.09526 -0.10962092 0)
(154.20733 -0.11473824 0)
(154.32456 -0.11991031 0)
(154.44699 -0.12510807 0)
(154.57464 -0.13029791 0)
(154.70748 -0.13544132 0)
(154.84544 -0.14049459 0)
(154.98841 -0.1454086 0)
(155.13624 -0.15012858 0)
(155.28869 -0.15459398 0)
(155.44549 -0.15873848 0)
(155.60627 -0.16249006 0)
(155.77062 -0.16577119 0)
(155.93801 -0.16849927 0)
(156.10787 -0.17058718 0)
(156.27949 -0.17194407 0)
(156.45211 -0.17247639 0)
(156.62485 -0.17208913 0)
(156.79675 -0.1706874 0)
(156.96673 -0.16817822 0)
(157.13365 -0.16447257 0)
(157.29626 -0.15948771 0)
(157.45323 -0.15314974 0)
(157.60318 -0.14539624 0)
(157.74466 -0.13617916 0)
(157.87616 -0.12546754 0)
(157.99618 -0.11325035 0)
(158.10321 -0.099538958 0)
(158.19574 -0.084369403 0)
(158.27235 -0.067804069 0)
(158.33164 -0.049932817 0)
(158.37237 -0.030873445 0)
(158.3934 -0.01077166 0)
(158.39375 0.010200173 0)
(158.37265 0.031847324 0)
(158.32951 0.053955075 0)
(158.26398 0.076292508 0)
(158.17595 0.098617113 0)
(158.06555 0.12068028 0)
(157.93318 0.14223316 0)
(157.77948 0.16303259 0)
(157.60532 0.182847 0)
(157.41183 0.20146184 0)
(157.2003 0.21868445 0)
(156.97224 0.23434813 0)
(156.72931 0.24831522 0)
(156.47326 0.26047914 0)
(156.20597 0.27076543 0)
(155.92936 0.27913159 0)
(155.64538 0.28556607 0)
(155.35596 0.29008635 0)
(155.06301 0.2927363 0)
(154.76839 0.29358304 0)
(154.47387 0.29271344 0)
(154.18113 0.29023032 0)
(153.89172 0.28624875 0)
(153.60708 0.28089237 0)
(153.32852 0.27428988 0)
(153.05724 0.26657194 0)
(152.79427 0.25786828 0)
(152.54053 0.2483053 0)
(152.29681 0.23800406 0)
(152.0638 0.22707863 0)
(151.84205 0.21563487 0)
(151.63203 0.20376955 0)
(151.4341 0.19156981 0)
(151.24856 0.17911288 0)
(151.07562 0.16646606 0)
(150.91544 0.15368693 0)
(150.76811 0.14082368 0)
(150.6337 0.12791563 0)
(150.51222 0.11499377 0)
(150.40368 0.10208149 0)
(150.30805 0.089195213 0)
(150.22532 0.076345224 0)
(150.1554 0.063536413 0)
(150.09814 0.050769139 0)
(150.05353 0.038039975 0)
(150.02215 0.025342155 0)
(150.00495 0.012665962 0)
(152.23419 -0.023838151 0)
(152.25244 -0.023923553 0)
(152.26658 -0.024112683 0)
(152.2811 -0.024409666 0)
(152.29582 -0.024815424 0)
(152.31081 -0.025331468 0)
(152.32614 -0.025959713 0)
(152.34189 -0.026702468 0)
(152.35811 -0.027562454 0)
(152.37488 -0.028542784 0)
(152.39228 -0.029646987 0)
(152.41037 -0.03087898 0)
(152.42923 -0.032243097 0)
(152.44896 -0.033744047 0)
(152.46962 -0.035386958 0)
(152.49131 -0.037177315 0)
(152.51411 -0.039121009 0)
(152.53813 -0.041224267 0)
(152.56345 -0.043493693 0)
(152.59018 -0.045936189 0)
(152.61842 -0.048558993 0)
(152.64829 -0.051369579 0)
(152.67989 -0.054375694 0)
(152.71336 -0.05758523 0)
(152.74881 -0.061006259 0)
(152.78637 -0.064646868 0)
(152.82618 -0.068515191 0)
(152.86838 -0.0726192 0)
(152.9131 -0.076966728 0)
(152.96051 -0.081565209 0)
(153.01074 -0.086421684 0)
(153.06397 -0.091542486 0)
(153.12035 -0.096933198 0)
(153.18004 -0.10259839 0)
(153.24321 -0.10854129 0)
(153.31004 -0.11476374 0)
(153.38068 -0.12126565 0)
(153.45532 -0.1280449 0)
(153.53411 -0.13509679 0)
(153.61721 -0.14241384 0)
(153.7048 -0.14998516 0)
(153.79702 -0.15779622 0)
(153.89401 -0.16582809 0)
(153.9959 -0.17405719 0)
(154.1028 -0.18245456 0)
(154.21482 -0.19098537 0)
(154.33202 -0.19960832 0)
(154.45445 -0.20827507 0)
(154.58213 -0.21692968 0)
(154.71503 -0.22550803 0)
(154.8531 -0.23393738 0)
(154.99623 -0.24213587 0)
(155.14426 -0.25001227 0)
(155.29697 -0.25746568 0)
(155.45409 -0.26438553 0)
(155.61526 -0.2706517 0)
(155.78007 -0.27613488 0)
(155.948 -0.28069721 0)
(156.11847 -0.28419324 0)
(156.29079 -0.28647121 0)
(156.46419 -0.28737478 0)
(156.63779 -0.28674511 0)
(156.81064 -0.28442341 0)
(156.98165 -0.28025397 0)
(157.14967 -0.27408759 0)
(157.31346 -0.26578542 0)
(157.47167 -0.25522326 0)
(157.6229 -0.24229597 0)
(157.76569 -0.22692228 0)
(157.89854 -0.20904944 0)
(158.0199 -0.18865788 0)
(158.12824 -0.1657655 0)
(158.22204 -0.14043141 0)
(158.29985 -0.11275884 0)
(158.36026 -0.082897129 0)
(158.40198 -0.051042546 0)
(158.42386 -0.017438248 0)
(158.4249 0.017627687 0)
(158.4043 0.053828866 0)
(158.36146 0.090805136 0)
(158.29602 0.12816842 0)
(158.20785 0.16551106 0)
(158.0971 0.20241511 0)
(157.96415 0.23846217 0)
(157.80965 0.27324353 0)
(157.6345 0.30637005 0)
(157.43983 0.3374814 0)
(157.22696 0.36625428 0)
(156.99743 0.39240926 0)
(156.7529 0.41571598 0)
(156.49519 0.43599656 0)
(156.22618 0.45312727 0)
(155.94782 0.46703827 0)
(155.66209 0.4777118 0)
(155.37096 0.4851789 0)
(155.07634 0.48951493 0)
(154.78013 0.4908342 0)
(154.4841 0.48928396 0)
(154.18994 0.48503814 0)
(153.89922 0.47829097 0)
(153.61338 0.46925077 0)
(153.33375 0.45813418 0)
(153.06151 0.44516075 0)
(152.79769 0.43054831 0)
(152.54321 0.41450882 0)
(152.29887 0.39724507 0)
(152.06533 0.37894797 0)
(151.84314 0.35979447 0)
(151.63276 0.33994618 0)
(151.43455 0.31954844 0)
(151.2488 0.29872991 0)
(151.0757 0.27760259 0)
(150.9154 0.25626214 0)
(150.768 0.23478847 0)
(150.63355 0.21324664 0)
(150.51206 0.19168779 0)
(150.40352 0.17015031 0)
(150.30791 0.14866101 0)
(150.2252 0.12723641 0)
(150.15531 0.10588402 0)
(150.09808 0.084603811 0)
(150.0535 0.063389448 0)
(150.02214 0.042229087 0)
(150.00495 0.021105889 0)
(152.25187 -0.033430438 0)
(152.27002 -0.033550285 0)
(152.28407 -0.033815072 0)
(152.29851 -0.034230615 0)
(152.31314 -0.034798198 0)
(152.32804 -0.035519943 0)
(152.34328 -0.036398534 0)
(152.35894 -0.037437203 0)
(152.37506 -0.038639766 0)
(152.39174 -0.040010582 0)
(152.40903 -0.041554597 0)
(152.42702 -0.043277299 0)
(152.44578 -0.04518476 0)
(152.4654 -0.047283583 0)
(152.48595 -0.049580955 0)
(152.50751 -0.052084567 0)
(152.5302 -0.054802683 0)
(152.55408 -0.057744033 0)
(152.57927 -0.060917888 0)
(152.60586 -0.064333933 0)
(152.63395 -0.068002333 0)
(152.66367 -0.071933584 0)
(152.69512 -0.076138576 0)
(152.72842 -0.080628404 0)
(152.7637 -0.085414425 0)
(152.80109 -0.090508025 0)
(152.84071 -0.095920667 0)
(152.88272 -0.1016636 0)
(152.92725 -0.10774788 0)
(152.97446 -0.11418403 0)
(153.02449 -0.12098204 0)
(153.0775 -0.12815091 0)
(153.13367 -0.13569861 0)
(153.19314 -0.14363172 0)
(153.2561 -0.15195497 0)
(153.3227 -0.16067112 0)
(153.39313 -0.16978031 0)
(153.46754 -0.17927983 0)
(153.54612 -0.18916336 0)
(153.62903 -0.19942076 0)
(153.71642 -0.21003708 0)
(153.80846 -0.22099233 0)
(153.90529 -0.23226038 0)
(154.00704 -0.24380857 0)
(154.11383 -0.25559675 0)
(154.22576 -0.26757653 0)
(154.34292 -0.27969048 0)
(154.46534 -0.29187129 0)
(154.59306 -0.30404097 0)
(154.72606 -0.31611008 0)
(154.86429 -0.32797699 0)
(155.00765 -0.33952731 0)
(155.15599 -0.35063337 0)
(155.3091 -0.3611539 0)
(155.4667 -0.37093394 0)
(155.62846 -0.37980499 0)
(155.79396 -0.3875855 0)
(155.9627 -0.39408176 0)
(156.13409 -0.39908918 0)
(156.30746 -0.40239411 0)
(156.48204 -0.40377617 0)
(156.65695 -0.40301125 0)
(156.83123 -0.39987502 0)
(157.00379 -0.39414718 0)
(157.17349 -0.3856163 0)
(157.33904 -0.37408528 0)
(157.49912 -0.3593773 0)
(157.6523 -0.34134221 0)
(157.79708 -0.31986326 0)
(157.93195 -0.29486373 0)
(158.05533 -0.26631363 0)
(158.16567 -0.23423574 0)
(158.2614 -0.19871106 0)
(158.34103 -0.15988296 0)
(158.40312 -0.11796012 0)
(158.44636 -0.073217691 0)
(158.46953 -0.025997147 0)
(158.47162 0.023296495 0)
(158.45179 0.074202601 0)
(158.40942 0.12621249 0)
(158.34412 0.17877808 0)
(158.25577 0.23132327 0)
(158.14448 0.28325711 0)
(158.01067 0.33398783 0)
(157.85498 0.38293729 0)
(157.67834 0.42955503 0)
(157.48189 0.47333149 0)
(157.26701 0.51380973 0)
(157.03525 0.55059511 0)
(156.78834 0.58336273 0)
(156.52811 0.61186223 0)
(156.2565 0.63592012 0)
(155.97552 0.65543932 0)
(155.68716 0.67039656 0)
(155.39344 0.6808376 0)
(155.09632 0.68687086 0)
(154.7977 0.68865965 0)
(154.4994 0.68641367 0)
(154.20311 0.68038004 0)
(153.91042 0.67083422 0)
(153.62279 0.65807128 0)
(153.34154 0.64239759 0)
(153.06785 0.62412339 0)
(152.80277 0.60355604 0)
(152.54719 0.58099436 0)
(152.3019 0.55672395 0)
(152.06757 0.53101336 0)
(151.84472 0.50411131 0)
(151.63381 0.47624468 0)
(151.43519 0.44761733 0)
(151.24911 0.41840951 0)
(151.07577 0.38877794 0)
(150.91531 0.3588563 0)
(150.76781 0.32875611 0)
(150.6333 0.29856797 0)
(150.51179 0.26836294 0)
(150.40326 0.23819414 0)
(150.30768 0.20809849 0)
(150.22502 0.17809843 0)
(150.15517 0.14820382 0)
(150.09799 0.11841389 0)
(150.05344 0.088719094 0)
(150.02212 0.059102193 0)
(150.00494 0.029538789 0)
(152.27527 -0.042752754 0)
(152.29327 -0.042906098 0)
(152.30722 -0.043245214 0)
(152.32154 -0.043777696 0)
(152.33605 -0.044505204 0)
(152.35084 -0.04543047 0)
(152.36597 -0.046556942 0)
(152.3815 -0.047888774 0)
(152.3975 -0.049430867 0)
(152.41405 -0.051188823 0)
(152.43121 -0.053169 0)
(152.44906 -0.055378448 0)
(152.46768 -0.057824976 0)
(152.48715 -0.060517071 0)
(152.50755 -0.063463976 0)
(152.52896 -0.066675585 0)
(152.55147 -0.070162525 0)
(152.57519 -0.073936036 0)
(152.6002 -0.078008048 0)
(152.6266 -0.082391031 0)
(152.6545 -0.087098083 0)
(152.68402 -0.092142725 0)
(152.71526 -0.097539 0)
(152.74834 -0.10330122 0)
(152.7834 -0.10944404 0)
(152.82055 -0.11598218 0)
(152.85993 -0.12293045 0)
(152.90169 -0.13030342 0)
(152.94596 -0.13811542 0)
(152.9929 -0.1463801 0)
(153.04265 -0.15511047 0)
(153.09539 -0.16431827 0)
(153.15127 -0.17401397 0)
(153.21045 -0.18420624 0)
(153.27312 -0.19490143 0)
(153.33943 -0.2061034 0)
(153.40956 -0.21781262 0)
(153.48369 -0.230026 0)
(153.56199 -0.24273581 0)
(153.64463 -0.25592944 0)
(153.73176 -0.26958815 0)
(153.82356 -0.28368674 0)
(153.92017 -0.29819217 0)
(154.02173 -0.31306303 0)
(154.12837 -0.32824829 0)
(154.24019 -0.34368635 0)
(154.35728 -0.359304 0)
(154.47969 -0.3750153 0)
(154.60747 -0.39072059 0)
(154.7406 -0.40630541 0)
(154.87904 -0.4216396 0)
(155.0227 -0.43657648 0)
(155.17144 -0.45095215 0)
(155.32506 -0.46458511 0)
(155.48331 -0.47727602 0)
(155.64585 -0.48880791 0)
(155.81226 -0.49894677 0)
(155.98208 -0.50744257 0)
(156.1547 -0.51403096 0)
(156.32947 -0.51843552 0)
(156.50562 -0.52037075 0)
(156.68227 -0.51954584 0)
(156.85845 -0.51566926 0)
(157.03309 -0.50845415 0)
(157.20502 -0.49762465 0)
(157.37295 -0.48292289 0)
(157.53553 -0.46411677 0)
(157.6913 -0.44100832 0)
(157.83877 -0.4134424 0)
(157.97635 -0.38131556 0)
(158.10245 -0.3445847 0)
(158.21546 -0.30327521 0)
(158.31379 -0.25748814 0)
(158.39588 -0.20740586 0)
(158.46024 -0.15329602 0)
(158.50551 -0.095513276 0)
(158.53043 -0.034499018 0)
(158.53393 0.029222032 0)
(158.51515 0.095051804 0)
(158.47341 0.16232928 0)
(158.40831 0.23034088 0)
(158.3197 0.29833604 0)
(158.2077 0.36554441 0)
(158.07273 0.43119441 0)
(157.91544 0.49453223 0)
(157.73679 0.55484036 0)
(157.53796 0.61145499 0)
(157.32037 0.66378144 0)
(157.08562 0.71130687 0)
(156.83549 0.75361001 0)
(156.57189 0.79036742 0)
(156.2968 0.82135633 0)
(156.01229 0.84645403 0)
(155.72041 0.86563422 0)
(155.42323 0.87896066 0)
(155.12275 0.88657856 0)
(154.82092 0.88870441 0)
(154.51957 0.88561465 0)
(154.22044 0.87763389 0)
(153.92513 0.86512298 0)
(153.63512 0.84846759 0)
(153.35172 0.82806738 0)
(153.07611 0.8043263 0)
(152.80934 0.77764391 0)
(152.55231 0.74840803 0)
(152.30578 0.71698873 0)
(152.0704 0.68373347 0)
(151.8467 0.64896354 0)
(151.63509 0.61297159 0)
(151.43592 0.57602011 0)
(151.24943 0.53834083 0)
(151.07579 0.50013481 0)
(150.91513 0.46157324 0)
(150.7675 0.42279853 0)
(150.63292 0.38392603 0)
(150.5114 0.34504586 0)
(150.40289 0.30622494 0)
(150.30736 0.26750933 0)
(150.22475 0.22892644 0)
(150.15497 0.19048751 0)
(150.09786 0.15219008 0)
(150.05337 0.1140205 0)
(150.02208 0.075955225 0)
(150.00494 0.03796135 0)
(152.30436 -0.052193322 0)
(152.32219 -0.052380866 0)
(152.33599 -0.052794895 0)
(152.35017 -0.053444658 0)
(152.36454 -0.054332172 0)
(152.37919 -0.055460778 0)
(152.39416 -0.056834693 0)
(152.40954 -0.058458997 0)
(152.42539 -0.060339684 0)
(152.44178 -0.062483605 0)
(152.45878 -0.064898535 0)
(152.47646 -0.0675931 0)
(152.4949 -0.070576852 0)
(152.51419 -0.073860178 0)
(152.53439 -0.077454391 0)
(152.55561 -0.081371603 0)
(152.57792 -0.085624831 0)
(152.60142 -0.090227842 0)
(152.62621 -0.09519526 0)
(152.65238 -0.10054237 0)
(152.68004 -0.10628525 0)
(152.70931 -0.11244048 0)
(152.74029 -0.11902531 0)
(152.7731 -0.12605734 0)
(152.80787 -0.1335546 0)
(152.84473 -0.1415352 0)
(152.88381 -0.1500174 0)
(152.92525 -0.1590192 0)
(152.9692 -0.16855831 0)
(153.0158 -0.17865166 0)
(153.06522 -0.18931542 0)
(153.1176 -0.20056425 0)
(153.17312 -0.21241128 0)
(153.23195 -0.22486751 0)
(153.29424 -0.23794113 0)
(153.36019 -0.25163734 0)
(153.42996 -0.26595725 0)
(153.50373 -0.28089765 0)
(153.58167 -0.29644977 0)
(153.66396 -0.31259885 0)
(153.75078 -0.32932276 0)
(153.84227 -0.34659148 0)
(153.93861 -0.36436548 0)
(154.03993 -0.38259502 0)
(154.14637 -0.40121865 0)
(154.25804 -0.420162 0)
(154.37504 -0.43933653 0)
(154.49744 -0.4586381 0)
(154.62528 -0.47794576 0)
(154.75856 -0.4971204 0)
(154.89726 -0.51600362 0)
(155.04129 -0.53441663 0)
(155.19053 -0.55215945 0)
(155.3448 -0.56901027 0)
(155.50385 -0.58472522 0)
(155.66735 -0.59903846 0)
(155.83491 -0.61166288 0)
(156.00606 -0.62229131 0)
(156.18023 -0.63059848 0)
(156.35674 -0.63624373 0)
(156.53485 -0.63887461 0)
(156.71368 -0.63813148 0)
(156.89226 -0.63365306 0)
(157.06951 -0.62508308 0)
(157.24424 -0.61207799 0)
(157.41516 -0.59431563 0)
(157.58088 -0.57150491 0)
(157.73994 -0.54339608 0)
(157.89078 -0.5097917 0)
(158.03179 -0.4705577 0)
(158.16133 -0.42563426 0)
(158.27773 -0.37504615 0)
(158.37934 -0.31891187 0)
(158.46455 -0.25745095 0)
(158.53179 -0.19098915 0)
(158.57964 -0.11996081 0)
(158.60679 -0.044908679 0)
(158.61209 0.033519989 0)
(158.59464 0.11458458 0)
(158.55371 0.19746536 0)
(158.48888 0.2812766 0)
(158.39996 0.36508564 0)
(158.28707 0.44793459 0)
(158.15063 0.52886366 0)
(157.99133 0.60693504 0)
(157.81013 0.68125637 0)
(157.60829 0.75100262 0)
(157.38727 0.81543548 0)
(157.14874 0.87391938 0)
(156.89455 0.9259336 0)
(156.62668 0.97108005 0)
(156.34719 1.0090866 0)
(156.05822 1.0398063 0)
(155.7619 1.0632123 0)
(155.46035 1.0793897 0)
(155.15564 1.088525 0)
(154.84976 1.0908925 0)
(154.5446 1.0868405 0)
(154.2419 1.0767763 0)
(153.94331 1.0611509 0)
(153.6503 1.0404455 0)
(153.36421 1.0151573 0)
(153.08622 0.98578775 0)
(152.81735 0.95283198 0)
(152.55851 0.91676956 0)
(152.31044 0.87805723 0)
(152.07377 0.83712308 0)
(151.849 0.79436221 0)
(151.63655 0.7501338 0)
(151.43671 0.70475942 0)
(151.24971 0.65852232 0)
(151.07571 0.61166779 0)
(150.91481 0.56440405 0)
(150.76703 0.51690388 0)
(150.63239 0.46930665 0)
(150.51086 0.42172072 0)
(150.40239 0.37422594 0)
(150.30693 0.3268766 0)
(150.2244 0.27970411 0)
(150.15471 0.23272007 0)
(150.09769 0.1859194 0)
(150.05327 0.13928332 0)
(150.02204 0.092780982 0)
(150.00493 0.046369888 0)
(152.33915 -0.061335124 0)
(152.35677 -0.061555464 0)
(152.37041 -0.062042428 0)
(152.38442 -0.062807024 0)
(152.39862 -0.063851652 0)
(152.41309 -0.06518026 0)
(152.42789 -0.066797828 0)
(152.44308 -0.068710356 0)
(152.45875 -0.070924924 0)
(152.47494 -0.073449628 0)
(152.49174 -0.076293654 0)
(152.50922 -0.079467196 0)
(152.52746 -0.082981548 0)
(152.54652 -0.086848993 0)
(152.5665 -0.09108291 0)
(152.58748 -0.095697632 0)
(152.60955 -0.10070857 0)
(152.6328 -0.10613201 0)
(152.65732 -0.1119853 0)
(152.68321 -0.11828655 0)
(152.71059 -0.12505481 0)
(152.73955 -0.13230978 0)
(152.77022 -0.14007195 0)
(152.8027 -0.14836222 0)
(152.83713 -0.15720205 0)
(152.87364 -0.16661302 0)
(152.91236 -0.17661693 0)
(152.95342 -0.18723525 0)
(152.99698 -0.19848922 0)
(153.04318 -0.21039917 0)
(153.09218 -0.22298454 0)
(153.14415 -0.23626311 0)
(153.19924 -0.25025086 0)
(153.25763 -0.26496132 0)
(153.31948 -0.28040479 0)
(153.38499 -0.29658806 0)
(153.45431 -0.31351322 0)
(153.52765 -0.3311773 0)
(153.60516 -0.34957082 0)
(153.68704 -0.36867735 0)
(153.77346 -0.3884718 0)
(153.86459 -0.40891984 0)
(153.96059 -0.42997597 0)
(154.06162 -0.45158268 0)
(154.16781 -0.47366868 0)
(154.2793 -0.49614747 0)
(154.39619 -0.51891576 0)
(154.51855 -0.54185185 0)
(154.64645 -0.56481409 0)
(154.77991 -0.58763929 0)
(154.9189 -0.61014129 0)
(155.06336 -0.63210965 0)
(155.2132 -0.65330859 0)
(155.36822 -0.67347619 0)
(155.52821 -0.69232399 0)
(155.69286 -0.70953707 0)
(155.86179 -0.72477471 0)
(156.03453 -0.73767179 0)
(156.21054 -0.74784094 0)
(156.38915 -0.75487572 0)
(156.56961 -0.75835477 0)
(156.75106 -0.75784717 0)
(156.93252 -0.75291901 0)
(157.1129 -0.74314124 0)
(157.29101 -0.72809884 0)
(157.46553 -0.7074012 0)
(157.63506 -0.68069368 0)
(157.79809 -0.64767008 0)
(157.95302 -0.60808585 0)
(158.09819 -0.56177159 0)
(158.23191 -0.50864639 0)
(158.35244 -0.44873053 0)
(158.45805 -0.38215685 0)
(158.54705 -0.30917994 0)
(158.61782 -0.23018281 0)
(158.66883 -0.14568005 0)
(158.6987 -0.056317829 0)
(158.70622 0.037130284 0)
(158.69041 0.13377606 0)
(158.65049 0.23263497 0)
(158.58599 0.33264069 0)
(158.4967 0.43266904 0)
(158.38275 0.53156445 0)
(158.24453 0.62816848 0)
(158.08277 0.72134917 0)
(157.8985 0.81002979 0)
(157.69299 0.89321565 0)
(157.46779 0.97001785 0)
(157.22466 1.0396729 0)
(156.96552 1.1015572 0)
(156.69246 1.1551965 0)
(156.40763 1.20027 0)
(156.11324 1.2366084 0)
(155.81153 1.2641878 0)
(155.5047 1.28312 0)
(155.19487 1.293638 0)
(154.88409 1.2960805 0)
(154.57431 1.2908741 0)
(154.26732 1.2785152 0)
(153.96478 1.2595518 0)
(153.66817 1.2345661 0)
(153.37886 1.2041583 0)
(153.098 1.1689322 0)
(152.82664 1.1294823 0)
(152.56564 1.0863833 0)
(152.31574 1.0401812 0)
(152.07754 0.99138653 0)
(151.85152 0.94046953 0)
(151.63807 0.88785663 0)
(151.43746 0.83392874 0)
(151.24988 0.77902051 0)
(151.07547 0.72342092 0)
(150.91429 0.66737455 0)
(150.76636 0.61108356 0)
(150.63166 0.55471027 0)
(150.51014 0.49838005 0)
(150.40173 0.44218445 0)
(150.30636 0.38618464 0)
(150.22395 0.33041472 0)
(150.15438 0.27488535 0)
(150.09746 0.21958749 0)
(150.05315 0.16449597 0)
(150.02199 0.10957139 0)
(150.00491 0.054760276 0)
(152.37962 -0.070544747 0)
(152.39699 -0.070798589 0)
(152.41044 -0.071358957 0)
(152.42425 -0.072238488 0)
(152.43825 -0.073439936 0)
(152.45252 -0.074967854 0)
(152.46711 -0.076827989 0)
(152.4821 -0.079027264 0)
(152.49754 -0.08157385 0)
(152.51352 -0.084477088 0)
(152.53009 -0.087747582 0)
(152.54733 -0.091397102 0)
(152.56532 -0.095438691 0)
(152.58414 -0.099886535 0)
(152.60385 -0.10475609 0)
(152.62456 -0.11006394 0)
(152.64634 -0.11582788 0)
(152.66929 -0.12206678 0)
(152.6935 -0.12880069 0)
(152.71907 -0.13605061 0)
(152.74611 -0.1438386 0)
(152.77472 -0.15218752 0)
(152.80502 -0.16112115 0)
(152.83713 -0.17066376 0)
(152.87117 -0.18084034 0)
(152.90727 -0.19167601 0)
(152.94556 -0.20319619 0)
(152.98618 -0.215426 0)
(153.02928 -0.2283903 0)
(153.07502 -0.24211299 0)
(153.12354 -0.25661699 0)
(153.17501 -0.27192337 0)
(153.2296 -0.28805121 0)
(153.28748 -0.30501684 0)
(153.34882 -0.32283294 0)
(153.4138 -0.34150826 0)
(153.48261 -0.3610462 0)
(153.55543 -0.38144443 0)
(153.63244 -0.40269323 0)
(153.71383 -0.42477496 0)
(153.79978 -0.44766207 0)
(153.89048 -0.47131649 0)
(153.98608 -0.49568734 0)
(154.08675 -0.52070998 0)
(154.19265 -0.54630392 0)
(154.30391 -0.57237117 0)
(154.42065 -0.59879438 0)
(154.54297 -0.62543495 0)
(154.67093 -0.65213118 0)
(154.80457 -0.67869637 0)
(154.94389 -0.70491714 0)
(155.08885 -0.73055183 0)
(155.23935 -0.75532913 0)
(155.39525 -0.77894713 0)
(155.55633 -0.80107269 0)
(155.7223 -0.82134142 0)
(155.89281 -0.83935834 0)
(156.0674 -0.85469931 0)
(156.24554 -0.86691342 0)
(156.42659 -0.87552651 0)
(156.6098 -0.88004588 0)
(156.7943 -0.87996636 0)
(156.97913 -0.87477786 0)
(157.16319 -0.86397444 0)
(157.34527 -0.84706496 0)
(157.52403 -0.8235852 0)
(157.69804 -0.79311142 0)
(157.86575 -0.75527509 0)
(158.02551 -0.70977858 0)
(158.1756 -0.65641125 0)
(158.31427 -0.5950655 0)
(158.43969 -0.52575212 0)
(158.55005 -0.44861417 0)
(158.64357 -0.36393843 0)
(158.71854 -0.27216378 0)
(158.77332 -0.17388541 0)
(158.80645 -0.069855248 0)
(158.81662 0.03902233 0)
(158.80277 0.15170416 0)
(158.76408 0.2670318 0)
(158.7 0.38374803 0)
(158.6103 0.50052544 0)
(158.49508 0.61599817 0)
(158.35477 0.72879621 0)
(158.19011 0.83758075 0)
(158.00216 0.94107878 0)
(157.7923 1.0381154 0)
(157.56215 1.1276426 0)
(157.31355 1.208762 0)
(157.04855 1.2807432 0)
(156.76933 1.3430341 0)
(156.47816 1.3952652 0)
(156.17737 1.4372477 0)
(155.86928 1.4689654 0)
(155.5562 1.4905621 0)
(155.24033 1.5023248 0)
(154.92379 1.504664 0)
(154.60859 1.4980927 0)
(154.29655 1.4832046 0)
(153.98938 1.4606521 0)
(153.68857 1.4311257 0)
(153.39549 1.3953353 0)
(153.11131 1.3539925 0)
(152.83704 1.3077962 0)
(152.57355 1.25742 0)
(152.32154 1.2035023 0)
(152.08158 1.1466386 0)
(151.85414 1.0873756 0)
(151.63955 1.026208 0)
(151.43807 0.96357644 0)
(151.24985 0.8998668 0)
(151.07498 0.8354113 0)
(150.91352 0.77049002 0)
(150.76543 0.70533346 0)
(150.63069 0.64012562 0)
(150.5092 0.57500757 0)
(150.40088 0.51008105 0)
(150.30564 0.44541263 0)
(150.22338 0.38103759 0)
(150.15396 0.31696409 0)
(150.09719 0.25317763 0)
(150.05299 0.18964517 0)
(150.02192 0.12631725 0)
(150.0049 0.063127831 0)
(152.42576 -0.079440143 0)
(152.44284 -0.079726053 0)
(152.45608 -0.08035772 0)
(152.46966 -0.081349494 0)
(152.48344 -0.082704501 0)
(152.49748 -0.084427902 0)
(152.51183 -0.086526203 0)
(152.52658 -0.08900725 0)
(152.54178 -0.091880296 0)
(152.5575 -0.095155928 0)
(152.57382 -0.098846165 0)
(152.59079 -0.10296435 0)
(152.6085 -0.10752527 0)
(152.62702 -0.11254503 0)
(152.64644 -0.11804116 0)
(152.66683 -0.12403249 0)
(152.68829 -0.13053923 0)
(152.7109 -0.13758284 0)
(152.73476 -0.14518611 0)
(152.75996 -0.15337293 0)
(152.78662 -0.16216843 0)
(152.81483 -0.17159866 0)
(152.84472 -0.18169075 0)
(152.87639 -0.19247243 0)
(152.90997 -0.20397226 0)
(152.9456 -0.21621903 0)
(152.98341 -0.22924189 0)
(153.02353 -0.24306973 0)
(153.06611 -0.25773121 0)
(153.11131 -0.27325396 0)
(153.15928 -0.2896646 0)
(153.21018 -0.30698773 0)
(153.2642 -0.32524581 0)
(153.32148 -0.34445827 0)
(153.38223 -0.36464053 0)
(153.44662 -0.38580369 0)
(153.51483 -0.40795288 0)
(153.58705 -0.43108692 0)
(153.66348 -0.45519635 0)
(153.74431 -0.48026291 0)
(153.82972 -0.50625726 0)
(153.9199 -0.53313823 0)
(154.01503 -0.5608503 0)
(154.11529 -0.58932245 0)
(154.22084 -0.61846582 0)
(154.33182 -0.64817175 0)
(154.44838 -0.67830968 0)
(154.57062 -0.70872495 0)
(154.69863 -0.73923662 0)
(154.83246 -0.76963529 0)
(154.97214 -0.79968105 0)
(155.11764 -0.82910158 0)
(155.26888 -0.85759053 0)
(155.42575 -0.88480622 0)
(155.58804 -0.91037084 0)
(155.75551 -0.93387026 0)
(155.9278 -0.95485455 0)
(156.10449 -0.97283948 0)
(156.28506 -0.98730904 0)
(156.46888 -0.99771925 0)
(156.65522 -1.0035033 0)
(156.84322 -1.0040786 0)
(157.03191 -0.99885465 0)
(157.2202 -0.98724406 0)
(157.40684 -0.96867419 0)
(157.59049 -0.94260125 0)
(157.76967 -0.90852594 0)
(157.94278 -0.86601056 0)
(158.10814 -0.81469737 0)
(158.26395 -0.75432751 0)
(158.40836 -0.68476001 0)
(158.53947 -0.60599018 0)
(158.65538 -0.51816635 0)
(158.75419 -0.42160385 0)
(158.83406 -0.31679562 0)
(158.89327 -0.20441766 0)
(158.93023 -0.085330107 0)
(158.94353 0.039426829 0)
(158.93202 0.16864744 0)
(158.89478 0.30099003 0)
(158.83122 0.43499423 0)
(158.74107 0.56911548 0)
(158.6244 0.70176261 0)
(158.48165 0.83133859 0)
(158.31361 0.95628255 0)
(158.1214 1.075111 0)
(157.90646 1.1864564 0)
(157.67053 1.2891009 0)
(157.41556 1.382004 0)
(157.14372 1.4643233 0)
(156.85733 1.5354266 0)
(156.55879 1.594897 0)
(156.25055 1.6425293 0)
(155.93507 1.6783204 0)
(155.61474 1.7024535 0)
(155.29188 1.715278 0)
(154.96869 1.7172855 0)
(154.64723 1.7090852 0)
(154.32939 1.6913774 0)
(154.01689 1.664928 0)
(153.71128 1.6305445 0)
(153.4139 1.5890536 0)
(153.12593 1.5412817 0)
(152.84836 1.4880375 0)
(152.58205 1.4300981 0)
(152.32766 1.3681977 0)
(152.08574 1.303019 0)
(151.8567 1.2351871 0)
(151.64086 1.1652659 0)
(151.43842 1.0937558 0)
(151.2495 1.0210938 0)
(151.07417 0.94765451 0)
(150.91241 0.87375243 0)
(150.76419 0.79964505 0)
(150.62942 0.72553655 0)
(150.508 0.65158196 0)
(150.39982 0.57789151 0)
(150.30475 0.50453537 0)
(150.22267 0.43154817 0)
(150.15344 0.35893381 0)
(150.09684 0.28667052 0)
(150.0528 0.21471569 0)
(150.02184 0.14300807 0)
(150.00488 0.071467216 0)
(152.47754 -0.088341279 0)
(152.49431 -0.088659564 0)
(152.5073 -0.089362393 0)
(152.52063 -0.090465725 0)
(152.53416 -0.091973046 0)
(152.54794 -0.093890118 0)
(152.56203 -0.096224209 0)
(152.57651 -0.09898408 0)
(152.59144 -0.10218007 0)
(152.60687 -0.10582401 0)
(152.62289 -0.10992934 0)
(152.63957 -0.11451098 0)
(152.65697 -0.11958545 0)
(152.67516 -0.12517078 0)
(152.69424 -0.13128661 0)
(152.71429 -0.13795398 0)
(152.73538 -0.14519559 0)
(152.75761 -0.15303545 0)
(152.78107 -0.16149914 0)