/*--------------------------------*- C++ -*----------------------------------*\
| =========                 |                                                 |
| \\      /  F ield         | foam-extend: Open Source CFD                    |
|  \\    /   O peration     | Version:     4.1                                |
|   \\  /    A nd           | Web:         http://www.foam-extend.org         |
|    \\/     M anipulation  |                                                 |
\*---------------------------------------------------------------------------*/
FoamFile
{
    version     2.0;
    format      ascii;
    class       surfaceScalarField;
    location    "1.95";
    object      phi;
}
// * * * * * * * * * * * * * * * * * * * * * * * * * * * * * * * * * * * * * //

dimensions      [0 3 -1 0 0 0 0];

internalField   nonuniform List<scalar> 
8438
(
-0.59744043
0.0016735556
-0.59917929
0.0017388585
-0.60095307
0.0017737774
-0.60277077
0.0018177004
-0.60464215
0.0018713822
-0.60657765
0.0019354994
-0.60858667
0.0020090208
-0.61067682
0.002090155
-0.61285323
0.0021764041
-0.6151178
0.002264576
-0.61746859
0.0023507812
-0.61989905
0.0024304673
-0.62239758
0.0024985223
-0.62494704
0.0025494664
-0.62752477
0.0025777289
-0.63010278
0.0025780122
-0.63264837
0.0025455912
-0.63512499
0.0024766133
-0.63749321
0.0023682278
-0.63971179
0.0022185775
-0.64173852
0.002026723
-0.64353107
0.0017925505
-0.64504782
0.0015167535
-0.64624877
0.0012009533
-0.64709678
0.00084801114
-0.64755933
0.00046254404
-0.64761063
5.1306984e-05
-0.64723332
-0.00037731041
-0.64642241
-0.00081091871
-0.64518936
-0.0012330492
-0.64356306
-0.0016262939
-0.64158958
-0.0019734841
-0.63932998
-0.0022596002
-0.6368563
-0.002473675
-0.6342463
-0.0026100046
-0.63157791
-0.0026683915
-0.62892442
-0.0026534847
-0.62635089
-0.0025735329
-0.62391198
-0.0024389143
-0.62165122
-0.0022607576
-0.61960138
-0.0020498424
-0.61778553
-0.0018158454
-0.61621862
-0.0015669065
-0.61490908
-0.001309539
-0.61385998
-0.0010491002
-0.61306953
-0.00079045792
-0.61253402
-0.00053550969
-0.6122586
-0.00027541862
-1.3648051e-05
-0.61123263
0.0031393004
-0.61269177
0.0031979937
-0.61417806
0.0032600742
-0.61570479
0.0033444222
-0.61728438
0.0034509785
-0.61892806
0.0035791761
-0.62064566
0.0037266263
-0.62244516
0.0038896524
-0.62433201
0.0040632476
-0.62630846
0.0042410275
-0.62837287
0.0044151973
-0.63051901
0.0045766076
-0.63273544
0.0047149525
-0.63500513
0.0048191521
-0.63730532
0.0048779185
-0.63960781
0.0048805039
-0.64187955
0.004817334
-0.64408357
0.004680627
-0.64618
0.0044646571
-0.64812714
0.0041657239
-0.64988239
0.0037819701
-0.651403
0.0033131642
-0.65264689
0.0027606401
-0.65357347
0.0021275306
-0.65414484
0.0014193849
-0.65432747
0.00064517526
-0.65409466
-0.00018150822
-0.65343055
-0.0010414138
-0.65233203
-0.0019094425
-0.65081001
-0.0027550664
-0.64889256
-0.0035437476
-0.64662541
-0.0042406343
-0.64406997
-0.0048150389
-0.64129911
-0.0052445366
-0.63839159
-0.0055175262
-0.63542627
-0.0056337113
-0.63247706
-0.0056026887
-0.62960927
-0.0054413286
-0.62687745
-0.0051707295
-0.62432482
-0.0048133921
-0.62198367
-0.0043909944
-0.61987663
-0.003922885
-0.61801828
-0.0034252548
-0.61641682
-0.0029109979
-0.61507556
-0.0023903567
-0.61399476
-0.0018712626
-0.6131739
-0.0013563654
-0.61260473
-0.00084459536
-0.00037357405
-0.61227816
0.0045549094
-0.61369204
0.004611877
-0.61513076
0.004698796
-0.61660928
0.0048229393
-0.61814089
0.0049825901
-0.6197374
0.005175686
-0.62140914
0.005398369
-0.62316458
0.005645091
-0.62500973
0.0059083959
-0.62694747
0.0061787672
-0.62897681
0.0064445347
-0.63109213
0.0066919272
-0.63328252
0.0069053475
-0.63553131
0.0070679424
-0.63781587
0.0071624757
-0.64010787
0.0071725054
-0.64237395
0.007083409
-0.64457668
0.0068833646
-0.64667578
0.0065637561
-0.64862914
0.0061190825
-0.65039378
0.0055466068
-0.65192656
0.0048459417
-0.65318481
0.0040188935
-0.65412706
0.0030697825
-0.65471406
0.0020063832
-0.6549104
0.00084151358
-0.65468693
-0.00040497431
-0.6540236
-0.0017047487
-0.65291294
-0.0030200961
-0.65136391
-0.0043040953
-0.64940441
-0.0055032494
-0.64708189
-0.0065631537
-0.64446119
-0.0074357396
-0.64161972
-0.0080860064
-0.63864107
-0.0084961762
-0.63560841
-0.0086663714
-0.63259891
-0.0086121962
-0.62967981
-0.0083604221
-0.62690645
-0.0079440894
-0.62432178
-0.0073980607
-0.62195718
-0.0067555936
-0.61983398
-0.0060460894
-0.6179653
-0.0052939351
-0.61635794
-0.004518353
-0.61501429
-0.0037340083
-0.6139345
-0.0029510588
-0.61311683
-0.0021740356
-0.61255277
-0.0014086508
-0.00068139505
-0.61263501
0.0059411343
-0.61402853
0.0060053925
-0.61544753
0.0061177951
-0.61690696
0.0062823752
-0.61842061
0.0064962315
-0.62000096
0.0067560405
-0.62165913
0.007056543
-0.62340444
0.0073903925
-0.62524379
0.0077477523
-0.62718104
0.0081160107
-0.6292161
0.0084795944
-0.63134415
0.008819986
-0.63355486
0.0091160525
-0.63583171
0.0093447957
-0.6381518
0.0094825665
-0.64048605
0.0095067507
-0.64279993
0.0093972905
-0.64505468
0.0091381112
-0.64720861
0.0087176841
-0.64921834
0.008128817
-0.65103976
0.0073680224
-0.6526286
0.0064347896
-0.65394095
0.0053312365
-0.65493363
0.0040624685
-0.65556511
0.0026378572
-0.6557969
0.0010733033
-0.65559603
-0.00060583677
-0.6549384
-0.0023623849
-0.65381282
-0.004145668
-0.6522257
-0.0058912207
-0.65020461
-0.0075243379
-0.64779963
-0.0089681364
-0.64508099
-0.010154379
-0.64213333
-0.011033668
-0.63904788
-0.011581625
-0.63591458
-0.011799674
-0.6328156
-0.011711168
-0.62982119
-0.011354837
-0.62698769
-0.01077759
-0.62435757
-0.010028175
-0.62196071
-0.009152458
-0.61981635
-0.0081904492
-0.61793537
-0.0071749119
-0.61632247
-0.0061312556
-0.61497832
-0.0050781604
-0.61390148
-0.0040278975
-0.61308836
-0.0029871596
-0.61253356
-0.0019634519
-0.00097000051
-0.61305952
0.0073003086
-0.61442981
0.0073756833
-0.61582655
0.0075145309
-0.61726487
0.0077207017
-0.61875905
0.0079904094
-0.62032237
0.0083193592
-0.62196688
0.0087010572
-0.62370299
0.0091265025
-0.62553884
0.0095835968
-0.62747953
0.010056699
-0.62952624
0.010526308
-0.63167525
0.010969
-0.63391698
0.011357775
-0.63623515
0.011662974
-0.63860646
0.01185387
-0.6410007
0.011900989
-0.64338169
0.011778284
-0.64570872
0.011465146
-0.64793819
0.010947153
-0.65002502
0.010215648
-0.65192366
0.0092666547
-0.65358852
0.0080996553
-0.65497419
0.0067169061
-0.65603549
0.0051237623
-0.65672793
0.0033303048
-0.65700902
0.0013543904
-0.65684063
-0.00077422938
-0.65619286
-0.0030101495
-0.65504896
-0.0052895657
-0.65341127
-0.0075289109
-0.65130656
-0.0096290508
-0.64878842
-0.011486281
-0.6459348
-0.013007995
-0.64284078
-0.014127687
-0.63960858
-0.014813824
-0.63633771
-0.01507055
-0.63311726
-0.014931611
-0.63002138
-0.014450724
-0.62710755
-0.013691413
-0.6244173
-0.012718426
-0.62197816
-0.011591596
-0.61980638
-0.010362234
-0.61790967
-0.0090716253
-0.61628982
-0.0077511026
-0.61494508
-0.0064229009
-0.61387185
-0.0051011307
-0.61306518
-0.0037938246
-0.61252118
-0.0025074568
-0.001246376
-0.61359672
0.0086272459
-0.61493735
0.0087163132
-0.61630579
0.0088829662
-0.61771734
0.0091322505
-0.61918684
0.0094599069
-0.62072847
0.0098609926
-0.62235543
0.010328022
-0.62407949
0.01085056
-0.62591033
0.011414433
-0.62785472
0.012001089
-0.62991551
0.0125871
-0.63209047
0.013143963
-0.6343711
0.013638399
-0.63674153
0.014033407
-0.63917794
0.014290281
-0.64164867
0.014371716
-0.64411528
0.014244897
-0.64653444
0.013884307
-0.64886
0.013272713
-0.65104474
0.01240039
-0.65304142
0.011263326
-0.654803
0.0098612383
-0.65628244
0.0081963521
-0.65743226
0.0062735761
-0.65820444
0.0041024819
-0.65855133
0.001701284
-0.65842806
-0.00089750022
-0.65779688
-0.0036413279
-0.65663307
-0.0064533721
-0.65493288
-0.0092291071
-0.65272131
-0.011840619
-0.65005642
-0.014151168
-0.64702678
-0.016037636
-0.64374197
-0.017412496
-0.64031938
-0.018236416
-0.63687145
-0.018518479
-0.63349633
-0.018306727
-0.63027291
-0.017674147
-0.62725969
-0.01670464
-0.6244964
-0.015481711
-0.62200713
-0.014080867
-0.61980387
-0.012565495
-0.61788999
-0.0109855
-0.61626333
-0.0093777647
-0.6149187
-0.0077675336
-0.61384965
-0.0061701816
-0.61304957
-0.0045939022
-0.61251419
-0.0030428332
-0.0015156193
-0.61424974
0.0099182046
-0.61555477
0.010021343
-0.61688851
0.010216702
-0.61826696
0.010510705
-0.61970576
0.010898701
-0.62122014
0.011375373
-0.62282465
0.011932536
-0.62453271
0.012558614
-0.6263559
0.013237627
-0.62830312
0.013948307
-0.63037937
0.014663349
-0.6325844
0.015348997
-0.63491122
0.015965218
-0.63734462
0.016466808
-0.63986021
0.01680587
-0.64242442
0.016935929
-0.64499584
0.016816314
-0.64752764
0.016416103
-0.64997037
0.015715447
-0.6522742
0.014704221
-0.65439001
0.013379138
-0.65626938
0.011740609
-0.65786375
0.0097907132
-0.65912322
0.007533055
-0.65999582
0.0049750794
-0.66042768
0.0021331458
-0.66036532
-0.00095985952
-0.65976055
-0.0042460993
-0.65857753
-0.0076363904
-0.65680339
-0.011003249
-0.65445973
-0.014184285
-0.65160996
-0.017000939
-0.64835694
-0.019290654
-0.64483014
-0.020939293
-0.6411675
-0.021899056
-0.63749854
-0.022187437
-0.63393283
-0.021872445
-0.63055468
-0.021052291
-0.6274231
-0.019836218
-0.62457485
-0.018329962
-0.62202905
-0.016626672
-0.61979196
-0.014802588
-0.61786131
-0.01291615
-0.61622985
-0.011009222
-0.61488808
-0.0091093049
-0.61382607
-0.0072321936
-0.61303484
-0.0053851252
-0.61250836
-0.0035693116
-0.0017790335
-0.61501302
0.011164745
-0.61627519
0.011283522
-0.61756745
0.011508953
-0.6189062
0.011849459
-0.62030792
0.01230042
-0.62178904
0.012856495
-0.62336567
0.013509163
-0.62505315
0.014246097
-0.62686541
0.015049883
-0.62881393
0.015896832
-0.63090647
0.016755891
-0.6331454
0.017587923
-0.63552579
0.018345604
-0.63803345
0.018974472
-0.64064342
0.019415843
-0.64331972
0.019612221
-0.64601694
0.019513543
-0.64868366
0.01908282
-0.65126618
0.018297964
-0.6537115
0.017149548
-0.65596859
0.015636227
-0.6579879
0.013759911
-0.65971971
0.01152253
-0.66111203
0.0089253692
-0.6621086
0.0059716542
-0.66264835
0.0026728973
-0.66266713
-0.00094108294
-0.66210314
-0.0048100915
-0.66090527
-0.0088342575
-0.65904716
-0.012861358
-0.65654415
-0.016687294
-0.65346577
-0.02007932
-0.64993404
-0.022822381
-0.64610561
-0.024767724
-0.64214609
-0.025858576
-0.63820724
-0.02612629
-0.63441259
-0.02566709
-0.6308523
-0.024612588
-0.62758468
-0.023103831
-0.62464166
-0.021272988
-0.62203532
-0.01923301
-0.61976432
-0.017073586
-0.61781917
-0.014861302
-0.61618631
-0.012642087
-0.61485101
-0.0104446
-0.6137993
-0.0082839004
-0.6130193
-0.0061651307
-0.61250256
-0.004086045
-0.0020367981
-0.61588763
0.012363465
-0.61710097
0.012496866
-0.61834485
0.012752829
-0.61963681
0.013141424
-0.62099437
0.013657978
-0.6224353
0.014297429
-0.62397748
0.015051341
-0.62563851
0.015907122
-0.62743505
0.016846429
-0.62938181
0.017843587
-0.63148998
0.01886406
-0.63376532
0.019863271
-0.63620579
0.020786068
-0.63879879
0.021567471
-0.64151886
0.02213592
-0.64432698
0.022420335
-0.6471725
0.022359068
-0.64999783
0.021908151
-0.65274379
0.021043922
-0.65535364
0.019759398
-0.65777451
0.018057097
-0.65995632
0.015941723
-0.66184906
0.013415268
-0.66339923
0.01047554
-0.66454646
0.0071188848
-0.66522156
0.003347993
-0.66534743
-0.00081520732
-0.66484478
-0.005312744
-0.66364171
-0.010037332
-0.661692
-0.014811066
-0.65899998
-0.019379313
-0.6556416
-0.023437701
-0.65176466
-0.026699323
-0.64756319
-0.028969193
-0.64324016
-0.030181608
-0.63897606
-0.030390387
-0.63491116
-0.029731984
-0.63114116
-0.02838259
-0.6277217
-0.026523294
-0.62467707
-0.024317617
-0.62200963
-0.021900448
-0.61970807
-0.01937515
-0.61775382
-0.016815553
-0.61612566
-0.014270247
-0.61480272
-0.011767531
-0.61376636
-0.0093202637
-0.61300126
-0.0069302323
-0.61249631
-0.0045909972
-0.0022881552
-0.61686695
0.013502446
-0.61802273
0.013652643
-0.61921048
0.013940581
-0.62044801
0.014378949
-0.62175374
0.01496371
-0.62314686
0.015690549
-0.62464718
0.016551659
-0.62627486
0.017534803
-0.62804981
0.018621378
-0.62999057
0.019784351
-0.63211266
0.020986147
-0.63442623
0.022176848
-0.63693315
0.023292984
-0.63962329
0.024257612
-0.64247098
0.024983605
-0.64543334
0.0253827
-0.64845275
0.025378474
-0.65146327
0.024918672
-0.65439851
0.023979167
-0.65719728
0.022558169
-0.65980521
0.020665021
-0.66217273
0.018309249
-0.66425091
0.015493449
-0.66598607
0.012210697
-0.66731433
0.0084471473
-0.6681578
0.0041914559
-0.66842411
-0.00054889067
-0.66801171
-0.0057251421
-0.66682076
-0.011228284
-0.66477606
-0.016855772
-0.661863
-0.022292365
-0.65816324
-0.02713746
-0.65385953
-0.031003041
-0.64919799
-0.033630725
-0.64443231
-0.034947297
-0.63977994
-0.035042757
-0.63540052
-0.034111397
-0.63139396
-0.032389155
-0.62780978
-0.030107468
-0.62466073
-0.027466671
-0.6219358
-0.02462538
-0.61961083
-0.021700115
-0.61765612
-0.018770268
-0.61604136
-0.015885009
-0.61473866
-0.013070229
-0.61372415
-0.010334775
-0.61297875
-0.0076756334
-0.61248854
-0.0050812056
-0.0025317433
-0.61794999
0.014580971
-0.6190427
0.014745354
-0.62016709
0.015064968
-0.62134238
0.015554243
-0.62258814
0.01620947
-0.62392504
0.017027447
-0.62537497
0.018001589
-0.62696095
0.019120782
-0.6287066
0.020367035
-0.63063509
0.021712836
-0.63276722
0.02311828
-0.63511882
0.024528447
-0.63769707
0.025871231
-0.64049564
0.027056181
-0.6434892
0.027977166
-0.6466302
0.028523699
-0.64985157
0.028599844
-0.653076
0.028143106
-0.65622753
0.027130691
-0.65923965
0.025570297
-0.66205723
0.023482602
-0.66463296
0.020884969
-0.66692109
0.017781582
-0.66886989
0.014159498
-0.6704134
0.0099906538
-0.67146479
0.0052428521
-0.67191441
-9.9271177e-05
-0.67163256
-0.0060069945
-0.67048229
-0.012378556
-0.66834641
-0.018991649
-0.66517841
-0.025460366
-0.66106265
-0.031253223
-0.65622979
-0.035835902
-0.65099994
-0.038860568
-0.64569621
-0.040251032
-0.64058341
-0.040155555
-0.63584263
-0.03885218
-0.63157474
-0.036657038
-0.62781775
-0.033864461
-0.62456723
-0.030717197
-0.62179414
-0.027398467
-0.61945803
-0.024036222
-0.6175157
-0.020712596
-0.61592635
-0.01747436
-0.61465426
-0.014342323
-0.61366992
-0.01131911
-0.61295032
-0.0083952376
-0.61247874
-0.0055527812
-0.0027656863
-0.61913342
0.015582098
-0.6201522
0.015764136
-0.62120415
0.016116914
-0.62230813
0.016658231
-0.62348447
0.017385801
-0.62475521
0.018298191
-0.62614443
0.019390806
-0.62767825
0.020654602
-0.62938454
0.022073329
-0.63129191
0.023620207
-0.63342772
0.025254085
-0.63581502
0.026915744
-0.63846825
0.028524462
-0.64138687
0.029974808
-0.64454709
0.031137386
-0.64789573
0.031872334
-0.65135288
0.032056996
-0.65482534
0.031615569
-0.65822404
0.030529388
-0.66147607
0.028822324
-0.66452665
0.026533183
-0.66733321
0.023691531
-0.66985631
0.02030468
-0.67204934
0.016352534
-0.67384688
0.011788189
-0.67515375
0.0065497267
-0.67583974
0.00058671397
-0.67574212
-0.0061046154
-0.67467694
-0.013443731
-0.67246561
-0.021202987
-0.66900823
-0.028917739
-0.66438416
-0.035877299
-0.65889058
-0.041329484
-0.65295509
-0.044796056
-0.64699687
-0.046209251
-0.64134098
-0.045811441
-0.63619038
-0.044002783
-0.63164062
-0.041206795
-0.62770974
-0.037795348
-0.62436842
-0.034058514
-0.62156367
-0.030203215
-0.61923471
-0.026365188
-0.61732238
-0.022624925
-0.61577404
-0.019022694
-0.61454554
-0.015570824
-0.61360156
-0.012263096
-0.61291513
-0.0090816639
-0.61246693
-0.0060009799
-0.0029876666
-0.6204071
0.016509568
-0.62134756
0.016704595
-0.62231977
0.017089126
-0.62334419
0.017682658
-0.62444207
0.018483682
-0.62563685
0.019492965
-0.62695475
0.020708708
-0.6284252
0.022125056
-0.63008079
0.023728912
-0.63195643
0.025495854
-0.63408741
0.027385061
-0.63650591
0.029334247
-0.6392361
0.031254653
-0.64228611
0.033024811
-0.64563573
0.034487008
-0.64922525
0.035461857
-0.6529571
0.03578884
-0.65671539
0.035373868
-0.66039285
0.034206848
-0.66390886
0.032338333
-0.66721128
0.029835604
-0.67026629
0.02674654
-0.67304527
0.023083658
-0.67551157
0.018818835
-0.67760461
0.013881225
-0.67922293
0.0081680475
-0.68021419
0.0015779774
-0.6803759
-0.0059429084
-0.6794635
-0.014356126
-0.67721208
-0.023454415
-0.67343382
-0.032695991
-0.66818554
-0.041125581
-0.66185781
-0.047657215
-0.65503903
-0.051614833
-0.64828274
-0.052965539
-0.64198969
-0.052104493
-0.6363815
-0.049610971
-0.63153702
-0.046051276
-0.62744163
-0.041890737
-0.62403069
-0.037469456
-0.62121991
-0.033013997
-0.61892367
-0.028661431
-0.61706446
-0.024484136
-0.61557672
-0.020510426
-0.61440759
-0.016739961
-0.61351602
-0.013154666
-0.6128714
-0.0097262779
-0.61245211
-0.0064202713
-0.003194978
-0.62177478
0.017340391
-0.62262372
0.017553538
-0.62350578
0.017971186
-0.62444003
0.018616914
-0.62544789
0.01949154
-0.6265538
0.020598871
-0.62778601
0.021940923
-0.62917732
0.023516363
-0.63076541
0.025317004
-0.63259249
0.027322939
-0.63470339
0.029495957
-0.63714181
0.031772666
-0.63994493
0.034057777
-0.6431339
0.036213779
-0.6466961
0.038049204
-0.65056509
0.03933085
-0.65461899
0.039842738
-0.65870925
0.039464128
-0.66270273
0.038200332
-0.66650946
0.03614506
-0.67008346
0.033409603
-0.67340511
0.030068188
-0.6764621
0.026140649
-0.67923365
0.021590386
-0.68167026
0.016317834
-0.68366823
0.010166023
-0.68505239
0.0029621361
-0.685574
-0.0054213037
-0.68491432
-0.015015805
-0.68268964
-0.02567909
-0.678569
-0.036816637
-0.67254908
-0.047145504
-0.66515202
-0.055054274
-0.65721552
-0.059551332
-0.64948256
-0.060698501
-0.64244689
-0.059140157
-0.63633821
-0.055719655
-0.63119908
-0.051190404
-0.62696361
-0.046126208
-0.62351802
-0.040915041
-0.62073808
-0.035793945
-0.61850862
-0.030890891
-0.6167317
-0.026261051
-0.61532832
-0.021913808
-0.61423708
-0.017831197
-0.61341178
-0.013979967
-0.61281874
-0.010319316
-0.61243456
-0.0068044515
-0.0033845925
-0.62320309
0.018083543
-0.62395741
0.018307858
-0.62474203
0.018755796
-0.62557741
0.0194523
-0.62648532
0.020399451
-0.62749102
0.021604571
-0.62862461
0.023074506
-0.62992219
0.024813943
-0.63142687
0.026821686
-0.63318904
0.029085112
-0.63526487
0.031571781
-0.63771233
0.034220133
-0.64058561
0.036931051
-0.64392477
0.039552943
-0.64773131
0.041855743
-0.65193292
0.04353246
-0.6563734
0.044283217
-0.66085529
0.043946019
-0.66520723
0.042552272
-0.66932734
0.040265172
-0.67318187
0.037264135
-0.67677403
0.033660342
-0.68011578
0.029482396
-0.6832111
0.024685707
-0.68603238
0.01913912
-0.68848225
0.01261589
-0.69036398
0.0048438675
-0.6913764
-0.0044088797
-0.69111306
-0.015279152
-0.68903174
-0.027760408
-0.68457155
-0.041276821
-0.67759113
-0.054125931
-0.66879551
-0.063849895
-0.65942573
-0.06892111
-0.65049282
-0.069631407
-0.64260016
-0.067032819
-0.63596042
-0.062359391
-0.63054757
-0.056603261
-0.62621769
-0.050456087
-0.62279037
-0.044342363
-0.62009171
-0.0384926
-0.6179727
-0.033009904
-0.6163137
-0.027920047
-0.61502257
-0.023204939
-0.61403036
-0.018823412
-0.61328674
-0.014723582
-0.61275596
-0.010850098
-0.6124136
-0.0071468066
-0.003553247
-0.62472695
0.018710171
-0.62537214
0.01895305
-0.62604883
0.019432487
-0.62677458
0.020178048
-0.62757016
0.021195033
-0.62846086
0.02249527
-0.62947798
0.024091626
-0.6306605
0.025996468
-0.63205681
0.02821799
-0.63372602
0.030754326
-0.63573743
0.03358319
-0.63816646
0.036649164
-0.64108904
0.039853636
-0.64457242
0.043036323
-0.64864365
0.045926968
-0.65322934
0.048118154
-0.65812589
0.04917976
-0.66306273
0.048882866
-0.66781265
0.047302188
-0.67226033
0.044712853
-0.67639617
0.041399979
-0.68025989
0.037524056
-0.68389691
0.033119423
-0.68734458
0.028133374
-0.69060961
0.02240415
-0.6936117
0.015617977
-0.69613401
0.0073661786
-0.69781654
-0.0027263456
-0.69815469
-0.014941008
-0.69641081
-0.029504286
-0.69166664
-0.046020994
-0.68348564
-0.062306927
-0.67281358
-0.07452195
-0.66157729
-0.080157401
-0.65116513
-0.080043573
-0.64229923
-0.075898718
-0.63512299
-0.069535632
-0.62948972
-0.062236523
-0.62514044
-0.054805368
-0.62180693
-0.047675877
-0.6192559
-0.041043635
-0.61730138
-0.034964419
-0.61580237
-0.029419057
-0.6146552
-0.024352111
-0.61378527
-0.019693336
-0.61313991
-0.015368946
-0.61268265
-0.011307362
-0.61238911
-0.0074403407
-0.0036975596
-0.62625575
0.019234005
-0.62678958
0.019486871
-0.62735051
0.01999342
-0.62795664
0.020784179
-0.62862781
0.021866209
-0.62938889
0.023256343
-0.63027188
0.024974623
-0.6313183
0.027042881
-0.6325817
0.029481392
-0.63413062
0.032303245
-0.63604968
0.035502249
-0.63843584
0.039035329
-0.64139264
0.042810438
-0.64502511
0.046668792
-0.64940452
0.050306372
-0.65446837
0.053182006
-0.65994637
0.054657765
-0.66545365
0.054390145
-0.67067619
0.052524727
-0.67548006
0.049516718
-0.67989683
0.045816751
-0.68402067
0.041647897
-0.68793874
0.037037492
-0.69172962
0.031924254
-0.69545522
0.026129755
-0.69907782
0.019240573
-0.70237473
0.010663086
-0.70493053
-0.00017053966
-0.70613768
-0.013733864
-0.70504012
-0.030601844
-0.70017662
-0.050884494
-0.69050281
-0.071980732
-0.67723144
-0.087793327
-0.66352221
-0.093866627
-0.65128392
-0.092281869
-0.64134302
-0.085839619
-0.63367109
-0.077207559
-0.62791968
-0.06798793
-0.62366547
-0.059059584
-0.62052899
-0.050812354
-0.61820962
-0.043363004
-0.61648421
-0.03668983
-0.61519312
-0.030710141
-0.61422464
-0.025320595
-0.61350167
-0.02041631
-0.61297165
-0.015898959
-0.6125993
-0.011679713
-0.61236157
-0.0076780757
-0.0038141775
-0.62788232
0.019620871
-0.62829037
0.019894926
-0.62872674
0.02042979
-0.62920449
0.021261925
-0.62974077
0.022402484
-0.6303588
0.023874379
-0.63109015
0.025705974
-0.63197751
0.027930234
-0.63307824
0.030582125
-0.63446924
0.033694248
-0.6362511
0.037284106
-0.63854565
0.041329882
-0.64148922
0.045754009
-0.64523562
0.050415183
-0.64992847
0.054999225
-0.65554388
0.058797412
-0.66172019
0.060834084
-0.66789171
0.06056166
-0.67361244
0.058245454
-0.67872784
0.054632126
-0.68334893
0.050437835
-0.68766186
0.045960826
-0.69181169
0.041187329
-0.69592757
0.036040132
-0.70015813
0.030360315
-0.70454449
0.023626927
-0.70886991
0.01498851
-0.71262566
0.0035852102
-0.71509993
-0.011259593
-0.71514608
-0.030555692
-0.71054271
-0.055487865
-0.69906497
-0.08345847
-0.68205632
-0.10480198
-0.66501593
-0.11090702
-0.65053154
-0.10676626
-0.63946199
-0.096909176
-0.63141566
-0.085253884
-0.62572016
-0.073683435
-0.62172684
-0.063052902
-0.61892295
-0.053616241
-0.61693777
-0.045348182
-0.6155157
-0.0381119
-0.61448494
-0.031740903
-0.61373154
-0.026074001
-0.61318045
-0.020967395
-0.61278258
-0.016296829
-0.61250607
-0.01195622
-0.61233073
-0.00785342
-0.0038999568
-0.62933598
0.019882753
-0.62961491
0.020173863
-0.62991711
0.020731988
-0.63025353
0.02159834
-0.63063796
0.022786921
-0.63109081
0.024327227
-0.63164169
0.026256856
-0.63233298
0.028621522
-0.63322444
0.031473588
-0.63440041
0.034870211
-0.63597879
0.038862491
-0.63811249
0.043463581
-0.64097957
0.048621084
-0.64479592
0.054231533
-0.64982101
0.060024321
-0.65613237
0.065108775
-0.66324992
0.067951633
-0.67030969
0.067621431
-0.6766593
0.064595058
-0.68211427
0.060087102
-0.68692673
0.055250294
-0.69142577
0.050459865
-0.69581685
0.045578405
-0.70025362
0.040476904
-0.70499408
0.035100778
-0.71020149
0.028834331
-0.71569659
0.020483613
-0.72088199
0.0087706084
-0.72496917
-0.0071724156
-0.72679972
-0.028725134
-0.72323186
-0.059055731
-0.7097974
-0.096892929
-0.6872341
-0.12736528
-0.66565425
-0.13248686
-0.64844079
-0.12397972
-0.63630036
-0.1090496
-0.62813509
-0.093419155
-0.62277144
-0.079047088
-0.61926875
-0.066555591
-0.61696816
-0.055916834
-0.61543681
-0.046879526
-0.61439936
-0.039149356
-0.61368323
-0.032457027
-0.61318089
-0.026576342
-0.61282538
-0.021322904
-0.61257507
-0.016547139
-0.61240418
-0.012127109
-0.61229701
-0.0079605955
-0.0039521659
-0.63049027
0.019981418
-0.63061982
0.020303414
-0.63077083
0.020882991
-0.63094763
0.021775147
-0.63115926
0.022998544
-0.63142224
0.024590214
-0.63176305
0.02659766
-0.63222204
0.029080517
-0.63285907
0.032110614
-0.6337625
0.035773646
-0.63506444
0.040164431
-0.63695062
0.045349755
-0.63964601
0.051316478
-0.64343021
0.058015731
-0.64872256
0.065316667
-0.6558218
0.072208015
-0.66410935
0.076239184
-0.67220497
0.075717051
-0.67914528
0.071535365
-0.68470223
0.065644062
-0.68939234
0.059940401
-0.69377795
0.054845477
-0.6981376
0.049938054
-0.7026002
0.044939504
-0.70761203
0.04011261
-0.71359372
0.03481602
-0.7205026
0.027392495
-0.72773213
0.016000133
-0.73427939
-0.00062515333
-0.73920327
-0.023801261
-0.73833186
-0.059927132
-0.7234956
-0.11172919
-0.6924832
-0.15837768
-0.66469657
-0.16027349
-0.64430096
-0.14437533
-0.6313913
-0.12195926
-0.62358302
-0.10122744
-0.61896663
-0.08366348
-0.6162585
-0.069263715
-0.61466562
-0.057509712
-0.61371996
-0.047825195
-0.61315047
-0.03971884
-0.61280129
-0.032806207
-0.61258279
-0.026794842
-0.61244339
-0.021462303
-0.61235344
-0.016637089
-0.61229599
-0.012184559
-0.61226149
-0.0079950995
-0.0039687028
-0.63007848
0.019880213
-0.63002794
0.020252877
-0.62999532
0.020850368
-0.62997625
0.021756079
-0.62997277
0.022995061
-0.6299948
0.024612247
-0.63006163
0.026664495
-0.63020622
0.029225102
-0.63048154
0.032385933
-0.63097114
0.036263244
-0.63181144
0.041004731
-0.63321969
0.046758009
-0.63548198
0.05357877
-0.63894668
0.06148043
-0.64423993
0.070609922
-0.65213532
0.080103405
-0.66194782
0.086051681
-0.67134999
0.085119217
-0.67893525
0.079120626
-0.68436572
0.071074533
-0.68865624
0.064230924
-0.69275109
0.058940327
-0.69705134
0.054238304
-0.70151401
0.049402167
-0.70683809
0.045436698
-0.71385884
0.04183677
-0.72259611
0.036129759
-0.73261914
0.026023165
-0.74190455
0.0086602606
-0.75052998
-0.015175839
-0.75421884
-0.056238268
-0.74047678
-0.12547126
-0.69642064
-0.20243382
-0.66055577
-0.19613836
-0.637035
-0.1678961
-0.62415364
-0.13484061
-0.61751701
-0.10786408
-0.61423904
-0.086941453
-0.61270459
-0.070798156
-0.61204776
-0.058166548
-0.61182143
-0.048051526
-0.61179737
-0.039742894
-0.61186
-0.03274358
-0.61195141
-0.026703432
-0.61204331
-0.021370402
-0.61212256
-0.016557842
-0.61218362
-0.012123504
-0.61222455
-0.0079541612
-0.0039483069
-0.62618379
0.019548817
-0.62589612
0.019965213
-0.6256043
0.02055855
-0.62530175
0.021453524
-0.62498316
0.022676472
-0.62464981
0.024278903
-0.62431058
0.026325259
-0.62398679
0.028901312
-0.62372
0.03211915
-0.62358364
0.036126882
-0.62371021
0.041131299
-0.62434508
0.047392879
-0.62585807
0.055091763
-0.62866644
0.064288793
-0.63355936
0.075502841
-0.64216244
0.088706489
-0.65403772
0.097926959
-0.66487405
0.095955547
-0.67275729
0.087003872
-0.67707098
0.075388223
-0.67991054
0.067070484
-0.68282207
0.061851849
-0.68642894
0.057845175
-0.69004515
0.05301838
-0.69450598
0.049897532
-0.70161404
0.048944822
-0.71115689
0.045672608
-0.72409858
0.038964858
-0.73556632
0.020128001
-0.74986074
-0.000881413
-0.76244948
-0.043649536
-0.75916578
-0.12875495
-0.69459067
-0.26700893
-0.65073437
-0.23999466
-0.625304
-0.19332647
-0.61396272
-0.14618189
-0.60976316
-0.11206364
-0.60860983
-0.088094779
-0.60868416
-0.070723827
-0.60919204
-0.057658665
-0.60980281
-0.047440758
-0.61038442
-0.039161289
-0.6108895
-0.032238492
-0.61130626
-0.026286675
-0.61163706
-0.021039605
-0.61188908
-0.016305819
-0.61207022
-0.011942368
-0.61218723
-0.0078371438
-0.0038907409
-0.61276647
0.018729651
-0.6120362
0.019234946
-0.61128975
0.0198121
-0.61050026
0.020664029
-0.60965
0.021826218
-0.60872693
0.023355833
-0.60772275
0.025321072
-0.60663681
0.027815373
-0.60548361
0.030965957
-0.60430259
0.034945854
-0.60318058
0.040009295
-0.60232603
0.046538327
-0.60215346
0.054919194
-0.60313627
0.065271601
-0.60601271
0.078379288
-0.61372656
0.096420339
-0.62752725
0.11172765
-0.63868999
0.10711829
-0.6454565
0.093770386
-0.64634415
0.076275867
-0.64573642
0.066462755
-0.64567332
0.061788752
-0.64728024
0.059452092
-0.64831177
0.054049915
-0.64944499
0.051030748
-0.65616988
0.05566971
-0.66607512
0.055577846
-0.6838406
0.056730337
-0.69888824
0.035175646
-0.72786022
0.028090563
-0.75027201
-0.02123774
-0.77323459
-0.10579238
-0.67715866
-0.36308486
-0.63076773
-0.28638559
-0.60622335
-0.21787085
-0.59992087
-0.15248437
-0.6002662
-0.11171831
-0.60224903
-0.086111948
-0.60437342
-0.068599435
-0.60623188
-0.055800208
-0.60775545
-0.045917182
-0.60897156
-0.037945182
-0.60992819
-0.031281861
-0.61067129
-0.025543572
-0.611239
-0.0204719
-0.61166107
-0.015883747
-0.61195982
-0.011643624
-0.61215113
-0.0076458315
-0.0037969188
-0.58477964
0.017486198
-0.58351025
0.017965554
-0.58214161
0.018443462
-0.5806695
0.019191918
-0.5790677
0.020224413
-0.57730532
0.021593458
-0.57534575
0.023361498
-0.57314913
0.025618754
-0.57067788
0.028494706
-0.56790481
0.032172786
-0.56482863
0.036933115
-0.56155662
0.043266319
-0.55853279
0.051895363
-0.55652774
0.063266553
-0.55614873
0.078000276
-0.56153156
0.10180317
-0.58049247
0.13068856
-0.59265633
0.11928214
-0.59890979
0.10002385
-0.59405221
0.071418287
-0.58776381
0.060174353
-0.58244274
0.056467688
-0.58157547
0.058584816
-0.57952813
0.052002578
-0.57387611
0.045378725
-0.58519458
0.032529468
-0.59561954
0.037438899
-0.6046797
0.040313169
-0.60342478
0.020480283
-0.63525086
0.039878368
-0.7143457
0.019774522
-0.66918687
-0.054713838
-0.60685834
-0.22710717
-0.57379935
-0.31944457
-0.57150802
-0.22016218
-0.58113688
-0.14285552
-0.58945237
-0.10340281
-0.59561862
-0.079945694
-0.60008654
-0.064131522
-0.60336088
-0.052525867
-0.60579623
-0.043481827
-0.60762935
-0.03611207
-0.60901858
-0.029892627
-0.61007177
-0.024490384
-0.61086356
-0.019680112
-0.61144608
-0.015301224
-0.61185565
-0.01123405
-0.61211694
-0.0073845462
-0.003668953
-0.52687003
0.015076205
-0.52437329
0.015468813
-0.52172095
0.015791126
-0.51887081
0.016341774
-0.51576859
0.017122193
-0.51234648
0.018171353
-0.50851881
0.019533827
-0.50418043
0.021280375
-0.49920712
0.023521397
-0.49346096
0.02642663
-0.48679886
0.030271015
-0.4791163
0.035583753
-0.47060925
0.043388311
-0.46224573
0.054903036
-0.45437865
0.070133196
-0.4476296
0.095054124
-0.47080974
0.1538687
-0.47005099
0.11852338
-0.46091528
0.090888141
-0.42709526
0.037598263
-0.39543627
0.028515369
-0.36804219
0.029073607
-0.30348945
0.020770434
-0.16299961
0.013454903
-0.041146992
0.0077709826
0
0
0
0
0
0
0
0
0
0
0
0
0
0