/*--------------------------------*- C++ -*----------------------------------*\
| =========                 |                                                 |
| \\      /  F ield         | foam-extend: Open Source CFD                    |
|  \\    /   O peration     | Version:     4.1                                |
|   \\  /    A nd           | Web:         http://www.foam-extend.org         |
|    \\/     M anipulation  |                                                 |
\*---------------------------------------------------------------------------*/
FoamFile
{
    version     2.0;
    format      ascii;
    class       volVectorField;
    location    "1.95";
    object      U;
}
// * * * * * * * * * * * * * * * * * * * * * * * * * * * * * * * * * * * * * //

dimensions      [0 1 -1 0 0 0 0];

internalField   nonuniform List<vector> 
4393
(
(146.0489 -0.15650318 0)
(146.5975 -0.16293715 0)
(147.01179 -0.16595127 0)
(147.45302 -0.169602 0)
(147.90407 -0.17400986 0)
(148.36986 -0.17926032 0)
(148.8526 -0.18527521 0)
(149.35444 -0.19190827 0)
(149.87699 -0.19895384 0)
(150.42114 -0.20614891 0)
(150.98694 -0.21317325 0)
(151.57338 -0.21965269 0)
(152.17826 -0.22516788 0)
(152.79805 -0.22927012 0)
(153.42788 -0.2315045 0)
(154.06149 -0.23143771 0)
(154.6914 -0.22868571 0)
(155.30905 -0.22293513 0)
(155.90509 -0.21395436 0)
(156.46957 -0.2015937 0)
(156.99222 -0.18577843 0)
(157.46263 -0.16650099 0)
(157.87046 -0.14381866 0)
(158.20564 -0.11786193 0)
(158.4586 -0.088857026 0)
(158.62066 -0.057159487 0)
(158.68449 -0.023275979 0)
(158.64489 0.012126665 0)
(158.49854 0.047973337 0)
(158.24628 0.082848871 0)
(157.89311 0.11530712 0)
(157.44835 0.14393717 0)
(156.92537 0.16751063 0)
(156.3408 0.18513475 0)
(155.71333 0.19635104 0)
(155.0623 0.20115499 0)
(154.40646 0.19994215 0)
(153.76286 0.19340547 0)
(153.14622 0.18241424 0)
(152.56855 0.16790051 0)
(152.03911 0.15076885 0)
(151.56467 0.13183516 0)
(151.14978 0.11179342 0)
(150.79719 0.091217244 0)
(150.50827 0.070610801 0)
(150.28348 0.050432483 0)
(150.12222 0.030837476 0)
(150.02092 0.011723079 0)
(149.97389 -0.0031700205 0)
(149.47194 -0.39491529 0)
(149.94134 -0.40586687 0)
(150.28758 -0.41396659 0)
(150.65757 -0.42450867 0)
(151.0372 -0.4376084 0)
(151.43148 -0.45330162 0)
(151.84274 -0.47131815 0)
(152.27326 -0.49121255 0)
(152.72471 -0.51237246 0)
(153.19807 -0.53401685 0)
(153.69348 -0.55519397 0)
(154.20999 -0.57478923 0)
(154.74548 -0.59155 0)
(155.29645 -0.60413198 0)
(155.85802 -0.61116794 0)
(156.4239 -0.61135186 0)
(156.98653 -0.60352329 0)
(157.53727 -0.58673332 0)
(158.06665 -0.56027902 0)
(158.56461 -0.52370446 0)
(159.02078 -0.47678021 0)
(159.42465 -0.41948041 0)
(159.76579 -0.35197773 0)
(160.03398 -0.2746723 0)
(160.2195 -0.18826572 0)
(160.31345 -0.093876926 0)
(160.3083 0.006845297 0)
(160.19843 0.11165864 0)
(159.98173 0.21748548 0)
(159.65889 0.32051364 0)
(159.23466 0.41654805 0)
(158.71824 0.50139322 0)
(158.123 0.57135861 0)
(157.46573 0.62373699 0)
(156.76535 0.65710954 0)
(156.04147 0.67140909 0)
(155.31302 0.66776032 0)
(154.59716 0.64817309 0)
(153.90862 0.61518119 0)
(153.25934 0.57150317 0)
(152.6585 0.5197722 0)
(152.11272 0.46235053 0)
(151.62645 0.40122606 0)
(151.20242 0.33800178 0)
(150.84201 0.27399619 0)
(150.54554 0.21026769 0)
(150.31218 0.14710531 0)
(150.14086 0.084344876 0)
(150.03531 0.028580565 0)
(149.73739 -0.62939455 0)
(150.19159 -0.63857148 0)
(150.52687 -0.65072118 0)
(150.88501 -0.66771198 0)
(151.25284 -0.6893926 0)
(151.63542 -0.71554086 0)
(152.03526 -0.74564716 0)
(152.45473 -0.77895273 0)
(152.89564 -0.81443544 0)
(153.35911 -0.85079378 0)
(153.84544 -0.88643791 0)
(154.35386 -0.91949958 0)
(154.88236 -0.94787142 0)
(155.42758 -0.96928427 0)
(155.98468 -0.98142469 0)
(156.54738 -0.98208128 0)
(157.10806 -0.96929287 0)
(157.65798 -0.94146427 0)
(158.18755 -0.89742421 0)
(158.68662 -0.83642212 0)
(159.14472 -0.7580852 0)
(159.55127 -0.66237087 0)
(159.89571 -0.54955159 0)
(160.16767 -0.42026119 0)
(160.35714 -0.27562201 0)
(160.45482 -0.11745619 0)
(160.45264 0.051463681 0)
(160.34438 0.22725344 0)
(160.12641 0.40485545 0)
(159.79878 0.57802956 0)
(159.36598 0.73967646 0)
(158.83741 0.88259928 0)
(158.22712 1.0004403 0)
(157.55291 1.0885464 0)
(156.83491 1.1445117 0)
(156.09388 1.1682803 0)
(155.34967 1.1618479 0)
(154.6201 1.1287117 0)
(153.9202 1.0732322 0)
(153.26196 1.0000465 0)
(152.6544 0.91360642 0)
(152.10385 0.81786984 0)
(151.61442 0.71613382 0)
(151.18849 0.61100882 0)
(150.82718 0.50451251 0)
(150.53034 0.39807293 0)
(150.29671 0.29220458 0)
(150.12702 0.18720533 0)
(150.02928 0.087413788 0)
(149.82993 -0.85841088 0)
(150.2762 -0.86818799 0)
(150.60689 -0.88443653 0)
(150.96021 -0.90797791 0)
(151.32346 -0.93842374 0)
(151.70181 -0.97532339 0)
(152.09796 -1.017934 0)
(152.51447 -1.0651989 0)
(152.95336 -1.1157048 0)
(153.41601 -1.1676459 0)
(153.90294 -1.2188024 0)
(154.41358 -1.2665474 0)
(154.94612 -1.3078967 0)
(155.49728 -1.3396162 0)
(156.06222 -1.3583915 0)
(156.63452 -1.3610459 0)
(157.20632 -1.3447654 0)
(157.76854 -1.3072742 0)
(158.31128 -1.2469184 0)
(158.82404 -1.1626521 0)
(159.29607 -1.0539579 0)
(159.71652 -0.92076033 0)
(160.07456 -0.76338755 0)
(160.35948 -0.58262722 0)
(160.56077 -0.37990518 0)
(160.66846 -0.15759442 0)
(160.67364 0.080594756 0)
(160.56908 0.32929795 0)
(160.35013 0.58129898 0)
(160.01601 0.82757937 0)
(159.57083 1.0577958 0)
(159.02428 1.2613679 0)
(158.39145 1.4289117 0)
(157.69177 1.5535897 0)
(156.94728 1.6319476 0)
(156.18053 1.6640472 0)
(155.41286 1.6529783 0)
(154.66304 1.6039963 0)
(153.94658 1.5235522 0)
(153.2755 1.4184206 0)
(152.65855 1.2950356 0)
(152.10159 1.1590619 0)
(151.60818 1.0151827 0)
(151.1802 0.86707327 0)
(150.81825 0.71749267 0)
(150.52164 0.56832295 0)
(150.28881 0.42059248 0)
(150.12121 0.27534753 0)
(150.02715 0.1350256 0)
(149.93892 -1.0819518 0)
(150.37711 -1.0932739 0)
(150.70246 -1.1137412 0)
(151.05041 -1.1439499 0)
(151.40865 -1.1833405 0)
(151.78247 -1.2312734 0)
(152.17479 -1.2867856 0)
(152.58843 -1.3485325 0)
(153.02569 -1.4147172 0)
(153.48825 -1.4830306 0)
(153.97696 -1.5506121 0)
(154.49155 -1.6140479 0)
(155.03044 -1.6694276 0)
(155.59049 -1.7124793 0)
(156.16684 -1.7387987 0)
(156.75287 -1.7441541 0)
(157.34035 -1.7248094 0)
(157.91977 -1.6777761 0)
(158.48071 -1.6009275 0)
(159.01226 -1.4929608 0)
(159.50328 -1.3532603 0)
(159.94259 -1.1817472 0)
(160.31906 -0.97880021 0)
(160.62155 -0.74531265 0)
(160.83897 -0.48292565 0)
(160.96049 -0.19445109 0)
(160.97602 0.11557405 0)
(160.87701 0.44040952 0)
(160.65725 0.77075543 0)
(160.31473 1.0946364 0)
(159.85288 1.398037 0)
(159.28173 1.6664156 0)
(158.61787 1.8868031 0)
(157.88307 2.0498088 0)
(157.10209 2.1508402 0)
(156.3001 2.1902461 0)
(155.50046 2.1725464 0)
(154.72327 2.1051457 0)
(153.98459 1.9969419 0)
(153.29645 1.8571166 0)
(152.66714 1.694249 0)
(152.10183 1.5157732 0)
(151.60332 1.3277346 0)
(151.17272 1.1347786 0)
(150.80995 0.94026466 0)
(150.51371 0.7463869 0)
(150.28219 0.55444182 0)
(150.11706 0.3656172 0)
(150.02586 0.18119235 0)
(150.07649 -1.3029529 0)
(150.50471 -1.3163119 0)
(150.82324 -1.3411848 0)
(151.16438 -1.3782833 0)
(151.51625 -1.4269431 0)
(151.88433 -1.4863925 0)
(152.27176 -1.5554872 0)
(152.68167 -1.6326287 0)
(153.11674 -1.7156648 0)
(153.57904 -1.8018002 0)
(154.06983 -1.8875329 0)
(154.58926 -1.9686354 0)
(155.13608 -2.0402099 0)
(155.70733 -2.0968487 0)
(156.29815 -2.1329283 0)
(156.90166 -2.1430243 0)
(157.50916 -2.122364 0)
(158.11051 -2.0671836 0)
(158.69463 -1.9748785 0)
(159.25005 -1.8439242 0)
(159.76515 -1.673648 0)
(160.22843 -1.4639793 0)
(160.62838 -1.215302 0)
(160.95343 -0.92849805 0)
(161.19179 -0.60523898 0)
(161.33155 -0.24854799 0)
(161.36115 0.13642564 0)
(161.27019 0.54165318 0)
(161.05039 0.95566286 0)
(160.69784 1.3632376 0)
(160.21494 1.7460867 0)
(159.61207 2.084872 0)
(158.90778 2.3622202 0)
(158.12714 2.5656604 0)
(157.29869 2.6893655 0)
(156.45115 2.7342653 0)
(155.61059 2.7068436 0)
(154.79877 2.617259 0)
(154.03241 2.4774023 0)
(153.32335 2.2992823 0)
(152.67921 2.0939007 0)
(152.10416 1.8706092 0)
(151.59994 1.6368633 0)
(151.16662 1.3982523 0)
(150.80317 1.1586724 0)
(150.50754 0.92055163 0)
(150.27748 0.68523079 0)
(150.11443 0.45353927 0)
(150.02513 0.22567278 0)
(150.24333 -1.5149151 0)
(150.66 -1.5306063 0)
(150.97019 -1.5601529 0)
(151.30294 -1.6044755 0)
(151.64694 -1.6628362 0)
(152.00783 -1.7343748 0)
(152.38907 -1.8178052 0)
(152.79415 -1.9113133 0)
(153.22619 -2.0124249 0)
(153.68777 -2.1178812 0)
(154.18068 -2.2235403 0)
(154.70559 -2.3243319 0)
(155.26172 -2.4142991 0)
(155.84639 -2.4867765 0)
(156.45474 -2.5347556 0)
(157.07959 -2.5514397 0)
(157.71159 -2.5308762 0)
(158.33977 -2.4684622 0)
(158.9522 -2.3611432 0)
(159.53666 -2.2072659 0)
(160.08104 -2.0062059 0)
(160.57343 -1.7579674 0)
(161.00204 -1.4629266 0)
(161.35486 -1.1218392 0)
(161.61936 -0.73618728 0)
(161.78237 -0.30890546 0)
(161.83046 0.15456332 0)
(161.75091 0.64516219 0)
(161.53252 1.1493553 0)
(161.16872 1.6483691 0)
(160.66021 2.1188365 0)
(160.01762 2.5354322 0)
(159.26211 2.875175 0)
(158.42322 3.1217403 0)
(157.5347 3.267935 0)
(156.62999 3.3156988 0)
(155.73869 3.2742248 0)
(154.88454 3.1572326 0)
(154.08491 2.980299 0)
(153.35126 2.7587572 0)
(152.69013 2.5063251 0)
(152.10436 2.2343984 0)
(151.59425 1.9518492 0)
(151.15854 1.6651489 0)
(150.79505 1.3786524 0)
(150.50078 1.0949561 0)
(150.27284 0.81535764 0)
(150.11214 0.5402889 0)
(150.02456 0.26916634 0)
(150.43875 -1.7254258 0)
(150.84135 -1.7434664 0)
(151.14158 -1.7777081 0)
(151.46428 -1.8293626 0)
(151.79881 -1.8976678 0)
(152.15099 -1.9817308 0)
(152.52462 -2.0801808 0)
(152.92362 -2.1910463 0)
(153.35163 -2.3115857 0)
(153.81186 -2.4381182 0)
(154.30677 -2.5658783 0)
(154.8377 -2.6889284 0)
(155.40449 -2.8001713 0)
(156.00486 -2.8915299 0)
(156.63404 -2.9543864 0)
(157.28442 -2.9803158 0)
(157.94585 -2.9619715 0)
(158.60621 -2.8938108 0)
(159.25248 -2.7723629 0)
(159.87151 -2.5959731 0)
(160.45059 -2.3642107 0)
(160.97751 -2.077243 0)
(161.44023 -1.7354182 0)
(161.82644 -1.3392073 0)
(162.12288 -0.88960071 0)
(162.31495 -0.38902638 0)
(162.38701 0.15724048 0)
(162.32338 0.73946785 0)
(162.10897 1.3421791 0)
(161.73338 1.9427315 0)
(161.19461 2.5116562 0)
(160.5033 3.0159758 0)
(159.684 3.4253648 0)
(158.77235 3.7185551 0)
(157.80919 3.8868771 0)
(156.83422 3.9339784 0)
(155.88146 3.8728727 0)
(154.977 3.7219822 0)
(154.1387 3.5015026 0)
(153.3772 3.2307242 0)
(152.6975 2.9264244 0)
(152.10061 2.6021566 0)
(151.58495 2.2681659 0)
(151.14761 1.93167 0)
(150.78497 1.5973065 0)
(150.49295 1.267645 0)
(150.26784 0.94373504 0)
(150.10983 0.62551195 0)
(150.02402 0.31173441 0)
(150.66219 -1.921048 0)
(151.04919 -1.9416758 0)
(151.33789 -1.9810178 0)
(151.64881 -2.0405656 0)
(151.97212 -2.1195475 0)
(152.31385 -2.2170846 0)
(152.6782 -2.3317809 0)
(153.06956 -2.4615737 0)
(153.49222 -2.6035197 0)
(153.95009 -2.7535691 0)
(154.44648 -2.906358 0)
(154.98362 -3.0550594 0)
(155.56213 -3.1913422 0)
(156.18037 -3.3055261 0)
(156.83369 -3.3870867 0)
(157.51403 -3.4256171 0)
(158.21014 -3.4120789 0)
(158.90843 -3.3398607 0)
(159.59436 -3.2051562 0)
(160.25367 -3.0065365 0)
(160.873 -2.7440206 0)
(161.4399 -2.4181154 0)
(161.94235 -2.0291669 0)
(162.36788 -1.577195 0)
(162.70264 -1.0623249 0)
(162.93058 -0.48592647 0)
(163.03337 0.14753995 0)
(162.99172 0.8282717 0)
(162.78538 1.5392607 0)
(162.39851 2.2537534 0)
(161.82486 2.9348994 0)
(161.07448 3.5397221 0)
(160.17633 4.0279858 0)
(159.17447 4.3718927 0)
(158.11936 4.5612121 0)
(157.05902 4.6023809 0)
(156.03299 4.5138343 0)
(155.06991 4.3202493 0)
(154.18778 4.0476357 0)
(153.39583 3.7199945 0)
(152.69681 3.3575295 0)
(152.08924 2.9760382 0)
(151.56919 2.5870521 0)
(151.13168 2.1983645 0)
(150.77141 1.8146982 0)
(150.483 1.4383939 0)
(150.2618 1.0700618 0)
(150.10717 0.70902272 0)
(150.02341 0.35333298 0)
(150.91341 -2.1185704 0)
(151.2815 -2.1416624 0)
(151.55679 -2.1859538 0)
(151.85405 -2.2533047 0)
(152.16426 -2.3429974 0)
(152.49367 -2.4542347 0)
(152.84687 -2.5856764 0)
(153.22882 -2.7352621 0)
(153.64451 -2.899945 0)
(154.09873 -3.0753961 0)
(154.59582 -3.2557139 0)
(155.13911 -3.4331895 0)
(155.7303 -3.59818 0)
(156.36862 -3.7391924 0)
(157.04972 -3.8434255 0)
(157.76504 -3.8980143 0)
(158.50184 -3.8918112 0)
(159.24453 -3.8169635 0)
(159.97659 -3.669467 0)
(160.68231 -3.4484697 0)
(161.34765 -3.1548214 0)
(161.96015 -2.7896224 0)
(162.50809 -2.3532597 0)
(162.97923 -1.8450887 0)
(163.35942 -1.2638745 0)
(163.63114 -0.60918292 0)
(163.77308 0.11624594 0)
(163.76153 0.90344947 0)
(163.5695 1.7345472 0)
(163.17347 2.5786449 0)
(162.56057 3.3900035 0)
(161.7391 4.112356 0)
(160.74374 4.6917342 0)
(159.63022 5.0914947 0)
(158.46232 5.2998957 0)
(157.29902 5.3278912 0)
(156.18666 5.2016875 0)
(155.15645 4.9543384 0)
(154.22587 4.6191809 0)
(153.40177 4.2257867 0)
(152.6837 3.7981202 0)
(152.0669 3.3542084 0)
(151.54448 2.9066635 0)
(151.10898 2.4635705 0)
(150.75314 2.029446 0)
(150.47013 1.6061362 0)
(150.25423 1.1935963 0)
(150.1039 0.7903942 0)
(150.02268 0.39378363 0)
(151.1905 -2.2909292 0)
(151.53868 -2.316616 0)
(151.79896 -2.3662435 0)
(152.08069 -2.4420033 0)
(152.37584 -2.5432474 0)
(152.69089 -2.6693258 0)
(153.03085 -2.8190455 0)
(153.40129 -2.9904597 0)
(153.80799 -3.1805407 0)
(154.25679 -3.3847973 0)
(154.75325 -3.5968767 0)
(155.3021 -3.8082132 0)
(155.90647 -4.0077723 0)
(156.56681 -4.1819932 0)
(157.2794 -4.3152951 0)
(158.03506 -4.3916543 0)
(158.81916 -4.3971632 0)
(159.61335 -4.3224352 0)
(160.39841 -4.163459 0)
(161.15679 -3.9204873 0)
(161.8738 -3.5957791 0)
(162.53728 -3.1914308 0)
(163.13633 -2.7080034 0)
(163.65953 -2.1440039 0)
(164.09285 -1.4962785 0)
(164.41756 -0.76165784 0)
(164.60907 0.060040522 0)
(164.63844 0.96206607 0)
(164.46999 1.926836 0)
(164.06949 2.9196738 0)
(163.41371 3.8843468 0)
(162.50705 4.7466758 0)
(161.39153 5.433126 0)
(160.13942 5.8947247 0)
(158.83316 6.1185709 0)
(157.54627 6.1229003 0)
(156.33319 5.9451406 0)
(155.22741 5.629599 0)
(154.2447 5.2188185 0)
(153.3881 4.7488741 0)
(152.6527 4.2477394 0)
(152.02945 3.7355112 0)
(151.50782 3.2255299 0)
(151.07742 2.7257671 0)
(150.72878 2.2401497 0)
(150.45347 1.7697006 0)
(150.24464 1.3134616 0)
(150.09983 0.86906768 0)
(150.02177 0.432821 0)
(151.49499 -2.4738484 0)
(151.8188 -2.5022093 0)
(152.06188 -2.5571336 0)
(152.32587 -2.6412561 0)
(152.60371 -2.7540765 0)
(152.902 -2.8951731 0)
(153.22623 -3.0636056 0)
(153.58258 -3.257672 0)
(153.97773 -3.4745172 0)
(154.41872 -3.709648 0)
(154.91259 -3.9563954 0)
(155.46579 -4.2054118 0)
(156.08338 -4.4442373 0)
(156.76757 -4.6569974 0)
(157.51569 -4.8247318 0)
(158.31801 -4.9273205 0)
(159.15738 -4.9471889 0)
(160.01159 -4.873055 0)
(160.85765 -4.7013049 0)
(161.67565 -4.434218 0)
(162.4503 -4.0764223 0)
(163.1702 -3.6316505 0)
(163.826 -3.1008573 0)
(164.40791 -2.4814835 0)
(164.90282 -1.7677115 0)
(165.29123 -0.95232074 0)
(165.54523 -0.030497167 0)
(165.62897 0.99513238 0)
(165.49756 2.1090148 0)
(165.10114 3.2741411 0)
(164.40039 4.4222955 0)
(163.39186 5.4549464 0)
(162.12684 6.2698986 0)
(160.70163 6.8004586 0)
(159.22515 7.0336209 0)
(157.79023 6.9993796 0)
(156.46075 6.7514869 0)
(155.27147 6.3493667 0)
(154.23446 5.8470204 0)
(153.3469 5.2879324 0)
(152.59774 4.7041226 0)
(151.97246 4.1173455 0)
(151.4561 3.5410957 0)
(151.0349 2.98266 0)
(150.69697 2.444882 0)
(150.4322 1.9275674 0)
(150.23259 1.4285523 0)
(150.09477 0.94433479 0)
(150.02066 0.47010139 0)
(151.82145 -2.6141405 0)
(152.12076 -2.6447358 0)
(152.34508 -2.7047775 0)
(152.58941 -2.7972845 0)
(152.84782 -2.921927 0)
(153.12706 -3.0786063 0)
(153.43304 -3.2667757 0)
(153.77259 -3.4851637 0)
(154.15338 -3.7313144 0)
(154.58378 -4.0009832 0)
(155.07259 -4.2874226 0)
(155.6284 -4.5806786 0)
(156.25871 -4.8669279 0)
(156.96828 -5.1277877 0)
(157.7562 -5.3401929 0)
(158.61236 -5.4785782 0)
(159.51623 -5.5202437 0)
(160.44012 -5.4513113 0)
(161.35575 -5.2690152 0)
(162.24006 -4.9788737 0)
(163.07735 -4.5890939 0)
(163.85786 -4.1057409 0)
(164.57482 -3.5303322 0)
(165.2213 -2.8590012 0)
(165.78633 -2.0824818 0)
(166.25049 -1.1879814 0)
(166.5826 -0.16396382 0)
(166.73938 0.99331581 0)
(166.66426 2.2730489 0)
(166.28652 3.6388224 0)
(165.54188 5.0097679 0)
(164.41171 6.254213 0)
(162.95883 7.2267868 0)
(161.31518 7.8343665 0)
(159.62819 8.0664544 0)
(158.01629 7.9721078 0)
(156.55374 7.6289876 0)
(155.27431 7.1167451 0)
(154.18321 6.5034106 0)
(153.26889 5.840581 0)
(152.51197 5.163976 0)
(151.89108 4.4962173 0)
(151.38601 3.8500825 0)
(150.97926 3.2313976 0)
(150.65637 2.6413021 0)
(150.40553 2.0779207 0)
(150.21767 1.5375579 0)
(150.08855 1.0153537 0)
(150.01929 0.50521348 0)
(152.17465 -2.7815938 0)
(152.44372 -2.8153328 0)
(152.64675 -2.8812311 0)
(152.86888 -2.9828208 0)
(153.10516 -3.1200396 0)
(153.36236 -3.2932138 0)
(153.64675 -3.5023255 0)
(153.96579 -3.7467079 0)
(154.32815 -4.0245231 0)
(154.74375 -4.3320299 0)
(155.22343 -4.6626499 0)
(155.77837 -5.0060038 0)
(156.41923 -5.3469762 0)
(157.1544 -5.664478 0)
(157.98597 -5.9304101 0)
(158.90398 -6.1117754 0)
(159.88345 -6.178441 0)
(160.88889 -6.1128395 0)
(161.88437 -5.9139522 0)
(162.84262 -5.5927963 0)
(163.74794 -5.1634848 0)
(164.59334 -4.6359224 0)
(165.37602 -4.0129109 0)
(166.09333 -3.2894656 0)
(166.73808 -2.4522384 0)
(167.29224 -1.4808958 0)
(167.72185 -0.35405894 0)
(167.97576 0.94198527 0)
(167.98399 2.4052866 0)
(167.64863 4.0054619 0)
(166.86701 5.6507794 0)
(165.592 7.1649951 0)
(163.89973 8.3359338 0)
(161.97666 9.0292371 0)
(160.02753 9.243009 0)
(158.20443 9.0573641 0)
(156.59184 8.5851892 0)
(155.21816 7.932942 0)
(154.07683 7.185357 0)
(153.14355 6.4023163 0)
(152.38796 5.622239 0)
(151.78027 4.867273 0)
(151.29428 4.1482219 0)
(150.90845 3.4684363 0)
(150.60573 2.8266007 0)
(150.37276 2.2186363 0)
(150.19952 1.6389695 0)
(150.08103 1.0811619 0)
(150.01763 0.53768755 0)
(152.54178 -2.879809 0)
(152.7815 -2.9149458 0)
(152.96176 -2.9850791 0)
(153.15971 -3.0941297 0)
(153.3716 -3.2422934 0)
(153.60416 -3.4304067 0)
(153.86398 -3.6591395 0)
(154.15911 -3.9286736 0)
(154.49927 -4.2381348 0)
(154.89601 -4.5847417 0)
(155.36254 -4.9626062 0)
(155.91316 -5.3614287 0)
(156.56248 -5.7652635 0)
(157.32393 -6.1506013 0)
(158.2045 -6.4836799 0)
(159.19543 -6.7216578 0)
(160.26587 -6.8236506 0)
(161.36871 -6.7667893 0)
(162.45664 -6.553238 0)
(163.49647 -6.2028056 0)
(164.4732 -5.7384148 0)
(165.38456 -5.1748561 0)
(166.23365 -4.5158068 0)
(167.02424 -3.7542676 0)
(167.75556 -2.8713315 0)
(168.41351 -1.8362704 0)
(168.96248 -0.6139187 0)
(169.34329 0.82336173 0)
(169.47201 2.4868623 0)
(169.2163 4.3601571 0)
(168.41529 6.3472063 0)
(166.96902 8.2137665 0)
(164.96627 9.6418786 0)
(162.6795 10.429067 0)
(160.40122 10.595949 0)
(158.32696 10.273424 0)
(156.54861 9.6265382 0)
(155.08116 8.7966275 0)
(153.89885 7.8874008 0)
(152.95927 6.9661171 0)
(152.21794 6.0718575 0)
(151.63504 5.2241948 0)
(151.17781 4.4302251 0)
(150.82062 3.6895493 0)
(150.54402 2.9975267 0)
(150.33333 2.3473117 0)
(150.17788 1.7311081 0)
(150.07212 1.1406984 0)
(150.01568 0.56700794 0)
(152.93698 -3.0310697 0)
(153.14049 -3.0701556 0)
(153.29541 -3.1468666 0)
(153.46664 -3.2656909 0)
(153.65135 -3.4272562 0)
(153.85599 -3.6331133 0)
(154.08727 -3.8848745 0)
(154.3537 -4.183883 0)
(154.66593 -4.5306175 0)
(155.03722 -4.9237378 0)
(155.48341 -5.3585725 0)
(156.02239 -5.8253388 0)
(156.67364 -6.3075874 0)
(157.45741 -6.7795987 0)
(158.38869 -7.2009871 0)
(159.46227 -7.51498 0)
(160.63986 -7.6635632 0)
(161.85729 -7.6146656 0)
(163.05023 -7.3750435 0)
(164.17756 -6.9781596 0)
(165.22683 -6.4605412 0)
(166.20377 -5.8441804 0)
(167.12003 -5.1345118 0)
(167.98794 -4.3239687 0)
(168.81607 -3.3897451 0)
(169.5972 -2.2900738 0)
(170.29528 -0.97230534 0)
(170.84296 0.61051473 0)
(171.14351 2.4900852 0)
(171.02502 4.6786429 0)
(170.24136 7.0944266 0)
(168.5961 9.4336123 0)
(166.18203 11.207701 0)
(163.41157 12.093523 0)
(160.7165 12.166133 0)
(158.34554 11.639649 0)
(156.38986 10.756605 0)
(154.83682 9.7022174 0)
(153.63054 8.5999752 0)
(152.7037 7.521635 0)
(151.99418 6.5033447 0)
(151.4508 5.5590048 0)
(151.034 4.6897289 0)
(150.71437 3.8898447 0)
(150.4705 3.1504322 0)
(150.2869 2.4613167 0)
(150.1526 1.8121685 0)
(150.06175 1.1928357 0)
(150.01342 0.59262953 0)
(153.33168 -3.0768235 0)
(153.50077 -3.1160486 0)
(153.62882 -3.1954305 0)
(153.77115 -3.3198203 0)
(153.926 -3.4901529 0)
(154.09947 -3.7086388 0)
(154.29829 -3.9778316 0)
(154.53128 -4.3003186 0)
(154.80995 -4.6781595 0)
(155.1493 -5.1119255 0)
(155.56818 -5.598906 0)
(156.08871 -6.1307063 0)
(156.73614 -6.6913649 0)
(157.53983 -7.2544111 0)
(158.52746 -7.7736012 0)
(159.70196 -8.174417 0)
(161.01592 -8.3733006 0)
(162.37903 -8.3244953 0)
(163.70037 -8.0441566 0)
(164.92694 -7.5894198 0)
(166.05133 -7.0193893 0)
(167.0919 -6.3662471 0)
(168.07142 -5.6359734 0)
(169.01248 -4.8188873 0)
(169.93708 -3.8864067 0)
(170.85099 -2.7790418 0)
(171.72208 -1.4148995 0)
(172.4772 0.2840279 0)
(173.01214 2.3776581 0)
(173.11576 4.9213748 0)
(172.42032 7.876436 0)
(170.55375 10.866636 0)
(167.5816 13.127295 0)
(164.15062 14.105421 0)
(160.92371 14.004726 0)
(158.20685 13.174884 0)
(156.07174 11.973509 0)
(154.4537 10.637668 0)
(153.25146 9.3079485 0)
(152.36449 8.0544023 0)
(151.70971 6.9044405 0)
(151.22387 5.8619848 0)
(150.86107 4.9193403 0)
(150.58892 4.0638551 0)
(150.38491 3.2813689 0)
(150.23339 2.5578765 0)
(150.12367 1.880283 0)
(150.04994 1.2364228 0)
(150.01084 0.61399927 0)
(153.75569 -3.2105286 0)
(153.88268 -3.2554319 0)
(153.98163 -3.3424612 0)
(154.09299 -3.4770501 0)
(154.2157 -3.660705 0)
(154.35516 -3.8966902 0)
(154.51781 -4.1890342 0)
(154.71249 -4.5422801 0)
(154.95118 -4.9610036 0)
(155.2503 -5.4489369 0)
(155.63165 -6.0069245 0)
(156.12194 -6.6295786 0)
(156.75263 -7.302766 0)
(157.56419 -8.0010927 0)
(158.60367 -8.6739799 0)
(159.89075 -9.2230229 0)
(161.36801 -9.5216926 0)
(162.90497 -9.4972079 0)
(164.369 -9.1778314 0)
(165.69042 -8.6551964 0)
(166.87325 -8.0208315 0)
(167.95841 -7.3168954 0)
(168.9853 -6.5442377 0)
(169.9892 -5.6889931 0)
(171.01178 -4.7215283 0)
(172.08126 -3.5675635 0)
(173.1739 -2.1154382 0)
(174.20834 -0.25761189 0)
(175.06621 2.0891978 0)
(175.52436 5.0320975 0)
(175.04923 8.656016 0)
(172.96252 12.558858 0)
(169.21552 15.541404 0)
(164.85469 16.579561 0)
(160.94683 16.174548 0)
(157.83669 14.893702 0)
(155.53883 13.265542 0)
(153.89572 11.581256 0)
(152.74048 9.9887722 0)
(151.93042 8.5449914 0)
(151.35922 7.2598652 0)
(150.95215 6.1217181 0)
(150.65849 5.1107888 0)
(150.44443 4.2057102 0)
(150.28758 3.3862396 0)
(150.17313 2.6341906 0)
(150.0913 1.9336071 0)
(150.03677 1.2703395 0)
(150.00798 0.630583 0)
(154.13603 -3.1946863 0)
(154.22231 -3.237887 0)
(154.29033 -3.3245007 0)
(154.36798 -3.4608703 0)
(154.45498 -3.6490528 0)
(154.55571 -3.8932579 0)
(154.67605 -4.1987739 0)
(154.82445 -4.5717931 0)
(155.01294 -5.0190386 0)
(155.25899 -5.5471222 0)
(155.58751 -6.1605264 0)
(156.03058 -6.8572109 0)
(156.62673 -7.6250552 0)
(157.42961 -8.4415036 0)
(158.51561 -9.2566669 0)
(159.93816 -9.9451426 0)
(161.63228 -10.313362 0)
(163.40428 -10.243883 0)
(165.05399 -9.7924581 0)
(166.48648 -9.1123503 0)
(167.72734 -8.3536446 0)
(168.85534 -7.5750313 0)
(169.93073 -6.7696628 0)
(170.99657 -5.922699 0)
(172.11533 -5.0183305 0)
(173.3477 -3.9702124 0)
(174.6841 -2.6195375 0)
(176.03287 -0.79604491 0)
(177.28229 1.6461423 0)
(178.24498 4.9155079 0)
(178.21501 9.3274207 0)
(175.983 14.535083 0)
(171.15292 18.674791 0)
(165.44356 19.685662 0)
(160.66921 18.753511 0)
(157.13224 16.799796 0)
(154.72272 14.604313 0)
(153.12358 12.497236 0)
(152.07795 10.610405 0)
(151.39325 8.9683393 0)
(150.94036 7.5513296 0)
(150.63596 6.3253586 0)
(150.42752 5.2552423 0)
(150.28222 4.3094137 0)
(150.1796 3.4610143 0)
(150.10684 2.6875899 0)
(150.05591 1.9704258 0)
(150.02242 1.2935627 0)
(150.00486 0.64189696 0)
(154.44917 -3.3022458 0)
(154.48551 -3.3566794 0)
(154.51866 -3.4545613 0)
(154.55834 -3.6033154 0)
(154.60487 -3.8054459 0)
(154.66137 -4.066245 0)
(154.73286 -4.3925731 0)
(154.82708 -4.7929315 0)
(154.95559 -5.2774059 0)
(155.13607 -5.8576285 0)
(155.39586 -6.545464 0)
(155.77244 -7.3477212 0)
(156.31061 -8.2600693 0)
(157.07566 -9.2697775 0)
(158.18317 -10.341539 0)
(159.74877 -11.327805 0)
(161.70941 -11.924432 0)
(163.76893 -11.919027 0)
(165.61627 -11.407365 0)
(167.11993 -10.628215 0)
(168.34712 -9.8215882 0)
(169.44332 -9.0578335 0)
(170.4972 -8.2998201 0)
(171.55038 -7.5092681 0)
(172.69262 -6.6866589 0)
(174.0481 -5.7210525 0)
(175.64977 -4.3714276 0)
(177.40807 -2.3761553 0)
(179.22605 0.47500655 0)
(181.00097 4.3266798 0)
(181.86788 9.7701188 0)
(179.76964 16.835908 0)
(173.45906 22.958856 0)
(165.74647 23.683955 0)
(159.90419 21.828257 0)
(155.95016 18.869612 0)
(153.54169 15.933066 0)
(152.09817 13.330052 0)
(151.24923 11.129256 0)
(150.75032 9.2935265 0)
(150.45538 7.7579989 0)
(150.27891 6.4592297 0)
(150.17159 5.3438315 0)
(150.10503 4.3692432 0)
(150.06289 3.5020134 0)
(150.03575 2.715727 0)
(150.01815 1.9892768 0)
(150.00717 1.3052391 0)
(150.00155 0.6475424 0)
(154.38531 -3.2264198 0)
(154.36104 -3.2763552 0)
(154.35209 -3.3656642 0)
(154.34548 -3.5056719 0)
(154.34209 -3.7001726 0)
(154.34314 -3.9560758 0)
(154.35202 -4.2822287 0)
(154.37465 -4.6898427 0)
(154.4205 -5.1926747 0)
(154.50529 -5.8074477 0)
(154.65648 -6.5534421 0)
(154.91618 -7.446374 0)
(155.33502 -8.4870574 0)
(155.98635 -9.6663926 0)
(157.03631 -10.969707 0)
(158.71811 -12.239158 0)
(161.00762 -12.990454 0)
(163.44221 -12.819358 0)
(165.5246 -11.932104 0)
(167.06705 -10.721722 0)
(168.21042 -9.6087468 0)
(169.22025 -8.6682135 0)
(170.23035 -7.79688 0)
(171.25943 -6.8995124 0)
(172.42046 -6.0540335 0)
(173.93752 -5.1960429 0)
(175.90351 -4.0102216 0)
(178.21013 -2.1967262 0)
(180.68137 0.51389809 0)
(183.37351 4.0150927 0)
(185.59558 9.851049 0)
(184.21843 19.141197 0)
(175.9947 28.862688 0)
(165.32564 28.721184 0)
(158.34142 25.418856 0)
(154.09604 21.018282 0)
(151.90623 17.149386 0)
(150.78834 13.997869 0)
(150.25051 11.488969 0)
(150.00811 9.4845556 0)
(149.913 7.8576933 0)
(149.88886 6.509871 0)
(149.8968 5.3684187 0)
(149.91719 4.3802712 0)
(149.94031 3.5062468 0)
(149.96157 2.7167926 0)
(149.97892 1.9890832 0)
(149.99135 1.3047623 0)
(149.99812 0.64724104 0)
(153.47561 -3.2561491 0)
(153.37705 -3.3298718 0)
(153.30978 -3.4386855 0)
(153.23683 -3.5988008 0)
(153.16067 -3.8143061 0)
(153.08018 -4.09301 0)
(152.99649 -4.4447066 0)
(152.91279 -4.8820224 0)
(152.83544 -5.4208895 0)
(152.77658 -6.0815834 0)
(152.76202 -6.8904722 0)
(152.83888 -7.8764461 0)
(153.06517 -9.0553929 0)
(153.51259 -10.434111 0)
(154.39403 -12.057077 0)
(156.14056 -13.84634 0)
(158.84971 -15.094579 0)
(161.75876 -14.978302 0)
(164.04126 -13.952294 0)
(165.4347 -12.558991 0)
(166.22821 -11.491836 0)
(166.92116 -10.755756 0)
(167.71745 -10.149306 0)
(168.53755 -9.4729289 0)
(169.45585 -9.0181285 0)
(170.86712 -8.8483472 0)
(172.96928 -8.2920746 0)
(175.65779 -7.0428871 0)
(178.57216 -4.4765375 0)
(182.42926 -0.72728083 0)
(187.15839 7.2307698 0)
(188.24556 20.228471 0)
(177.92813 36.681033 0)
(163.24699 34.969201 0)
(155.5947 29.536042 0)
(151.35119 23.102785 0)
(149.73668 18.092291 0)
(149.1848 14.388261 0)
(149.09723 11.621626 0)
(149.18648 9.5029457 0)
(149.33031 7.8291596 0)
(149.47858 6.4656296 0)
(149.61204 5.3226124 0)
(149.72459 4.3389858 0)
(149.81557 3.4717867 0)
(149.88647 2.6897357 0)
(149.93934 1.9692825 0)
(149.97543 1.291844 0)
(149.99467 0.64086767 0)
(150.27862 -3.155275 0)
(150.03198 -3.2213512 0)
(149.86064 -3.3060136 0)
(149.67255 -3.4358372 0)
(149.47246 -3.6160388 0)
(149.25558 -3.8554463 0)
(149.01943 -4.1649208 0)
(148.76261 -4.5592333 0)
(148.48548 -5.058415 0)
(148.19176 -5.6900346 0)
(147.89692 -6.4944283 0)
(147.64242 -7.5277754 0)
(147.48317 -8.8431793 0)
(147.45914 -10.471267 0)
(147.78384 -12.507516 0)
(149.20303 -15.035377 0)
(152.18259 -17.053649 0)
(155.43127 -16.589311 0)
(157.58612 -14.746135 0)
(158.33641 -12.18345 0)
(158.23482 -10.348631 0)
(158.16908 -9.1901234 0)
(158.40397 -8.435026 0)
(158.60251 -7.5247391 0)
(158.71872 -7.0237498 0)
(159.66764 -7.0176114 0)
(161.78113 -5.9947768 0)
(164.94962 -4.8735737 0)
(168.68334 -1.9567556 0)
(175.06206 4.1667733 0)
(184.04686 12.175434 0)
(189.65396 24.095434 0)
(176.92314 49.629307 0)
(157.54553 45.387779 0)
(150.91436 34.317512 0)
(147.40324 24.793059 0)
(146.95732 18.491101 0)
(147.31608 14.349943 0)
(147.83444 11.452164 0)
(148.32309 9.312943 0)
(148.73401 7.6556672 0)
(149.06588 6.3187901 0)
(149.32881 5.2029584 0)
(149.53445 4.2439443 0)
(149.69303 3.398126 0)
(149.81295 2.6344623 0)
(149.90068 1.9299357 0)
(149.95989 1.2665722 0)
(149.99131 0.62847594 0)
(143.50991 -2.9198345 0)
(143.10988 -3.0122001 0)
(142.79971 -3.1137262 0)
(142.45148 -3.2633247 0)
(142.07689 -3.4659112 0)
(141.66673 -3.731624 0)
(141.21292 -4.0727833 0)
(140.7061 -4.5065541 0)
(140.13586 -5.0567043 0)
(139.49026 -5.7559385 0)
(138.76264 -6.6519333 0)
(137.97552 -7.8156801 0)
(137.18232 -9.3207529 0)
(136.39285 -11.178076 0)
(135.76004 -13.444311 0)
(136.50386 -16.540656 0)
(140.14377 -19.656643 0)
(144.25782 -18.174244 0)
(146.43868 -15.446636 0)
(146.26448 -11.967178 0)
(144.63857 -10.768967 0)
(143.25526 -10.900756 0)
(142.63851 -11.370363 0)
(142.04302 -10.884893 0)
(141.16561 -10.369101 0)
(141.99171 -10.532129 9.2157738e-18)
(143.27222 -11.921789 -2.0396819e-19)
(145.57724 -13.589584 0)
(146.66475 -7.4755425 1.0016067e-17)
(144.02818 -14.510046 -7.4990624e-18)
(161.53015 -10.13507 4.4273295e-18)
(180.41243 5.4383807 -9.891635e-18)
(167.93166 72.289501 6.3471874e-18)
(142.12824 58.029227 0)
(140.66652 37.126156 0)
(141.63428 24.706927 0)
(143.57067 17.830776 0)
(145.29833 13.692643 0)
(146.55469 10.912851 0)
(147.47727 8.8913077 0)
(148.16032 7.3301418 0)
(148.67269 6.0680706 0)
(149.06042 5.0101309 0)
(149.35481 4.0963449 0)
(149.57745 3.2864573 0)
(149.74366 2.5519733 0)
(149.86425 1.871797 0)
(149.94526 1.2294453 0)
(149.98814 0.61031307 0)
(129.54802 -2.8693204 0)
(128.76411 -2.9446639 0)
(128.1604 -3.0084992 0)
(127.48612 -3.110009 0)
(126.76121 -3.2511166 0)
(125.96661 -3.4389955 0)