/*--------------------------------*- C++ -*----------------------------------*\
| =========                 |                                                 |
| \\      /  F ield         | foam-extend: Open Source CFD                    |
|  \\    /   O peration     | Version:     4.1                                |
|   \\  /    A nd           | Web:         http://www.foam-extend.org         |
|    \\/     M anipulation  |                                                 |
\*---------------------------------------------------------------------------*/
FoamFile
{
    version     2.0;
    format      ascii;
    class       volScalarField;
    location    "0.45";
    object      p;
}
// * * * * * * * * * * * * * * * * * * * * * * * * * * * * * * * * * * * * * //

dimensions      [0 2 -2 0 0 0 0];

internalField   nonuniform List<scalar> 
16796
(
42.706926
34.687478
54.294604
64.990395
77.550069
88.705977
99.394243
109.33679
118.63943
127.33559
135.5609
143.30143
150.32186
156.56982
162.13176
167.01667
171.24075
174.82591
177.79647
180.18063
182.00925
183.31571
184.13501
184.50313
184.45576
184.02705
183.24785
182.14379
180.7333
179.02538
177.01779
174.69451
172.02532
168.96365
165.44655
161.39489
156.71395
151.29539
145.01937
137.75824
129.3801
119.75196
108.74434
96.239664
82.137229
66.331961
48.733942
29.304571
8.0388041
-15.038181
-39.889317
-66.469606
-94.685328
-124.40098
-155.45842
-187.67232
-220.83044
-254.69503
-289.00516
-323.47824
-357.81228
-391.68817
-424.77224
-456.71899
-487.17417
-515.77822
-542.16998
-565.99082
-586.88911
-604.52501
-618.57549
-628.73954
-634.74336
-636.34552
-633.34186
-625.56994
-612.913
-595.30319
-572.72381
-545.21076
-512.85275
-475.79007
-434.21161
-388.34692
-338.47003
-284.94392
-228.13908
-168.40881
-106.1503
-41.774324
24.299946
91.65265
159.86946
228.54721
297.29879
365.75728
433.57931
500.44762
566.07276
630.19421
692.58066
753.02984
811.36767
867.44718
921.14686
972.36894
1021.0374
1067.0961
1110.5063
1151.245
1189.3032
1224.6836
1257.3996
1287.4743
1314.9402
1339.8404
1362.2214
1382.1429
1399.6949
1415.0698
1428.4465
1439.2619
1449.5557
1472.4289
42.686577
35.260747
54.697637
65.655791
78.325878
89.63383
100.44053
110.47806
119.82579
128.4659
136.3919
143.69655
150.50148
156.73423
162.30047
167.19329
171.42143
175.00492
177.9697
180.34548
182.16449
183.46122
184.27161
184.63248
184.58029
184.14989
183.37279
182.27522
180.87611
179.18489
177.19956
174.90429
172.26877
169.24621
165.77324
161.77014
157.14136
151.77759
145.558
138.3542
130.03347
120.45742
109.49086
97.012364
82.911713
67.106396
49.536611
30.146952
8.9043783
-14.193694
-39.106657
-65.751559
-94.029117
-123.81606
-154.95601
-187.26517
-220.53072
-254.51353
-288.95153
-323.56107
-358.03899
-392.06491
-425.30374
-457.40847
-488.02318
-516.78654
-543.33545
-567.30929
-588.35434
-606.12862
-620.30698
-630.58633
-636.69088
-638.37737
-635.43999
-627.71498
-615.08456
-597.48024
-574.88521
-547.33586
-514.92223
-477.7874
-436.12843
-390.19301
-340.26707
-286.64442
-229.67436
-169.76148
-107.31022
-42.737527
23.533905
91.081374
159.48813
228.34891
297.27482
365.89744
433.87225
500.88108
566.63394
630.86996
693.35778
753.89523
812.30859
868.45132
922.20249
973.46496
1022.1634
1068.2423
1111.6636
1152.4049
1190.4574
1225.8241
1258.5181
1288.5615
1315.9842
1340.8241
1363.1327
1382.9656
1400.3903
1415.5366
1428.4789
1439.0225
1448.4307
1458.6806
41.319325
35.572123
55.194231
66.489444
79.376981
90.90058
101.9042
112.1328
121.6684
130.50374
138.64456
146.08578
152.84802
158.92691
164.30765
169.00009
173.01977
176.38906
179.13533
181.29011
182.88834
183.96777
184.56807
184.72987
184.49349
183.89737
182.97633
181.75947
180.26816
178.51364
176.49517
174.19763
171.5906
168.62665
165.24103
161.35192
156.86104
151.65563
145.61062
138.59051
130.45407
121.06554
110.2949
98.014383
84.106299
68.475082
51.045686
31.763084
10.601955
-12.434072
-37.311726
-63.964614
-92.296517
-122.18188
-153.46312
-185.95094
-219.42957
-253.65993
-288.37798
-323.29719
-358.11082
-392.49436
-426.1081
-458.59999
-489.60873
-518.76735
-545.70696
-570.06106
-591.47008
-609.58634
-624.07917
-634.64034
-640.98934
-642.8787
-640.09906
-632.48374
-619.91284
-602.31652
-579.67741
-552.03205
-519.47149
-482.14183
-440.24117
-394.0146
-343.75666
-289.79624
-232.4924
-172.23266
-109.42414
-44.487874
22.148617
90.057844
158.81863
228.02175
297.27489
366.20683
434.47079
501.74702
567.74442
632.20165
694.88728
755.59957
814.16556
870.43977
924.30261
975.65845
1024.4336
1070.5743
1114.0443
1154.823
1192.9034
1228.2903
1260.9986
1291.0522
1318.4827
1343.3289
1365.6384
1385.4659
1402.8832
1417.9873
1430.8066
1441.4234
1450.6628
1456.7106
41.376395
36.108758
56.003688
67.573026
80.681031
92.395758
103.55104
113.88887
123.48162
132.31479
140.40466
147.77628
154.46956
160.48121
165.78909
170.39561
174.31464
177.5689
180.18816
182.20744
183.66574
184.6052
185.06994
185.105
184.7549
184.06193
183.06434
181.79411
180.27487
178.51946
176.52802
174.28556
171.76105
168.90572
165.65279
161.91777
157.59916
152.58034
146.73012
139.90633
131.96666
122.77017
112.17721
100.05493
86.284458
70.766261
53.421532
34.193127
13.050551
-10.0064
-34.945068
-61.699927
-90.1755
-120.24592
-151.75399
-184.51318
-218.30707
-252.89236
-288.00185
-323.34544
-358.61225
-393.47312
-427.58313
-460.5845
-492.10979
-521.78543
-549.23567
-574.0869
-595.97239
-614.5373
-629.444
-640.3776
-647.05139
-649.21235
-646.64629
-639.18262
-626.69856
-609.12254
-586.43665
-558.67798
-525.9402
-488.37576
-446.18596
-399.61863
-348.96777
-294.56386
-236.77566
-176.00267
-112.66198
-47.183487
19.997138
88.444964
157.73206
227.44322
297.18099
366.56984
435.25965
502.92815
569.2826
634.06078
697.03114
757.99237
816.7725
873.22748
927.23941
978.71462
1027.5815
1073.7883
1117.3008
1158.1002
1196.1811
1231.5493
1264.2204
1294.2177
1321.5719
1346.3193
1368.502
1388.1653
1405.3647
1420.1566
1432.538
1442.646
1450.8851
1455.1625
41.841345
36.7866
57.098109
68.97821
82.380325
94.35145
105.73478
116.27062
126.02986
134.9931
143.17071
150.57335
157.21596
163.10477
168.24419
172.65025
176.34583
179.36026
181.72872
183.4914
184.69258
185.37982
185.60281
185.41209
184.85749
183.98629
182.84126
181.45829
179.86422
178.07432
176.09028
173.89782
171.46554
168.7434
165.66223
162.13426
158.05374
153.2974
147.72431
141.19041
133.54947
124.65033
114.34579
102.49633
88.975191
73.673852
56.505353
37.406761
16.342786
-6.6912347
-31.667324
-58.524223
-87.168439
-117.47429
-149.28382
-182.40832
-216.62883
-251.69828
-287.3451
-323.27407
-359.16821
-394.69136
-429.49086
-463.20049
-495.44376
-525.83758
-553.99634
-579.53632
-602.08066
-621.26448
-636.74044
-648.18437
-655.30101
-657.82961
-655.54932
-648.28407
-635.90697
-618.34389
-595.57573
-567.63994
-534.63443
-496.71668
-454.09313
-407.02111
-355.80475
-300.78665
-242.34445
-180.88481
-116.83447
-50.633467
17.272413
86.438588
156.42825
226.81829
297.20443
367.20555
436.46709
504.66357
571.5002
636.71377
700.07269
761.3765
820.45479
877.16564
931.3938
983.04855
1032.0615
1078.3841
1121.9855
1162.8503
1200.976
1236.3713
1269.0539
1299.0491
1326.388
1351.1064
1373.2428
1392.8375
1409.9332
1424.5558
1436.6841
1446.425
1453.8016
1456.8645
42.728727
37.593114
58.37681
70.535347
84.223589
96.422608
107.9911
118.66226
128.50738
137.50809
145.68212
153.04758
159.62198
165.41585
170.43795
174.70505
178.24189
181.08071
183.26046
184.8259
185.82644
186.31509
186.34721
185.97898
185.26575
184.26002
183.00935
181.55385
179.92393
178.13762
176.19852
174.09323
171.79028
169.2384
166.36612
163.08233
159.27682
154.8176
149.55627
143.34497
136.02747
127.44422
117.43968
105.86592
92.588214
77.490006
60.476795
41.479213
20.456391
-2.6011066
-27.669398
-54.690607
-83.573224
-114.19227
-146.38967
-179.97546
-214.72856
-250.39781
-286.70607
-323.35214
-360.01202
-396.34158
-431.97931
-466.5493
-499.66461
-530.9311
-559.95155
-586.33035
-609.67855
-629.61926
-645.79337
-657.8655
-665.52989
-668.51629
-666.59557
-659.58488
-647.3522
-629.82008
-606.96793
-578.83361
-545.51968
-507.18818
-464.05157
-416.37473
-364.47076
-308.69433
-249.43664
-187.11804
-122.17927
-55.073999
13.738819
83.80227
154.66827
225.90368
297.09562
367.85585
437.82424
506.67124
574.09947
639.84444
703.67449
765.39015
824.82289
881.83338
936.30949
988.16403
1037.3323
1083.7698
1127.4493
1168.3591
1206.5
1241.8838
1274.5307
1304.4677
1331.7271
1356.3444
1378.3567
1397.801
1414.7137
1429.109
1440.9719
1450.4038
1457.2935
1459.9528
43.953339
38.652356
60.026904
72.511891
86.553349
99.040388
110.85576
121.723
131.71323
140.80481
149.01451
156.35649
162.84607
168.4995
173.33615
177.3821
180.67027
183.24019
185.13756
186.41368
187.12451
187.32967
187.09114
186.4717
185.53313
184.33407
182.92778
181.35952
179.6641
177.86309
175.96265
173.95075
171.79607
169.44612
166.8268
163.84294
160.37798
156.28954
151.42426
145.62629
138.72813
130.55974
120.95441
109.75304
96.809858
81.99741
65.210971
46.372152
25.432282
2.3752679
-22.780516
-49.981368
-79.138221
-110.12685
-142.78846
-176.93082
-212.32914
-248.72683
-285.84005
-323.36015
-360.95429
-398.26836
-434.92974
-470.55042
-504.73049
-537.06206
-567.13362
-594.53489
-618.86205
-639.72347
-656.74564
-669.57937
-677.90608
-681.44386
-679.95346
-673.24365
-661.1761
-643.66933
-620.70098
-592.30958
-558.6031
-519.75089
-475.97394
-427.5482
-374.79938
-318.09645
-257.84555
-194.48246
-128.46411
-60.260414
9.6539
80.807019
152.73722
224.99926
297.1699
368.85239
439.67999
509.31839
577.46723
643.86069
708.26729
770.48898
830.35974
887.74365
942.53262
994.64401
1044.0179
1090.6147
1134.4122
1175.4032
1213.5929
1248.9968
1281.6384
1311.5467
1338.7552
1363.2986
1385.2116
1404.5262
1421.2691
1435.442
1447.025
1456.0974
1462.4977
1464.8109
45.377471
39.794909
61.815262
74.620648
89.018042
101.78053
113.82143
124.85367
134.95172
144.09499
152.3054
159.60227
166.00335
171.52888
176.20323
180.0568
183.12697
185.45831
187.10199
188.11533
188.5607
188.50448
188.0156
187.16384
186.01793
184.64321
183.09926
181.43711
179.69664
177.90357
176.06714
174.17721
172.20294
170.09084
167.76434
165.1241
162.04556
158.3766
153.95641
148.61867
142.18459
134.47241
125.30311
114.50519
101.92065
87.410176
70.857939
52.175587
31.305763
8.2250013
-17.054336
-44.483048
-73.974845
-105.40657
-138.61886
-173.4173
-209.57319
-246.82419
-284.87882
-323.41988
-362.10461
-400.56752
-438.42345
-475.27061
-510.69426
-544.27077
-575.57215
-604.17112
-629.64663
-651.58984
-669.61035
-683.3428
-692.45343
-696.64654
-695.6708
-689.32497
-677.46302
-659.99845
-636.90649
-608.22615
-574.07093
-534.61764
-490.09667
-440.79634
-387.05718
-329.26528
-267.84538
-203.2526
-135.96365
-66.46803
4.7405922
77.172619
150.35009
223.8134
297.12705
369.88425
441.7105
512.26597
581.2469
648.38601
713.45214
776.24905
836.61379
894.41456
949.54815
1001.9373
1051.528
1098.2863
1142.196
1183.2557
1221.476
1256.8774
1289.4877
1319.3402
1346.471
1370.9174
1392.7148
1411.8956
1428.4845
1442.4811
1453.8691
1462.7157
1468.8484
1471.0247
47.114086
41.217586
64.002014
77.181503
91.99687
105.08541
117.39714
128.63169
138.86609
148.07861
156.29376
163.53248
169.81505
175.16757
179.62213
183.217
185.99739
188.01555
189.33022
190.00632
190.11392
189.72717
188.92289
187.77878
186.37137
184.77363
183.05239
181.26538
179.45842
177.66224
175.8899
174.13368
172.36356
170.52514
168.53916
166.30147
163.67777
160.50646
156.61827
151.83413
145.96144
138.80413
130.16818
119.86689
107.72729
93.595624
77.342584
58.867657
38.102895
15.01593
-10.387996
-38.064881
-67.931578
-99.866013
-133.7079
-169.26
-206.2888
-244.52451
-283.66676
-323.38842
-363.33507
-403.12801
-442.36737
-480.63532
-517.49984
-552.51897
-585.24554
-615.23251
-642.03874
-665.23535
-684.41228
-699.18528
-709.20287
-714.15323
-713.77088
-707.84282
-696.21405
-678.79216
-655.54967
-626.52626
-591.84176
-551.68252
-506.29027
-455.96793
-401.07335
-342.01231
-279.23087
-213.20661
-144.43924
-73.441161
-0.72812975
73.189496
147.81485
222.67167
297.31027
371.31236
444.2946
515.91099
585.85407
653.85516
719.6837
783.14585
844.08248
902.36674
957.90128
1010.6153
1060.4613
1107.4126
1151.4595
1192.607
1230.872
1266.2802
1298.8643
1328.6612
1355.7101
1380.0499
1401.7168
1420.7427
1437.1509
1450.9414
1462.1026
1470.7016
1476.5831
1478.6368
49.016243
42.724855
66.340268
79.905668
95.156627
108.57507
121.1546
132.58128
142.93744
152.20272
160.40769
167.57873
173.73926
178.92038
183.15983
186.50179
188.99772
190.70651
191.694
192.03259
191.80023
191.07929
189.95505
188.5138
186.84069
185.01714
183.11811
181.20893
179.34226
177.55466
175.86378
174.26496
172.72948
171.20225
169.60141
167.81771
165.70613
163.09416
159.80195
155.63652
150.3905
143.85193
135.81006
126.06122
114.41562
100.70334
84.779939
66.531228
45.877315
22.775802
-2.7760554
-30.740078
-61.036683
-93.545101
-128.10412
-164.51346
-202.53439
-241.88913
-282.26732
-323.33069
-364.71183
-406.01725
-446.83063
-486.71613
-525.22229
-561.88643
-596.23967
-627.81248
-656.14085
-680.77297
-701.27624
-717.24469
-728.30638
-734.13081
-734.43607
-728.99538
-717.6431
-700.27973
-676.8743
-647.46691
-612.18419
-571.22284
-524.83774
-473.34862
-417.13352
-356.62115
-292.28258
-224.62167
-154.16498
-81.451511
-7.0226957
68.587099
144.8592
221.29819
297.43818
372.8478
447.13381
519.94336
590.96505
659.92891
726.60544
790.80383
852.36969
911.18219
967.15095
1020.2128
1070.3285
1117.4793
1161.6638
1202.8948
1241.1967
1276.6023
1309.1504
1338.8836
1365.8457
1390.0795
1411.624
1430.5132
1446.7716
1460.4013
1471.3949
1479.8201
1485.539
1487.5271
51.227338
44.513895
69.08129
83.086811
98.831974
112.62379
125.50574
137.14812
147.63874
156.95813
165.14248
172.22233
178.22577
183.19066
187.16231
190.19284
192.34184
193.67655
194.27125
194.20702
193.5707
192.4538
190.95094
189.15792
187.16943
185.07635
182.96281
180.90281
178.95693
177.16859
175.56098
174.13325
172.85853
171.68133
170.51708
169.25105
167.72674
165.75958
163.15747
159.71163
155.19704
149.38304
142.03925
132.94208
121.88212
108.67057
93.14544
75.176678
54.670596
31.573278
5.8728913
-22.398931
-53.166556
-86.310568
-121.66858
-159.03673
-198.17023
-238.78179
-280.54962
-323.12291
-366.11966
-409.12966
-451.71809
-493.42879
-533.78833
-572.31066
-608.50231
-641.8683
-671.9187
-698.17561
-720.1808
-737.50352
-749.74849
-756.56381
-757.6487
-752.76055
-741.72143
-724.42359
-700.83197
-670.98712
-635.02307
-593.14861
-545.63355
-492.81677
-435.09934
-372.93621
-306.82709
-237.30602
-164.93044
-90.26993
-13.895366
63.631392
141.76679
219.99364
297.82776
374.82314
450.57555
524.72471
596.95512
666.99575
734.61866
799.63688
861.90166
921.29926
977.74743
1031.1918
1081.6023
1128.9695
1173.3009
1214.6184
1252.9543
1288.3492
1320.8486
1350.5012
1377.3562
1401.4606
1422.8574
1441.584
1457.6683
1471.1174
1481.931
1490.1829
1495.755
1497.6839
53.622282
46.415517
72.018132
86.488799
102.75891
116.94023
130.13341
141.99236
152.61252
161.97767
170.1316
177.11043
182.94732
187.68635
191.37954
194.08622
195.87359
196.81695
196.9991
196.51007
195.44607
193.90842
192.00188
189.83265
187.50599
185.1233
182.77904
180.55704
178.52697
176.74021
175.22651
173.9897
173.00545
172.21822
171.54086
170.85291
169.98533
168.73891
166.90816
164.2672
160.57162
155.56987
149.0096
140.64485
130.24406
117.59722
102.52249
84.871976
64.536445
41.449042
15.587761
-13.023066
-44.312205
-78.161757
-114.40804
-152.84323
-193.21599
-235.22862
-278.54663
-322.8054
-367.60681
-412.52226
-457.09643
-500.85065
-543.2871
-583.89366
-622.14939
-657.5308
-689.51874
-717.60598
-741.30527
-760.15776
-773.74161
-781.68052
-783.65207
-779.39537
-768.71825
-751.50316
-727.71007
-697.37964
-660.65386
-617.75503
-568.9701
-514.6597
-455.25127
-391.22977
-323.12775
-251.51391
-176.98104
-100.13376
-21.576539
58.097446
138.31642
218.53865
298.25947
377.0166
454.3938
530.02291
603.58431
674.80633
743.46337
809.37332
872.39436
932.42121
989.38126
1043.2305
1093.9496
1141.5398
1186.0196
1227.4207
1265.7853
1301.1628
1333.6072
1363.1742
1389.9194
1413.8956
1435.1504
1453.7252
1469.6521
1482.9431
1493.604
1501.7144
1507.173
1509.0598
56.327652
48.594812
75.358239
90.348206
107.20088
121.81141
135.34473
147.43649
158.19066
167.59511
175.70096
182.55012
188.18272
192.65064
196.01413
198.34105
199.70752
200.19803
199.90484
198.92785
197.37348
195.35371
192.98431
190.38289
187.66631
184.94766
182.33298
179.91725
177.78056
175.98363
174.564
173.53131
172.86461
172.5089
172.37467
172.33545
172.20822
171.77849
170.82555
169.10339
166.34546
162.27613
156.61783
149.09894
139.46255
127.47435
112.92998
95.661253
75.541381
52.488962
26.470633
-2.4973579
-34.348583
-68.96673
-106.18657
-145.79583
-187.5358
-231.09687
-276.13023
-322.25604
-369.05844
-416.08848
-462.86822
-508.8941
-553.64123
-596.56855
-637.12454
-674.75386
-708.90472
-739.03699
-764.63079
-785.19566
-800.27977
-809.47917
-812.44683
-808.90107
-798.63329
-781.51465
-757.49918
-726.6274
-689.04987
-645.00398
-594.79588
-538.81071
-477.50574
-411.40001
-341.0635
-267.10435
-190.1557
-110.86198
-29.865901
52.203934
134.74392
217.18479
298.99905
379.70654
458.878
536.13692
611.15971
683.67454
753.45902
820.33705
884.17501
944.87755
1002.3831
1056.6595
1107.6995
1155.5166
1200.1411
1241.6162
1279.9947
1315.3361
1347.7033
1377.1606
1403.7709
1427.5934
1448.6821
1467.0839
1482.8366
1495.9583
1506.4622
1514.4346
1519.7883
1521.636
59.250297
50.925186
78.950293
94.495218
111.97184
127.0361
140.92523
153.25566
164.14208
173.57762
181.62328
188.32817
193.73866
197.91451
200.92392
202.8432
203.75735
203.76023
202.95395
201.44873
199.36192
196.81694
193.94157
190.86586
187.7195
184.62862
181.71222
179.07791
176.81774
175.00322
173.68107
172.86801
172.54746
172.6656
173.13078
173.81036
174.50612
174.98588
175.01215
174.3173
172.60996
169.58763
164.9444
158.37971
149.6081
138.36788
124.42927
107.60132
87.737545
64.740329
38.563708
9.2150208
-23.244546
-58.700347
-96.985385
-137.88245
-181.12477
-226.38964
-273.31251
-321.49692
-370.50771
-419.87377
-469.09241
-517.63278
-564.94028
-610.44189
-653.55225
-693.68068
-730.23906
-762.65048
-790.35855
-812.83725
-829.60094
-840.21441
-844.30268
-841.56025
-831.75966
-814.7588
-790.50449
-759.03662
-720.51488
-675.19352
-623.40041
-565.54825
-502.12811
-433.69771
-360.86953
-284.29667
-204.65806
-122.64345
-38.938771
45.787336
130.89553
215.78583
299.90554
382.75493
463.89085
542.92821
619.53976
693.45435
764.45402
832.37015
897.07901
958.49695
1016.5753
1071.2957
1122.6647
1170.7097
1215.4744
1257.015
1295.3965
1330.6895
1362.9672
1392.303
1418.7682
1442.4293
1463.3468
1481.5738
1497.1538
1510.1114
1520.4666
1528.3118
1533.5717
1535.3856
62.487106
53.531239
82.950631
99.106218
117.26578
132.82232
147.09342
159.67463
170.69277
180.14722
188.11012
194.63851
199.78643
203.62298
206.22557
207.68002
208.08117
207.53306
206.14836
204.04839
201.36214
198.22533
194.77866
191.16572
187.53026
184.01279
180.74685
177.85434
175.44097
173.59081
172.3615
171.77834
171.83046
172.46624
173.59237
175.06979
176.68402
178.18373
179.31236
179.77766
179.26012
177.4267
173.93925
168.46435
160.68411
150.30584
137.07111
120.76334
101.21408
78.307659
51.984223
22.241374
-10.865341
-47.222969
-86.662458
-128.96114
-173.8433
-220.97158
-269.96388
-320.40564
-371.84076
-423.77401
-475.67573
-526.98525
-577.11538
-625.45802
-671.3905
-714.28305
-753.50723
-788.44524
-818.49996
-843.10563
-861.73867
-873.92866
-879.26907
-877.42734
-868.15438
-851.29275
-826.7807
-794.65684
-755.09058
-708.35468
-654.80117
-594.87354
-529.10094
-458.08485
-382.48594
-303.0083
-220.3829
-135.35074
-48.646699
39.015552
126.95664
214.54244
301.19247
386.3858
469.6645
550.63478
628.96621
704.38933
776.69199
845.71469
911.34543
973.51418
1032.1872
1087.3614
1139.0594
1187.324
1232.2141
1273.8001
1312.1605
1347.3784
1379.5383
1408.7241
1435.0162
1458.4897
1479.2127
1497.2453
1512.6376
1525.4211
1535.6226
1543.3404
1548.5088
1550.2897
65.974182
56.327207
87.259223
104.07084
122.96368
139.04292
153.71528
166.55423
177.70087
187.16294
195.02635
201.35616
206.21431
209.67941
211.83821
212.78619
212.6283
211.4791
209.46231
206.71096
203.36642
199.57761
195.49919
191.28953
187.10783
183.11057
179.44755
176.25682
173.65973
171.75487
170.61272
170.26895
170.71994
171.91741
173.76703
176.12281
178.75272
181.38482
183.74121
185.50243
186.31758
185.81938
183.6334
179.38911
172.73204
163.33455
150.90597
135.20106
116.02684
93.24767
66.788437
36.636181
2.8404382
-34.48749
-75.176126
-118.99673
-165.6637
-214.82362
-266.07527
-318.98441
-373.07254
-427.81832
-482.66299
-537.01347
-590.24709
-641.71734
-690.76059
-736.70397
-778.87445
-816.60884
-849.26467
-876.23175
-896.94399
-910.89136
-917.63164
-916.8015
-908.12704
-891.43291
-866.64699
-833.80573
-793.08871
-744.78929
-689.28645
-627.05814
-558.67639
-484.79215
-406.12071
-323.42398
-237.49194
-149.12366
-59.109183
31.787168
122.84133
213.38136
302.79637
390.54259
476.14662
559.20611
639.3883
716.4268
790.11702
860.31068
926.90975
989.86011
1049.1451
1104.7796
1156.8037
1205.278
1250.2781
1291.8904
1330.2082
1365.3282
1397.3476
1426.3612
1452.4598
1475.7273
1496.2401
1514.0656
1529.2609
1541.8644
1551.9094
1559.4998
1564.5784
1566.3271
69.776751
59.400187
91.986305
109.51407
129.20265
145.84371
160.94203
174.04746
185.31732
194.7707
202.50769
208.60193
213.12578
216.16827
217.82648
218.20645
217.42392
215.60457
212.88378
209.40687
205.32832
200.81102
196.02463
191.14347
186.34364
181.79926
177.67824
174.13688
171.31439
169.32622
168.25799
168.15792
169.03159
170.83573
173.47613
176.79858
180.55364
184.44757
188.17704
191.39245
193.70761
194.71646
194.00348
191.15612
185.77851
177.50359
166.00447
151.00381
132.2814
109.6796
83.106631
52.538163
18.017412
-20.345877
-62.377367
-107.8416
-156.44236
-207.80813
-261.5165
-317.11228
-374.09284
-431.90881
-489.96998
-547.64825
-604.2824
-659.18404
-711.64465
-760.944
-806.35987
-847.17884
-882.70807
-912.28791
-935.30476
-951.20418
-959.50373
-959.80524
-951.80643
-935.31122
-910.23505
-876.61117
-834.6297
-784.60641
-726.94999
-662.17677
-590.90697
-513.84733
-431.77504
-345.51756
-255.93176
-163.88242
-70.221874
24.228753
118.69554
212.46474
304.89229
395.40995
483.52831
568.83681
651.00145
729.76057
804.9193
876.34294
943.94992
1007.7046
1067.61
1123.7009
1176.0378
1224.7006
1269.7838
1311.3912
1349.6325
1384.6196
1416.4631
1445.2703
1471.1429
1494.1749
1514.4512
1532.0475
1547.0282
1559.4385
1569.3184
1576.7764
1581.7627
1583.4785
73.848356
62.695541
97.069917
115.37032
135.91333
153.15134
168.69651
182.07417
193.46057
202.88843
210.47521
216.30372
220.45627
223.03316
224.142
223.89967
222.43304
219.87932
216.38599
212.11123
207.22335
201.90015
196.32738
190.69664
185.20251
180.03861
175.39308
171.44281
168.34739
166.24175
165.2293
165.37337
166.691
169.14583
172.64502
177.02584
182.02058
187.31187
192.56806
197.40605
201.40027
204.10102
205.04636
203.77625
199.84801
192.85012
182.41495
168.22937
150.04292
127.67381
101.01217
70.021531
34.738604
-4.7281699
-48.200998
-95.436895
-146.12804
-199.88294
-256.25602
-314.76983
-374.89611
-436.05556
-497.62428
-558.93651
-619.2893
-677.94874
-734.15731
-787.14283
-836.12888
-880.3465
-919.04699
-951.51563
-977.08578
-995.15315
-1005.19
-1006.7587
-999.52428
-983.26665
-957.88623
-923.41149
-880.04339
-828.12231
-768.0898
-700.50492
-626.042
-545.47084
-459.63869
-369.44743
-275.82976
-179.72488
-82.055292
16.294095
114.49388
211.78426
307.48515
401.00236
491.83013
579.55044
663.82959
744.41287
821.11769
893.82579
962.47506
1027.0512
1087.5798
1144.1185
1196.7502
1245.5767
1290.7129
1332.2823
1370.4123
1405.2309
1436.8637
1465.431
1491.0464
1513.8144
1533.8293
1551.1749
1565.9234
1578.127
1587.8319
1595.1511
1600.0416
1601.7232
78.218685
66.268982
102.58154
121.72445
143.18969
161.06574
177.08131
190.7365
202.22934
211.60921
219.01322
224.53397
228.26524
230.3197
230.81633
229.8835
227.65971
224.29411
219.94667
214.78897
209.00372
202.78441
196.3339
189.86245
183.58471
177.71576
172.4663
168.03639
164.60889
162.34126
161.35781
161.74001
163.51918
166.66811
171.09702
176.63671
182.99891
189.83876
196.79481
203.44657
209.32397
213.92797
216.74404
217.25829
214.97508
209.43269
200.21783
186.97735
169.42742
147.35977
120.64506
89.234002
53.156696
12.520641
-32.492237
-81.6306
-134.57408
-190.90895
-250.16417
-311.83874
-375.37723
-440.16848
-505.55266
-570.8236
-635.23336
-697.9987
-758.30868
-815.33425
-868.23943
-916.19394
-958.38725
-994.04347
-1022.4368
-1042.9073
-1054.8762
-1057.8611
-1051.49
-1035.5148
-1009.8178
-974.42096
-929.53608
-875.53005
-812.8804
-742.19354
-664.20455
-579.75439
-489.76977
-395.23706
-297.17507
-196.60726
-94.535402
8.0841131
110.36015
211.48225
310.73136
407.48593
501.22386
591.52073
678.04518
760.55209
838.87427
912.91322
982.62968
1048.0341
1109.1777
1166.1438
1219.0407
1267.9942
1313.1421
1354.629
1392.6019
1427.2063
1458.5838
1486.8689
1512.1877
1534.6559
1554.3776
1571.4454
1585.9391
1597.9182
1607.4349
1614.6061
1619.3949
1621.0405
82.835156
70.084796
108.48083
128.53988
150.99468
169.54843
186.05526
199.99048
211.57708
220.88531
228.07546
233.24916
236.51246
237.99102
237.81546
236.12596
233.0729
228.81762
223.53295
217.40427
210.62931
203.4181
195.99171
188.58043
181.42079
174.75148
168.80828
163.81736
159.98807
157.50389
156.51367
157.12057
159.37352
163.25734
168.68756
175.49015
183.35418
191.90443
200.74736
209.42086
217.40487
224.14462
229.06598
231.59395
231.17286
227.28432
219.46367
207.3132
190.51218
168.82352
142.09705
110.27014
73.366407
31.493038
-15.162965
-66.340863
-121.70658
-180.82174
-243.1876
-308.27852
-375.51062
-444.23908
-513.766
-583.34206
-652.17103
-719.41632
-784.20891
-845.65757
-902.86088
-954.92097
-1000.9588
-1040.1307
-1071.6448
-1094.7788
-1108.8968
-1113.4657
-1108.071
-1092.4319
-1066.4091
-1030.0153
-983.47311
-927.17805
-861.64702
-787.53898
-705.65712
-616.92288
-522.35314
-423.03033
-320.07118
-214.59473
-107.69223
-0.40026658
106.32142
211.60683
314.69496
414.93574
511.79108
604.83187
693.73168
778.25834
858.26375
933.67311
1004.4739
1070.7052
1132.4473
1189.8127
1242.9376
1291.9747
1337.0868
1378.4416
1416.207
1450.5476
1481.6218
1509.5795
1534.5598
1556.6901
1576.0849
1592.8457
1607.0603
1618.795
1628.1083
1635.1205
1639.8007
1641.4077
87.67112
74.172334
114.80474
135.87069
159.38995
178.66569
195.68543
209.90118
221.56451
230.77237
237.70995
242.48768
245.22642
246.0653
245.1473
242.6248
238.66029
233.42748
227.11224
219.91403
212.04606
203.73559
195.22291
186.75972
178.60626
171.02712
164.28593
158.63821
154.32348
151.55524
150.51108
151.32012
154.05291
158.70988
165.21496
173.39117
182.90338
193.3428
204.28078
215.20904
225.55118
234.6893
241.98153
246.78343
248.47118
246.46233
240.23451
229.34037
213.41858
192.20082
165.51475
133.2841
95.526368
52.349226
3.9458448
-49.412535
-107.37699
-169.48172
-235.19777
-303.9738
-375.19627
-448.18496
-522.20181
-596.45165
-670.08652
-742.21228
-811.89689
-878.18122
-940.09205
-996.65708
-1046.9216
-1089.9664
-1124.9266
-1151.01
-1167.5167
-1173.856
-1169.5653
-1154.3255
-1127.9716
-1090.5037
-1042.1547
-983.35048
-914.65064
-836.77216
-750.59468
-657.13058
-557.49931
-452.89279
-344.53926
-233.66638
-121.46654
-9.0663582
102.49823
212.30042
319.53432
423.52039
523.70545
619.65795
711.05981
797.69576
879.44128
956.24986
1028.1402
1095.1842
1157.4954
1215.2188
1268.522
1317.5871
1362.6043
1403.7663
1441.2638
1475.2818
1505.9967
1533.5741
1558.1673
1579.916
1598.9451
1615.3654
1629.2726
1640.7401
1649.8322
1656.6725
1661.2356
1662.8011
92.618363
78.503047
121.51717
143.69569
168.3559
188.39807
205.94951
220.44275
232.16242
241.23812
247.88362
252.21716
254.37513
254.51096
252.78008
249.34727
244.38715
238.08583
230.64227
222.27022
213.19875
203.67299
193.95348
184.31476
175.04269
166.43022
158.77185
152.35606
147.45666
144.32174
143.16253
144.13909
147.34845
152.81109
160.46311
170.12728
181.44288
193.9642
207.2243
220.66369
233.64251
245.47125
255.4309
262.79786
266.87081
266.99472
262.58233
253.13098
238.23474
217.5916
191.00603
158.38803
119.74975
75.200588
24.941359
-30.744792
-91.492675
-156.80602
-226.12316
-298.86649
-374.39188
-451.9823
-530.85759
-610.17412
-689.02873
-766.46537
-841.48369
-913.0505
-980.11384
-1041.6194
-1096.5287
-1143.8391
-1182.6041
-1211.9537
-1231.1159
-1239.4355
-1236.3943
-1221.6292
-1194.9436
-1156.3213
-1106.0043
-1044.4508
-972.26615
-890.23158
-799.31243
-700.62415
-595.40301
-484.96597
-370.66864
-253.8623
-135.85388
-17.871077
98.965615
213.66302
325.36744
433.36945
537.1023
636.13514
730.1624
818.99071
902.52439
980.75051
1053.7243
1121.5552
1184.3943
1242.4232
1295.8441
1344.8717
1389.7259
1430.6266
1467.7886
1501.4186
1531.7123
1558.8519
1583.0052
1604.3246
1622.9458
1638.989
1652.5579
1663.733
1672.5842
1679.2378
1683.6742
1685.1949
97.535426
83.083146
128.6207
152.0449
177.92886
198.78554
216.88607
231.65016
243.4008
252.30724
258.61475
262.4483
263.96168
263.32335
260.70148
256.27337
250.22565
242.75664
234.07828
224.41854
214.02256
203.15383
192.094
181.14186
170.61083
160.8248
152.11245
144.79919
139.19775
135.59607
134.24463
135.34032
139.01246
145.30694
154.17689
165.44835
178.73406
193.54778
209.38072
225.61666
241.5441
256.39203
269.35344
279.61429
286.38489
288.9279
286.58303
278.78611
265.08233
245.1336
218.72033
185.7392
146.1981
100.20979
47.984416
-10.181454
-73.904932
-142.65585
-215.83713
-292.84446
-373.0024
-455.55587
-539.68088
-624.4828
-708.99978
-792.20935
-873.03719
-950.36941
-1023.0678
-1089.9876
-1149.998
-1202.0036
-1244.9672
-1277.9325
-1300.0465
-1310.5811
-1308.955
-1294.7537
-1267.7429
-1227.8849
-1175.4288
-1110.8662
-1034.8516
-948.23667
-852.08284
-747.62256
-636.22553
-519.35197
-398.5033
-275.17189
-150.79461
-26.712745
95.859392
215.85637
332.37403
444.67312
552.17571
654.45572
751.2254
842.31923
927.67664
1007.3245
1081.3603
1149.9366
1213.2471
1271.514
1324.978
1373.8893
1418.5001
1459.0594
1495.8083
1528.9762
1558.7788
1585.4159
1609.0705
1629.9076
1648.0742
1663.7
1676.8965
1687.7511
1696.3395
1702.7902
1707.089
1708.5612
102.17283
87.88217