/*--------------------------------*- C++ -*----------------------------------*\
| =========                 |                                                 |
| \\      /  F ield         | foam-extend: Open Source CFD                    |
|  \\    /   O peration     | Version:     4.1                                |
|   \\  /    A nd           | Web:         http://www.foam-extend.org         |
|    \\/     M anipulation  |                                                 |
\*---------------------------------------------------------------------------*/
FoamFile
{
    version     2.0;
    format      ascii;
    class       surfaceScalarField;
    location    "0.45";
    object      phi;
}
// * * * * * * * * * * * * * * * * * * * * * * * * * * * * * * * * * * * * * //

dimensions      [0 3 -1 0 0 0 0];

internalField   nonuniform List<scalar> 
32976
(
-0.22383344
-0.00068902706
-0.22316401
-0.00066943341
-0.22252993
-0.00063407992
-0.22193592
-0.00059401388
-0.22139435
-0.00054157029
-0.22091535
-0.00047899853
-0.2205099
-0.00040544333
-0.22018849
-0.00032141007
-0.21996121
-0.00022727994
-0.21983729
-0.00012392781
-0.2198243
-1.2989208e-05
-0.2199244
0.00010010605
-0.22013109
0.00020668577
-0.22043418
0.00030308613
-0.22082485
0.00039067332
-0.22129531
0.00047046237
-0.22183822
0.00054291194
-0.2224463
0.00060807802
-0.223112
0.00066569553
-0.22382737
0.00071537714
-0.22458406
0.00075668387
-0.2253733
0.00078924228
-0.22618604
0.00081274437
-0.22701307
0.00082702669
-0.22784511
0.00083203568
-0.228673
0.00082789067
-0.22948783
0.00081483299
-0.23028111
0.00079327974
-0.23104487
0.00076376433
-0.23177186
0.00072698199
-0.23245558
0.00068372635
-0.23309051
0.00063492275
-0.23367209
0.00058158176
-0.23419687
0.00052478199
-0.23466255
0.00046567589
-0.23506798
0.00040543232
-0.23541323
0.00034524907
-0.23569953
0.00028629887
-0.23592926
0.00022973221
-0.23610589
0.0001766288
-0.23623388
0.00012799097
-0.2363186
8.4720621e-05
-0.23636622
4.7617942e-05
-0.23638357
1.7353752e-05
-0.23637803
-5.5420577e-06
-0.2363571
-2.0927018e-05
-0.2363282
-2.8898956e-05
-0.23629885
-2.9346958e-05
-0.23627676
-2.2094915e-05
-0.23626959
-7.173975e-06
-0.23628443
1.4844306e-05
-0.23632744
4.3007409e-05
-0.23640402
7.6582836e-05
-0.23651891
0.00011488556
-0.23667595
0.00015704754
-0.23687809
0.00020214052
-0.23712728
0.00024918297
-0.23742444
0.00029716213
-0.2377695
0.00034506115
-0.23816138
0.00039187697
-0.23859802
0.00043663796
-0.23907644
0.00047842355
-0.23959282
0.00051638079
-0.24014256
0.00054973963
-0.24072039
0.00057782614
-0.24132046
0.00060007293
-0.24193649
0.00061602878
-0.24256185
0.00062536184
-0.24318971
0.00062786528
-0.24381317
0.00062345692
-0.24442535
0.00061217794
-0.24501954
0.00059418878
-0.2455893
0.00056976468
-0.24612859
0.00053928527
-0.24663181
0.00050322746
-0.24709397
0.00046215299
-0.24751066
0.00041669605
-0.24787821
0.00036754927
-0.24819366
0.00031544999
-0.24845483
0.00026116326
-0.24866029
0.0002054681
-0.24880943
0.00014913635
-0.24890235
9.2916585e-05
-0.24893987
3.7519845e-05
-0.24892327
-1.6595503e-05
-0.24885372
-6.9552031e-05
-0.24873305
-0.00012066582
-0.24856438
-0.00016867285
-0.2483514
-0.00021297863
-0.24809825
-0.00025314918
-0.24780938
-0.00028887575
-0.24748943
-0.00031994392
-0.24714321
-0.0003462234
-0.24677555
-0.0003676601
-0.24639128
-0.00038426906
-0.24599515
-0.00039612696
-0.24559179
-0.00040336404
-0.24518563
-0.00040615658
-0.24478092
-0.00040471713
-0.24438163
-0.0003992883
-0.24399149
-0.00039013438
-0.24361396
-0.00037753477
-0.24325218
-0.00036177787
-0.24290902
-0.00034315662
-0.24258706
-0.00032196273
-0.24228858
-0.00029848494
-0.24201557
-0.0002730056
-0.24176977
-0.00024579915
-0.24155264
-0.00021713107
-0.24136538
-0.00018725795
-0.24120896
-0.00015642697
-0.24108408
-0.00012487799
-0.24099123
-9.2845074e-05
-0.24093067
-6.0560107e-05
-0.24090242
-2.8256435e-05
-0.24090623
3.8093219e-06
-0.2409415
3.5276135e-05
-0.24100735
6.585163e-05
-0.24110261
9.5257591e-05
-0.24122564
0.00012303418
-0.24137351
0.00014786806
-0.24153953
0.00016601944
-0.2417217
0.00018216903
0.00021374886
-0.2528771
-0.001336582
-0.25226166
-0.0012848749
-0.25169295
-0.0012027873
-0.2511779
-0.0011090599
-0.25071914
-0.0010003358
-0.25031903
-0.00087910708
-0.24997862
-0.00074585284
-0.24969826
-0.00060176568
-0.24947758
-0.0004479682
-0.24931555
-0.00028595651
-0.2492108
-0.00011773227
-0.24916502
5.4320526e-05
-0.24918498
0.00022665088
-0.24927668
0.00039477824
-0.24944137
0.00055536591
-0.24967715
0.00070624519
-0.24997991
0.00084566585
-0.250344
0.00097216974
-0.25076273
0.0010844304
-0.25122864
0.0011812845
-0.25173364
0.0012616848
-0.2522692
0.0013248061
-0.25282646
0.0013700037
-0.25339637
0.0013969281
-0.25396979
0.0014054618
-0.25453772
0.0013958242
-0.25509138
0.0013684867
-0.25562236
0.0013242635
-0.25612281
0.0012642115
-0.25658553
0.0011897048
-0.25700413
0.0011023266
-0.25737313
0.0010039208
-0.25768806
0.00089650918
-0.25794554
0.00078225934
-0.25814334
0.00066348419
-0.25828046
0.00054254424
-0.25835706
0.00042185466
-0.25837456
0.0003037949
-0.25833552
0.00019069483
-0.25824365
8.4755037e-05
-0.25810367
-1.1985748e-05
-0.25792118
-9.7766289e-05
-0.25770245
-0.00017111347
-0.25745436
-0.00023074185
-0.25718427
-0.00027562849
-0.25690015
-0.00030504894
-0.25661042
-0.00031862215
-0.25632339
-0.00031638043
-0.25604679
-0.0002986946
-0.25578771
-0.00026625029
-0.25555287
-0.00021999636
-0.25534874
-0.00016112165
-0.25518106
-9.1102232e-05
-0.25505454
-1.1632121e-05
-0.25497292
7.5426415e-05
-0.25493884
0.00016806373
-0.2549539
0.00026424249
-0.25501867
0.0003619255
-0.25513267
0.0004590622
-0.25529443
0.00055363637
-0.25550149
0.00064370511
-0.25575051
0.00072743688
-0.25603727
0.00080314327
-0.25635684
0.00086930733
-0.25670362
0.00092460765
-0.25707148
0.00096793766
-0.25745388
0.00099842285
-0.25784394
0.0010154274
-0.25823464
0.0010185639
-0.25861888
0.0010076928
-0.25898962
0.0009829197
-0.25934002
0.00094458689
-0.25966352
0.00089326411
-0.25995396
0.00082972867
-0.26020568
0.00075495044
-0.2604136
0.00067006752
-0.26057326
0.00057636164
-0.26068094
0.00047523062
-0.26073366
0.00036816043
-0.26072918
0.00025669306
-0.26066612
0.00014239986
-0.26054382
2.6843986e-05
-0.26036244
-8.8466083e-05
-0.26012283
-0.00020209144
-0.25982677
-0.0003126511
-0.25947755
-0.00041877791
-0.2590789
-0.00051931481
-0.25863426
-0.00061331387
-0.25814734
-0.0006999013
-0.25762212
-0.00077836192
-0.25706285
-0.00084814441
-0.25647394
-0.00090885564
-0.25585991
-0.00096025688
-0.25522532
-0.0010022524
-0.25457471
-0.0010348777
-0.25391255
-0.0010582855
-0.25324318
-0.0010727304
-0.25257078
-0.0010785551
-0.25189933
-0.0010761706
-0.25123257
-0.0010660452
-0.25057402
-0.0010486881
-0.24992692
-0.0010246369
-0.24929425
-0.00099444546
-0.24867873
-0.00095867631
-0.24808281
-0.00091788823
-0.24750866
-0.00087263402
-0.24695821
-0.00082345349
-0.24643314
-0.0007708706
-0.24593488
-0.00071539128
-0.24546463
-0.00065750432
-0.24502338
-0.00059767904
-0.24461189
-0.00053637052
-0.24423071
-0.00047402155
-0.2438802
-0.00041106884
-0.24356051
-0.00034795196
-0.24327157
-0.00028512764
-0.24301322
-0.00022307135
-0.24278501
-0.00016235871
-0.24258606
-0.00010369063
-0.2424151
-4.7932698e-05
-0.24227026
3.0280276e-06
-0.24215006
4.5822154e-05
-0.24205063
8.2740351e-05
9.8569844e-05
-0.25466099
-0.0019229101
-0.25414223
-0.0018036355
-0.25368397
-0.0016610468
-0.25329238
-0.0015006497
-0.25296863
-0.0013240821
-0.25271412
-0.0011336201
-0.25252879
-0.00093118365
-0.25241166
-0.00071889195
-0.25236074
-0.00049888675
-0.25237318
-0.00027352368
-0.25244554
-4.5371381e-05
-0.25257402
0.0001828065
-0.25275543
0.00040806025
-0.25298745
0.00062679126
-0.25326724
0.00083515814
-0.25359098
0.0010299829
-0.25395396
0.0012086479
-0.25435077
0.0013689802
-0.25477541
0.0015090715
-0.25522144
0.0016273148
-0.25568207
0.0017223196
-0.25615031
0.0017930396
-0.25661901
0.0018387019
-0.25708103
0.001858954
-0.25752934
0.0018537722
-0.25795712
0.0018236008
-0.25835787
0.0017692363
-0.25872555
0.0016919473
-0.25905468
0.0015933414
-0.25934044
0.00147546
-0.25957875
0.0013406365
-0.25976638
0.0011915574
-0.25990102
0.0010311501
-0.25998131
0.00086254056
-0.26000686
0.00068903862
-0.25997833
0.00051401388
-0.25989736
0.00034088801
-0.25976659
0.0001730223
-0.25958957
1.3679219e-05
-0.25937075
-0.00013407441
-0.25911529
-0.00026743643
-0.25882917
-0.00038389431
-0.25851899
-0.00048129232
-0.25819181
-0.00055791545
-0.25785494
-0.00061250449
-0.25751574
-0.00064424779
-0.25718155
-0.00065281453
-0.25685953
-0.00063839391
-0.25655656
-0.00060166375
-0.25627907
-0.0005437465
-0.25603291
-0.00046615597
-0.25582325
-0.00037077572
-0.2556545
-0.00025985418
-0.25553021
-0.00013592731
-0.25545305
-1.7299483e-06
-0.25542484
0.00013985217
-0.25544643
0.00028583208
-0.25551769
0.00043318208
-0.25563751
0.00057888546
-0.25580387
0.00071999804
-0.25601386
0.00085369812
-0.25626377
0.00097733885
-0.25654911
0.0010884919
-0.25686479
0.0011849864
-0.25720513
0.0012649422
-0.25756399
0.0013267967
-0.25793489
0.0013693278
-0.25831113
0.0013916632
-0.25868586
0.0013932933
-0.25905223
0.00137407
-0.25940352
0.0013342016
-0.25973317
0.0012742412
-0.26003498
0.0011950722
-0.26030313
0.0010978794
-0.2605323
0.00098412691
-0.26071776
0.00085552268
-0.26085538
0.00071398241
-0.26094174
0.00056158934
-0.26097413
0.00040055297
-0.2609506
0.0002331636
-0.26086996
6.175365e-05
-0.26073175
-0.00011135968
-0.26053631
-0.00028390399
-0.26028469
-0.00045371571
-0.2599786
-0.00061873959
-0.25962034
-0.00077703851
-0.25921272
-0.00092693683
-0.25875903
-0.0010669993
-0.25826299
-0.0011959462
-0.25772862
-0.001312729
-0.25716022
-0.0014165412
-0.25656227
-0.0015068099
-0.25593934
-0.0015831908
-0.25529604
-0.0016455514
-0.25463696
-0.0016939534
-0.25396662
-0.0017286321
-0.25328937
-0.0017499729
-0.25260944
-0.0017584918
-0.2519308
-0.0017548045
-0.25125724
-0.0017396112
-0.25059225
-0.0017136716
-0.2499391
-0.0016777863
-0.24930077
-0.0016327792
-0.24867996
-0.0015794858
-0.24807911
-0.0015187351
-0.2475004
-0.0014513462
-0.24694574
-0.001378118
-0.24641678
-0.0012998253
-0.24591496
-0.0012172154
-0.24544145
-0.0011310097
-0.24499723
-0.0010419003
-0.24458304
-0.00095055762
-0.24419943
-0.00085763325
-0.24384673
-0.00076376834
-0.24352508
-0.00066960491
-0.2432344
-0.0005758032
-0.24297441
-0.00048306242
-0.24274458
-0.00039219251
-0.24254413
-0.00030414344
-0.24237194
-0.0002201158
-0.24222672
-0.00014219563
-0.24210788
-7.301955e-05
-0.24201194
-1.3196001e-05
2.2228922e-05
-0.254719
-0.0025064959
-0.25420507
-0.0023175604
-0.25375578
-0.0021103416
-0.25337629
-0.0018801402
-0.25306826
-0.0016321065
-0.25283316
-0.0013687218
-0.25267111
-0.0010932383
-0.25258123
-0.00080876856
-0.25256162
-0.00051849755
-0.25260942
-0.00022572396
-0.25272093
6.6138888e-05
-0.25289173
0.00035360705
-0.25311684
0.00063317047
-0.25339116
0.00090110893
-0.2537096
0.0011536019
-0.25406689
0.0013872693
-0.25445739
0.0015991472
-0.25487512
0.0017867096
-0.25531379
0.0019477412
-0.2557669
0.0020804268
-0.25622782
0.0021832438
-0.2566899
0.0022551157
-0.25714651
0.0022953072
-0.25759115
0.0023035989
-0.25801754
0.0022801647
-0.25841968
0.0022257401
-0.25879192
0.0021414785
-0.25912907
0.0020290979
-0.25942645
0.0018907216
-0.25967999
0.001728994
-0.25988627
0.0015469136
-0.26004262
0.0013479073
-0.26014716
0.001135698
-0.26019888
0.00091425659
-0.26019762
0.00068777942
-0.26014415
0.00046054533
-0.26004016
0.00023689655
-0.25988825
2.1111088e-05
-0.2596919
-0.00018266603
-0.25945545
-0.00037052462
-0.259184
-0.00053889253
-0.25888331
-0.00068457817
-0.25855974
-0.00080486575
-0.25822008
-0.00089757756
-0.25787146
-0.00096112559
-0.25752118
-0.00099452816
-0.25717655
-0.00099743684
-0.25684479
-0.00097015823
-0.25653282
-0.00091363195
-0.25624718
-0.00082939199
-0.25599382
-0.00071951218
-0.25577803
-0.00058656157
-0.25560433
-0.00043355892
-0.25547637
-0.00026388971
-0.25539689
-8.1211044e-05
-0.25536766
0.00011062378
-0.25538946
0.00030763821
-0.2554621
0.00050581826
-0.25558439
0.0007011727
-0.25575421
0.00088981705
-0.25596855
0.0010680396
-0.25622358
0.0012323685
-0.25651471
0.0013796282
-0.25683672
0.0015069897
-0.25718379
0.0016120123
-0.25754967
0.0016926776
-0.25792776
0.0017474184
-0.25831122
0.0017751294
-0.25869311
0.0017751837
-0.25906647
0.0017474296
-0.25942446
0.0016921846
-0.25976044
0.0016102192
-0.2600681
0.0015027375
-0.26034156
0.0013713402
-0.26057543
0.0012179947
-0.2607649
0.0010449892
-0.2609058
0.00085488485
-0.26099467
0.00065046339
-0.26102879
0.00043467195
-0.26100619
0.00021056508
-0.26092569
-1.8743927e-05
-0.26078688
-0.00025017889
-0.26059005
-0.00048072511
-0.26033628
-0.00070749176
-0.26002727
-0.0009277518
-0.25966534
-0.0011389676
-0.25925339
-0.0013388825
-0.25879485
-0.0015255381
-0.25829355
-0.0016972524
-0.25775362
-0.0018526529
-0.25717948
-0.0019906857
-0.25657568
-0.0021106048
-0.25594691
-0.0022119681
-0.25529784
-0.0022946147
-0.25463315
-0.0023586421
-0.25395741
-0.0024043778
-0.25327503
-0.0024323489
-0.25259027
-0.0024432548
-0.25190715
-0.0024379262
-0.25122945
-0.0024173048
-0.25056072
-0.0023824094
-0.24990419
-0.0023343115
-0.24926286
-0.0022741115
-0.24863942
-0.0022029237
-0.2480363
-0.0021218515
-0.24745567
-0.0020319835
-0.2468994
-0.00193438
-0.24636916
-0.0018300677
-0.24586634
-0.001720035
-0.24539212
-0.0016052349
-0.24494744
-0.0014865796
-0.24453304
-0.001364951
-0.24414947
-0.0012412038
-0.24379707
-0.0011161756
-0.24347597
-0.00099070016
-0.24318615
-0.00086562743
-0.24292736
-0.00074184797
-0.2426992
-0.0006203516
-0.24250108
-0.00050226683
-0.2423322
-0.00038899876
-0.24219178
-0.00028261319
-0.24207942
-0.00018537984
-0.24199319
-9.9421664e-05
-3.5513625e-05
-0.25467632
-0.0030984127
-0.25415172
-0.002842154
-0.25369347
-0.0025685949
-0.25330646
-0.0022671504
-0.25299258
-0.001945991
-0.25275324
-0.0016080594
-0.2525886
-0.0012578782
-0.2524978
-0.000899569
-0.25247896
-0.0005373339
-0.25252932
-0.00017537006
-0.25264532
0.00018213853
-0.25282275
0.00053103768
-0.25305678
0.00086720285
-0.25334214
0.0011864657
-0.25367324
0.0014847064
-0.2540442
0.0017582326
-0.25444883
0.0020037748
-0.25488068
0.0022185606
-0.25533312
0.0024001815
-0.25579941
0.0025467146
-0.25627275
0.002656588
-0.2567464
0.002728761
-0.25721368
0.0027625872
-0.2576681
0.0027580172
-0.25810338
0.0027154457
-0.25851355
0.0026359098
-0.25889299
0.0025209182
-0.25923652
0.002372627
-0.25953945
0.0021936558
-0.25979769
0.0019872289
-0.26000776
0.0017569854
-0.26016692
0.0015070706
-0.26027321
0.0012419857
-0.26032549
0.00096653785
-0.26032352
0.00068581079
-0.26026798
0.00040500415
-0.26016049
0.00012940387
-0.26000361
-0.00013576266
-0.25980085
-0.0003854255
-0.25955658
-0.00061480106
-0.25927596
-0.00081950593
-0.25896492
-0.00099561895
-0.25862998
-0.0011398136
-0.25827814
-0.0012494172
-0.25791677
-0.0013224868
-0.25755346
-0.0013578437
-0.25719579
-0.0013551041
-0.25685126
-0.0013146951
-0.25652705
-0.0012378321
-0.25622997
-0.0011264791
-0.25596619
-0.00098328702
-0.25574122
-0.0008115301
-0.25555975
-0.00061503183
-0.25542557
-0.00039806793
-0.25534153
-0.00016525693
-0.25530944
7.8539432e-05
-0.25533012
0.00032831797
-0.25540335
0.00057904129
-0.25552789
0.00082571424
-0.25570155
0.0010634819
-0.25592123
0.0012877149
-0.25618295
0.0014940911
-0.25648199
0.0016786666
-0.25681293
0.0018379362
-0.25716981
0.0019688845
-0.25754616
0.0020690268
-0.25793518
0.0021364435
-0.25832985
0.0021697933
-0.25872299
0.0021683317
-0.25910747
0.0021319073
-0.25947624
0.0020609535
-0.25982249
0.0019564682
-0.26013974
0.0018199894
-0.26042195
0.0016535491
-0.26066359
0.0014596368
-0.26085974
0.0012411411
-0.26100615
0.0010012915
-0.26109928
0.00074359197
-0.26113636
0.00047175269
-0.26111541
0.00018961721
-0.26103525
-9.8902704e-05
-0.2608955
-0.00038993071
-0.26069655
-0.00067967808
-0.26043953
-0.00096450577
-0.26012629
-0.0012409917
-0.25975929
-0.0015059759
-0.25934153
-0.0017566336
-0.25887657
-0.0019905011
-0.25836834
-0.0022054809
-0.25782113
-0.0023998675
-0.25723946
-0.0025723586
-0.25662802
-0.0027220399
-0.25599161
-0.0028483794
-0.25533502
-0.0029511989
-0.25466302
-0.0030306439
-0.25398025
-0.0030871484
-0.25329121
-0.0031213947
-0.25260018
-0.0031342804
-0.25191124
-0.0031268649
-0.2512282
-0.0031003441
-0.2505546
-0.0030560082
-0.24989371
-0.0029952101
-0.24924848
-0.002919336
-0.24862162
-0.0028297869
-0.24801552
-0.0027279467
-0.24743233
-0.0026151788
-0.2468739
-0.0024928085
-0.24634185
-0.0023621164
-0.24583755
-0.0022243335
-0.24536214
-0.0020806446
-0.24491654
-0.0019321803
-0.24450146
-0.0017800319
-0.24411741
-0.0016252527
-0.24376472
-0.0014688699
-0.24344352
-0.0013118983
-0.24315378
-0.0011553616
-0.24289532
-0.0010003147
-0.24266778
-0.00084788995
-0.24247071
-0.00069933136
-0.24230361
-0.00055610624
-0.24216614
-0.00042007982
-0.24205837
-0.00029315281
-0.2419801
-0.00017769356
-8.0159008e-05
-0.25460889
-0.0037044278
-0.25407014
-0.003380913
-0.25359953
-0.0030391954
-0.25320192
-0.0026647624
-0.25287945
-0.0022684596
-0.25263362
-0.0018538905
-0.25246467
-0.0014268344
-0.25237178
-0.00099245897
-0.2523531
-0.00055600782
-0.25240585
-0.00012262737
-0.25252636
0.00030264958
-0.25271023
0.00071491011
-0.25295242
0.0011093934
-0.25324745
0.0014814915
-0.25358953
0.0018267887
-0.25397261
0.0021413145
-0.25439035
0.0024215134
-0.25483616
0.0026643713
-0.25530326
0.0028672796
-0.25578474
0.0030281984
-0.25627365
0.0031454962
-0.25676305
0.0032181605
-0.25724609
0.0032456256
-0.25771608
0.0032280064
-0.25816654
0.0031659122
-0.25859131
0.0030606778
-0.25898456
0.0029141632
-0.25934089
0.0027289621
-0.25965543
0.0025081918
-0.25992386
0.0022556633
-0.26014254
0.0019756673
-0.26030856
0.0016730849
-0.26041979
0.0013532197
-0.260475
0.0010217444
-0.26047385
0.00068466637
-0.260417
0.00034814765
-0.26030606
1.8463671e-05
-0.26014364
-0.00029817442
-0.25993335
-0.00059571901
-0.25967968
-0.00086847428
-0.25938799
-0.0011111954
-0.25906442
-0.0013191898
-0.25871575
-0.0014884808
-0.2583493
-0.0016158701
-0.25797274
-0.0016990397
-0.25759399
-0.0017366004
-0.25722097
-0.0017281269
-0.25686149
-0.0016741735
-0.25652307
-0.0015762467
-0.25621279
-0.0014367642
-0.25593709
-0.001258981
-0.25570172
-0.0010469075
-0.25551154
-0.00080521068
-0.25537051
-0.00053909877
-0.25528157
-0.00025419129
-0.25524664
4.3603035e-05
-0.25526653
0.00034821322
-0.25534102
0.00065353301
-0.25546883
0.00095352246
-0.25564767
0.0012423191
-0.25587429
0.0015143421
-0.25614459
0.0017643901
-0.25645365
0.0019877245
-0.25679586
0.0021801422
-0.25716501
0.0023380356
-0.25755442
0.0024584401
-0.25795705
0.0025390753
-0.25836562
0.0025783591
-0.25877272
0.0025754294
-0.25917095
0.0025301398
-0.25955304
0.0024430478
-0.25991197
0.0023153915
-0.26024104
0.0021490592
-0.26053402
0.0019465347
-0.26078524
0.0017108521
-0.26098962
0.0014455269
-0.26114282
0.0011544846
-0.26124121
0.00084198122
-0.26128197
0.00051252066
-0.26126312
0.00017076596
-0.26118348
-0.00017854174
-0.26104271
-0.00053070187
-0.26084127
-0.00088112393
-0.26058037
-0.001225401
-0.26026197
-0.0015593916
-0.25988866
-0.0018792827
-0.25946364
-0.0021816597
-0.25899059
-0.002463546
-0.25847365
-0.0027224237
-0.25791726
-0.0029562553
-0.25732613
-0.0031634942
-0.2567051
-0.0033430662
-0.25605912
-0.0034943609
-0.25539312
-0.0036171966
-0.25471198
-0.0037117831
-0.25402045
-0.003778678
-0.25332311
-0.0038187373
-0.25262432
-0.0038330743
-0.25192819
-0.0038229946
-0.25123857
-0.0037899646
-0.25055901
-0.0037355606
-0.24989279
-0.0036614302
-0.24924287
-0.0035692568
-0.24861192
-0.0034607373
-0.24800233
-0.0033375439
-0.24741618
-0.0032013203
-0.24685533
-0.0030536607
-0.24632135
-0.0028961023
-0.24581556
-0.0027301193
-0.24533908
-0.0025571275
-0.24489278
-0.0023784749
-0.24447736
-0.0021954584
-0.24409328
-0.0020093257
-0.24374087
-0.0018212876
-0.24342023
-0.0016325318
-0.24313135
-0.0014442443
-0.24287404
-0.0012576281
-0.24264799
-0.0010739401
-0.2424528
-0.00089451827
-0.24228805
-0.00072085576
-0.24215348
-0.00055464519
-0.24204912
-0.00039752021
-0.24197533
-0.0002514807
-0.00012003801
-0.25453695
-0.0043285981
-0.25398128
-0.003936585
-0.25349589
-0.0035245899
-0.25308555
-0.0030751026
-0.25275254
-0.0026014675
-0.25249837
-0.0021080603
-0.25232329
-0.0016019165
-0.25222649
-0.0010892606
-0.25220613
-0.00057636522
-0.25225945
-6.9307804e-05
-0.25238284
0.00042604173
-0.25257195
0.0009040216
-0.25282177
0.0013592134
-0.25312677
0.0017864874
-0.25348099
0.002181014
-0.25387815
0.0025384739
-0.25431164
0.0028550006
-0.25477461
0.0031273391
-0.25526002
0.0033526892
-0.25576072
0.0035289009
-0.25626951
0.0036542846
-0.2567792
0.003727852
-0.25728269
0.0037491117
-0.25777301
0.0037183347
-0.25824344
0.003636337
-0.25868751
0.0035047451
-0.25909911
0.0033257668
-0.25947258
0.0031024342
-0.25980276
0.0028383681
-0.26008507
0.0025379767
-0.26031562
0.0022062193
-0.26049127
0.0018487365
-0.26060972
0.0014716642
-0.26066955
0.0010815777
-0.26067034
0.00068545112
-0.26061265
0.0002904584
-0.26049811
-9.6078985e-05
-0.26032938
-0.00046690361
-0.26011015
-0.00081494118
-0.25984512
-0.0011335032
-0.25953989
-0.0014164292
-0.25920088
-0.0016582018
-0.25883521
-0.0018541461
-0.25845058
-0.0020005015
-0.25805507
-0.0020945482
-0.25765701
-0.0021346683
-0.25726474
-0.0021203889
-0.25688652
-0.0020523978
-0.25653025
-0.0019325119
-0.25620339
-0.0017636305
-0.25591272
-0.0015496489
-0.25566427
-0.0012953559
-0.25546317
-0.0010063123
-0.25531356
-0.00068871365
-0.25521851
-0.00034923661
-0.25518001
5.1076723e-06
-0.25519893
0.00036712618
-0.25527499
0.00072959207
-0.25540684
0.0010853717
-0.25559207
0.0014275501
-0.25582728
0.0017495546
-0.25610816
0.0020452686
-0.25642956
0.0023091281
-0.25678563
0.0025362062
-0.25716987
0.0027222827
-0.25757533
0.0028638981
-0.25799466
0.0029584009
-0.25842026
0.0030039638
-0.25884444
0.0029996079
-0.2592595
0.0029451968
-0.25965787
0.0028414235
-0.26003226
0.0026897814
-0.26037573
0.0024925293
-0.26068182
0.0022526268
-0.26094465
0.0019736813
-0.26115899
0.0016598662
-0.26132034
0.0013158375
-0.261425
0.00094664004
-0.26147009
0.00055760938
-0.26145359
0.00015426706
-0.26137436
-0.0002577763
-0.26123211
-0.00067295543
-0.26102739
-0.0010858424
-0.26076155
-0.0014912328
-0.26043671
-0.00188424
-0.26005561
-0.0022603753
-0.25962165
-0.0026156202
-0.25913872
-0.0029464766
-0.25861115
-0.0032499986
-0.25804359
-0.0035238141
-0.25744095
-0.0037661368
-0.25680827
-0.0039757413
-0.25615068
-0.0041519529
-0.25547327
-0.0042946039
-0.25478107
-0.0044039883
-0.25407894
-0.0044808088
-0.25337156
-0.0045261174
-0.25266336
-0.004541265
-0.25195853
-0.0045278247
-0.25126095
-0.0044875537
-0.25057417
-0.0044223322
-0.24990149
-0.0043341186
-0.24924583
-0.0042249072
-0.24860987
-0.0040967025
-0.24799594
-0.0039514739
-0.24740611
-0.0037911524
-0.24684216
-0.0036176056
-0.24630563
-0.0034326301
-0.24579781
-0.0032379443
-0.24531974
-0.003035194
-0.24487228
-0.0028259417
-0.24445605
-0.0026116854
-0.24407151
-0.0023938604
-0.24371895
-0.0021738518
-0.24339847
-0.0019530078
-0.24311006
-0.0017326606
-0.24285355
-0.0015141386
-0.24262869
-0.0012987965
-0.24243518
-0.0010880321
-0.24227271
-0.00088332551
-0.24214113
-0.00068621932
-0.2420405
-0.0004981525
-0.24197126
-0.00032072597
-0.00015569416
-0.25444723
-0.0049739619
-0.25387251
-0.0045113047
-0.25337066
-0.0040264379
-0.25294662
-0.0034991388
-0.25260281
-0.0029452753
-0.25234079
-0.0023700848
-0.25216081
-0.0017818996
-0.25206202
-0.0011880452
-0.25204253
-0.00059586084
-0.25209944
-1.2393961e-05
-0.25222901
0.00055561577
-0.25242673
0.0011017379
-0.25268742
0.0016199023
-0.25300539
0.0021044549
-0.25337451
0.0025501389
-0.25378832
0.0029522795
-0.25424001
0.0033066927
-0.25472254
0.0036098728
-0.25522867
0.0038588137
-0.255751
0.0040512388
-0.2562821
0.0041853812
-0.25681451
0.0042602594
-0.25734084
0.0042754381
-0.25785383
0.00423133
-0.25834644
0.0041289449
-0.25881189
0.003970193
-0.25924375
0.0037576261
-0.25963603
0.0034947168
-0.25998326
0.0031855962
-0.26028056
0.002835285
-0.26052378
0.0024494326
-0.26070951
0.0020344685
-0.26083524
0.0015973984
-0.26089941
0.001145745
-0.26090146
0.00068750125
-0.26084191
0.00023091155
-0.2607224
-0.00021559777
-0.26054565
-0.0006436521
-0.2603155
-0.0010450898
-0.26003684
-0.0014121622
-0.25971554
-0.0017377287
-0.25935836
-0.0020153859
-0.2589728
-0.002239706
-0.25856698
-0.0024063215
-0.25814945
-0.0025120776
-0.25772901
-0.0025551069
-0.25731452
-0.0025348815
-0.25691468
-0.0024522299
-0.25653789
-0.0023093005
-0.25619202
-0.0021095075
-0.25588424
-0.0018574283
-0.25562091
-0.001558681
-0.25540745
-0.0012197778
-0.2552482
-0.00084796348
-0.2551464
-0.00045103505
-0.25510412
-3.7169199e-05
-0.25512225
0.00038525633
-0.2552005
0.00080783474
-0.2553374
0.0012222807
-0.25553043
0.0016205749
-0.25577598
0.0019951056
-0.25606951
0.0023387992
-0.25640561
0.0026452307
-0.25677813
0.0029087197
-0.25718025
0.0031244093
-0.25760468
0.0032883276
-0.25804372
0.0033974408
-0.25848943
0.0034496704
-0.25893374
0.0034439216
-0.25936862
0.0033800749
-0.25978617
0.003258971
-0.26017876
0.0030823769
-0.26053918
0.0028529455
-0.26086069
0.0025741408
-0.26113719
0.002250176
-0.26136324
0.0018859198
-0.2615342
0.0014867988
-0.26164625
0.0010586891
-0.26169645
0.00060780238
-0.26168274
0.00014056329
-0.26160401
-0.0003365038
-0.26146004
-0.00081692892
-0.26125148
-0.0012944029
-0.26097983
-0.0017628848
-0.26064736
-0.002216709
-0.26025705
-0.0026506803
-0.25981252
-0.0030601551
-0.2593179
-0.0034411009
-0.25877776
-0.0037901367
-0.25819702
-0.004104556
-0.25758081
-0.0043823386
-0.25693443
-0.0046221205
-0.25626321
-0.0048231797
-0.25557243
-0.0049853836
-0.25486728
-0.0051091348
-0.25415278
-0.0051953069
-0.25343373
-0.0052451745
-0.25271464
-0.0052603529
-0.25199975
-0.0052427078
-0.251293
-0.0051943107
-0.25059796
-0.0051173676
-0.24991791
-0.0050141665
-0.24925579
-0.0048870285
-0.24861422
-0.0047382791
-0.24799549
-0.0045701957
-0.24740164
-0.0043850044
-0.2468344
-0.0041848522
-0.24629523
-0.0039717984
-0.24578537
-0.0037478071
-0.2453058
-0.0035147542
-0.24485733
-0.0032744147
-0.24444053
-0.0030284849
-0.24405581
-0.0027785833
-0.2437034
-0.0025262636
-0.24338338
-0.0022730272
-0.2430957
-0.0020203434
-0.24284018
-0.0017696554
-0.24261657
-0.0015224046
-0.24242457
-0.0012800357
-0.24226389
-0.0010440066
-0.24213437
-0.00081573594
-0.24203603
-0.00059648788
-0.24196929
-0.00038747307
-0.00018953075
-0.25434708
-0.005644396
-0.25375031
-0.0051080747
-0.25322959
-0.0045471563
-0.25278989
-0.0039388354
-0.25243369
-0.0033014784
-0.25216255
-0.0026412275
-0.2519767
-0.0019677412
-0.25187528
-0.0012894689
-0.25185631
-0.00061482977
-0.25191685
4.8149593e-05
-0.25205308
0.00069184583
-0.25226039
0.0013090412
-0.25253347
0.0018929812
-0.25286645
0.0024374419
-0.25325301
0.0029366911
-0.25368639
0.0033856652
-0.25415954
0.0037798452
-0.25466514
0.0041154673
-0.25519564
0.004389315
-0.25574338
0.0045989802
-0.25630061
0.0047426115
-0.25685958
0.0048192239
-0.25741256
0.004828426
-0.25795199
0.0047707599
-0.25847047
0.004647417
-0.25896086
0.0044605823
-0.25941637
0.0042131448
-0.25983067
0.0039090168
-0.26019792
0.0035528446
-0.26051291
0.003150273
-0.26077114
0.0027076608
-0.26096893
0.0022322551
-0.2611035
0.0017319683
-0.26117307
0.0012153173
-0.26117694
0.00069137045
-0.26111553
0.00016950635
-0.26099046
-0.00034067108
-0.26080452
-0.00082958852
-0.2605617
-0.0012879089
-0.26026713
-0.001706735
-0.25992699
-0.0020778674
-0.25954844
-0.00239394
-0.25913944
-0.002648706
-0.25870862
-0.0028371366
-0.2582651
-0.0029556025
-0.25781824
-0.0030019631
-0.2573775
-0.0029756274
-0.25695215
-0.0028775745
-0.25655114
-0.0027103102
-0.25618284
-0.0024778037
-0.25585491
-0.0021853667
-0.25557408
-0.0018395087
-0.25534609
-0.0014477634
-0.25517556
-0.0010184998
-0.25506588
-0.00056071235
-0.25501923
-8.3819951e-05
-0.25503651
0.00040254063
-0.25511739
0.00088871247
-0.2552603
0.0013651927
-0.25546252
0.0018227965
-0.25572024
0.0022528194
-0.25602862
0.0026471829
-0.25638195
0.0029985607
-0.25677372
0.0033004852
-0.25719674
0.0035474364
-0.25764333
0.0037349101
-0.25810536
0.0038594777
-0.2585745
0.0039188044
-0.25904226
0.0039116802
-0.25950019
0.0038380109
-0.25994002
0.0036987996
-0.26035375
0.003496108
-0.26073382
0.0032330107
-0.26107318
0.0029135088
-0.26136547
0.0025424603
-0.26160502
0.0021254718
-0.26178701
0.0016687879
-0.26190749
0.0011791662
-0.26196343
0.00066374659
-0.26195278
0.00012991051
-0.26187443
-0.00041485037
-0.26172825
-0.00096310879
-0.26151503
-0.0015076276
-0.26123643
-0.0020414861
-0.26089493
-0.0025582014
-0.26049377
-0.00305184
-0.26003682
-0.0035171087
-0.2595285
-0.003949425
-0.25897367
-0.0043449646
-0.25837754
-0.0047006861
-0.25774553
-0.0050143432
-0.25708321
-0.005284448
-0.25639613
-0.0055102521
-0.25568983
-0.0056916835
-0.25496969
-0.0058292822
-0.25424087
-0.0059241237
-0.25350831
-0.0059777367
-0.25277663
-0.0059920323
-0.25205014
-0.0059691985
-0.2513328
-0.0059116489
-0.25062823
-0.0058219398
-0.24993968
-0.0057027105
-0.24927008
-0.0055566279
-0.24862201
-0.005386353
-0.24799772
-0.005194483
-0.24739918
-0.004983548
-0.24682805
-0.0047559799
-0.24628575
-0.0045141037
-0.24577342
-0.0042601301
-0.24529201
-0.0039961636
-0.24484224
-0.0037241885
-0.24442463
-0.0034460941
-0.24403954
-0.0031636753
-0.24368716
-0.0028786463
-0.24336753
-0.0025926521
-0.24308059
-0.0023072883
-0.24282614
-0.0020241022
-0.24260393
-0.0017446131
-0.24241366
-0.0014703079
-0.24225503
-0.0012026327
-0.24212784
-0.00094292851
-0.24203198
-0.00069234324
-0.24196764
-0.00045181742
-0.00022172007
-0.25422772
-0.0063426685
-0.25360663
-0.0057291603
-0.25306526
-0.005088533
-0.25260878
-0.0043953141
-0.25223974
-0.0036705176
-0.25195972
-0.0029212487
-0.2517689
-0.0021585549
-0.25166631
-0.001392059
-0.25164984
-0.00063130324
-0.25171636
0.00011467098
-0.25186185
0.00083733525
-0.25208148
0.0015286716
-0.25236974
0.0021812407
-0.25272054
0.0027882444
-0.25312731
0.0033434618
-0.25358308
0.0038414292
-0.25408051
0.0042772813
-0.25461203
0.0046469847