/*--------------------------------*- C++ -*----------------------------------*\
| =========                 |                                                 |
| \\      /  F ield         | foam-extend: Open Source CFD                    |
|  \\    /   O peration     | Version:     4.1                                |
|   \\  /    A nd           | Web:         http://www.foam-extend.org         |
|    \\/     M anipulation  |                                                 |
\*---------------------------------------------------------------------------*/
FoamFile
{
    version     2.0;
    format      ascii;
    class       volScalarField;
    location    "0.45";
    object      rAU;
}
// * * * * * * * * * * * * * * * * * * * * * * * * * * * * * * * * * * * * * //

dimensions      [0 0 1 0 0 0 0];

internalField   nonuniform List<scalar> 
16796
(
3.8801242e-05
3.8825618e-05
3.885175e-05
3.8876701e-05
3.8900144e-05
3.8921742e-05
3.8940956e-05
3.8957493e-05
3.8970795e-05
3.8980598e-05
3.898639e-05
3.8985142e-05
3.897802e-05
3.896713e-05
3.895269e-05
3.8935156e-05
3.8914683e-05
3.88917e-05
3.8866364e-05
3.8839126e-05
3.8810171e-05
3.8779983e-05
3.874877e-05
3.8717032e-05
3.8684985e-05
3.8653124e-05
3.8621649e-05
3.8591031e-05
3.8561429e-05
3.8533268e-05
3.850665e-05
3.8481897e-05
3.8459186e-05
3.8438542e-05
3.8420202e-05
3.8404069e-05
3.8390295e-05
3.8378692e-05
3.8369327e-05
3.8361929e-05
3.8356485e-05
3.8352666e-05
3.8350342e-05
3.8349224e-05
3.8349048e-05
3.8349048e-05
3.8349528e-05
3.8350392e-05
3.8351348e-05
3.8352114e-05
3.8351942e-05
3.8350498e-05
3.8347856e-05
3.8343842e-05
3.8338294e-05
3.83311e-05
3.8322179e-05
3.831149e-05
3.8299028e-05
3.8284839e-05
3.8268984e-05
3.8251575e-05
3.8232753e-05
3.8212685e-05
3.8191569e-05
3.8169614e-05
3.8147067e-05
3.8124159e-05
3.8101148e-05
3.8078288e-05
3.8055832e-05
3.8034022e-05
3.8013108e-05
3.7993298e-05
3.79748e-05
3.7957797e-05
3.794245e-05
3.7928889e-05
3.7917234e-05
3.790755e-05
3.7899897e-05
3.7894298e-05
3.789075e-05
3.7889226e-05
3.7889226e-05
3.7889677e-05
3.7892064e-05
3.7896323e-05
3.7902345e-05
3.7909993e-05
3.7919132e-05
3.7929591e-05
3.7941206e-05
3.7953804e-05
3.796721e-05
3.7981248e-05
3.7995742e-05
3.8010534e-05
3.8025449e-05
3.8040336e-05
3.8055045e-05
3.8069439e-05
3.8083385e-05
3.8096776e-05
3.8109493e-05
3.8121442e-05
3.8132535e-05
3.8142697e-05
3.8151857e-05
3.8159969e-05
3.8166974e-05
3.8172839e-05
3.8177534e-05
3.8181039e-05
3.8183339e-05
3.8184346e-05
3.8183074e-05
3.8180657e-05
3.817714e-05
3.8172582e-05
3.8167088e-05
3.8160919e-05
3.8154138e-05
3.8143689e-05
3.7695121e-05
3.7717557e-05
3.774173e-05
3.7764505e-05
3.7785731e-05
3.7805377e-05
3.7823224e-05
3.7839357e-05
3.7853587e-05
3.7866042e-05
3.7876548e-05
3.7882028e-05
3.7877887e-05
3.7871581e-05
3.7862843e-05
3.7851832e-05
3.7838514e-05
3.7823236e-05
3.7806096e-05
3.778753e-05
3.7767696e-05
3.7747073e-05
3.7725843e-05
3.7704496e-05
3.7683215e-05
3.7662478e-05
3.7642444e-05
3.7623559e-05
3.7605938e-05
3.7589975e-05
3.7575724e-05
3.7563469e-05
3.7553345e-05
3.7545325e-05
3.7539612e-05
3.7536057e-05
3.7534775e-05
3.753553e-05
3.7538354e-05
3.7542932e-05
3.7549222e-05
3.7554447e-05
3.75605e-05
3.7567919e-05
3.757647e-05
3.7585429e-05
3.759508e-05
3.7605306e-05
3.76158e-05
3.7626282e-05
3.7636029e-05
3.7644698e-05
3.7652322e-05
3.7658698e-05
3.7661641e-05
3.7661723e-05
3.7659976e-05
3.7656407e-05
3.7651059e-05
3.7644029e-05
3.7635421e-05
3.7625391e-05
3.7614118e-05
3.7601804e-05
3.7588675e-05
3.7574965e-05
3.7560937e-05
3.7546839e-05
3.7532933e-05
3.7519476e-05
3.750672e-05
3.74949e-05
3.7484253e-05
3.7474975e-05
3.7467256e-05
3.7461259e-05
3.7457123e-05
3.7454953e-05
3.7454847e-05
3.7456843e-05
3.7460978e-05
3.7467249e-05
3.7472722e-05
3.7479099e-05
3.7487117e-05
3.7495709e-05
3.750628e-05
3.7518744e-05
3.7533006e-05
3.7548949e-05
3.7566459e-05
3.7585384e-05
3.7605581e-05
3.7626893e-05
3.7649157e-05
3.7672213e-05
3.7695891e-05
3.7720041e-05
3.7744496e-05
3.7769105e-05
3.7793724e-05
3.7818212e-05
3.7842437e-05
3.7866289e-05
3.7889643e-05
3.79124e-05
3.7934468e-05
3.7955761e-05
3.7976202e-05
3.7995736e-05
3.8014293e-05
3.8031829e-05
3.8048302e-05
3.806368e-05
3.8077933e-05
3.8090958e-05
3.8101749e-05
3.8111408e-05
3.8119948e-05
3.8127399e-05
3.8133751e-05
3.8137575e-05
3.8140689e-05
3.814132e-05
3.7609665e-05
3.7630999e-05
3.7653348e-05
3.7674064e-05
3.7692863e-05
3.7709753e-05
3.7724498e-05
3.7737196e-05
3.7747675e-05
3.7756098e-05
3.7762338e-05
3.7761547e-05
3.7749052e-05
3.7734875e-05
3.7719099e-05
3.7702096e-05
3.7683948e-05
3.7665058e-05
3.7645536e-05
3.7625813e-05
3.7606017e-05
3.7586587e-05
3.7567651e-05
3.7549634e-05
3.7532642e-05
3.751707e-05
3.7502984e-05
3.7490731e-05
3.7480319e-05
3.7472036e-05
3.7465822e-05
3.7461853e-05
3.7460148e-05
3.7460573e-05
3.7463226e-05
3.7467854e-05
3.7474479e-05
3.7482777e-05
3.7492703e-05
3.7500922e-05
3.7508286e-05
3.7514558e-05
3.7521671e-05
3.7530197e-05
3.7539936e-05
3.7550657e-05
3.7562109e-05
3.7574045e-05
3.7586182e-05
3.7598251e-05
3.7609985e-05
3.7621124e-05
3.7631419e-05
3.7640655e-05
3.7646623e-05
3.764609e-05
3.7642386e-05
3.7636829e-05
3.7629521e-05
3.7620616e-05
3.7610274e-05
3.7598695e-05
3.7586099e-05
3.7572724e-05
3.7558821e-05
3.7544645e-05
3.7530473e-05
3.7516556e-05
3.7503158e-05
3.749053e-05
3.747891e-05
3.7468516e-05
3.7459562e-05
3.7452219e-05
3.7446648e-05
3.7442979e-05
3.7441317e-05
3.7441733e-05
3.7444287e-05
3.7448983e-05
3.7455822e-05
3.7461139e-05
3.7463067e-05
3.7465886e-05
3.7470818e-05
3.7477856e-05
3.7486965e-05
3.7498082e-05
3.7511127e-05
3.7525995e-05
3.7542579e-05
3.7560732e-05
3.7580312e-05
3.7601163e-05
3.7623122e-05
3.7646023e-05
3.7669692e-05
3.7693974e-05
3.7718692e-05
3.7743689e-05
3.776881e-05
3.7793909e-05
3.7818841e-05
3.7843488e-05
3.7867717e-05
3.789142e-05
3.7914494e-05
3.7936847e-05
3.7958392e-05
3.7979066e-05
3.7998794e-05
3.8017522e-05
3.8035202e-05
3.8051794e-05
3.8067262e-05
3.808159e-05
3.8094749e-05
3.8106728e-05
3.8117517e-05
3.8127109e-05
3.8135416e-05
3.8140864e-05
3.8145319e-05
3.8145623e-05
3.7585886e-05
3.7609507e-05
3.7633851e-05
3.7656658e-05
3.7677498e-05
3.7696368e-05
3.7712973e-05
3.772737e-05
3.7739344e-05
3.7749019e-05
3.7756242e-05
3.7746313e-05
3.7730274e-05
3.7712674e-05
3.7693692e-05
3.7673796e-05
3.7653136e-05
3.7632164e-05
3.7611026e-05
3.7590169e-05
3.7569732e-05
3.7550148e-05
3.7531532e-05
3.7514286e-05
3.7498488e-05
3.7484495e-05
3.747233e-05
3.7462295e-05
3.7454351e-05
3.7448734e-05
3.7445336e-05
3.7444281e-05
3.7445544e-05
3.7448942e-05
3.745453e-05
3.7462016e-05
3.7471383e-05
3.7482273e-05
3.7490618e-05
3.7494109e-05
3.749717e-05
3.7502064e-05
3.7508772e-05
3.7517098e-05
3.7526859e-05
3.753784e-05
3.7549791e-05
3.7562462e-05
3.7575562e-05
3.7588805e-05
3.7601901e-05
3.7614565e-05
3.7626515e-05
3.7637503e-05
3.7647277e-05
3.764963e-05
3.7644148e-05
3.7636767e-05
3.7627629e-05
3.7616925e-05
3.7604851e-05
3.7591641e-05
3.7577547e-05
3.7562836e-05
3.7547782e-05
3.7532664e-05
3.7517774e-05
3.7503377e-05
3.7489745e-05
3.7477133e-05
3.746578e-05
3.74559e-05
3.7447699e-05
3.7441337e-05
3.7436959e-05
3.7434679e-05
3.743458e-05
3.7436712e-05
3.7441111e-05
3.7447754e-05
3.745638e-05
3.7455527e-05
3.7454225e-05
3.7455083e-05
3.7458139e-05
3.7463405e-05
3.7470864e-05
3.7480468e-05
3.7492147e-05
3.7505804e-05
3.7521336e-05
3.7538601e-05
3.7557458e-05
3.7577748e-05
3.7599307e-05
3.7621961e-05
3.7645534e-05
3.7669861e-05
3.7694758e-05
3.7720059e-05
3.77456e-05
3.7771225e-05
3.7796781e-05
3.782214e-05
3.7847159e-05
3.7871721e-05
3.7895717e-05
3.7919044e-05
3.7941608e-05
3.7963339e-05
3.7984153e-05
3.8003989e-05
3.8022792e-05
3.8040515e-05
3.8057112e-05
3.8072562e-05
3.8086824e-05
3.8099877e-05
3.8111697e-05
3.8122256e-05
3.81315e-05
3.8139366e-05
3.8145832e-05
3.814712e-05
3.7565268e-05
3.7591647e-05
3.7618678e-05
3.7644319e-05
3.7668023e-05
3.7689769e-05
3.7709214e-05
3.7726375e-05
3.7740997e-05
3.7753166e-05
3.7759401e-05
3.774326e-05
3.7724878e-05
3.7705047e-05
3.7683959e-05
3.7662109e-05
3.7639679e-05
3.7617153e-05
3.7594699e-05
3.7572783e-05
3.7551553e-05
3.7531447e-05
3.7512581e-05
3.7495353e-05
3.7479831e-05
3.7466362e-05
3.7454956e-05
3.7445899e-05
3.7439133e-05
3.7434874e-05
3.7432993e-05
3.7433592e-05
3.743662e-05
3.7441871e-05
3.7449371e-05
3.7458799e-05
3.7470111e-05
3.7481379e-05
3.748243e-05
3.748216e-05
3.7484173e-05
3.7488266e-05
3.7494439e-05
3.7502505e-05
3.7512291e-05
3.7523578e-05
3.7536112e-05
3.7549629e-05
3.7563821e-05
3.7578379e-05
3.7592988e-05
3.7607327e-05
3.7621083e-05
3.7633969e-05
3.7645697e-05
3.7653224e-05
3.7645969e-05
3.7636753e-05
3.7625756e-05
3.7613206e-05
3.7599334e-05
3.7584413e-05
3.7568725e-05
3.7552567e-05
3.7536242e-05
3.752005e-05
3.7504305e-05
3.7489287e-05
3.7475279e-05
3.7462544e-05
3.7451323e-05
3.744183e-05
3.7434265e-05
3.7428779e-05
3.7425505e-05
3.7424541e-05
3.742595e-05
3.7429761e-05
3.7435986e-05
3.7444577e-05
3.7452254e-05
3.7446771e-05
3.7443432e-05
3.7442327e-05
3.7443518e-05
3.7447033e-05
3.7452871e-05
3.7460998e-05
3.7471354e-05
3.7483848e-05
3.7498385e-05
3.7514823e-05
3.753302e-05
3.7552817e-05
3.7574042e-05
3.7596519e-05
3.7620062e-05
3.7644499e-05
3.7669637e-05
3.7695301e-05
3.7721318e-05
3.774752e-05
3.7773747e-05
3.7799861e-05
3.7825709e-05
3.7851168e-05
3.7876117e-05
3.7900448e-05
3.7924058e-05
3.7946871e-05
3.7968795e-05
3.7989763e-05
3.8009714e-05
3.8028594e-05
3.8046351e-05
3.8062956e-05
3.8078362e-05
3.8092538e-05
3.8105451e-05
3.811706e-05
3.8127302e-05
3.8136109e-05
3.8143385e-05
3.814625e-05
3.754499e-05
3.7574255e-05
3.7604161e-05
3.7632811e-05
3.7659553e-05
3.7684335e-05
3.7706766e-05
3.7726819e-05
3.7744198e-05
3.7758953e-05
3.7760527e-05
3.7741558e-05
3.7720772e-05
3.7698674e-05
3.7675475e-05
3.7651687e-05
3.7627511e-05
3.7603442e-05
3.757966e-05
3.7556642e-05
3.7534542e-05
3.7513803e-05
3.7494544e-05
3.7477163e-05
3.7461728e-05
3.744858e-05
3.7437725e-05
3.7429441e-05
3.742366e-05
3.7420586e-05
3.7420073e-05
3.7422207e-05
3.7426914e-05
3.7433964e-05
3.7443357e-05
3.7454741e-05
3.7468038e-05
3.7474571e-05
3.7470649e-05
3.7469091e-05
3.747006e-05
3.7473375e-05
3.7479049e-05
3.7486909e-05
3.7496782e-05
3.7508448e-05
3.7521647e-05
3.75361e-05
3.7551479e-05
3.7567451e-05
3.7583669e-05
3.7599782e-05
3.7615439e-05
3.7630314e-05
3.7644079e-05
3.7655879e-05
3.7647994e-05
3.7636858e-05
3.7623907e-05
3.7609407e-05
3.7593629e-05
3.7576881e-05
3.7559481e-05
3.7541758e-05
3.7524043e-05
3.7506663e-05
3.7489951e-05
3.7474206e-05
3.7459724e-05
3.7446776e-05
3.7435607e-05
3.7426431e-05
3.7419445e-05
3.7414791e-05
3.7412588e-05
3.741292e-05
3.7415831e-05
3.7421327e-05
3.7429395e-05
3.7439961e-05
3.7444234e-05
3.7436609e-05
3.7431192e-05
3.7428101e-05
3.7427415e-05
3.7429184e-05
3.743342e-05
3.7440101e-05
3.7449176e-05
3.7460562e-05
3.7474163e-05
3.7489839e-05
3.7507448e-05
3.7526824e-05
3.7547791e-05
3.7570166e-05
3.7593753e-05
3.7618372e-05
3.764382e-05
3.7669912e-05
3.7696464e-05
3.77233e-05
3.7750247e-05
3.7777159e-05
3.7803876e-05
3.7830262e-05
3.7856191e-05
3.7881546e-05
3.7906218e-05
3.7930121e-05
3.7953158e-05
3.7975257e-05
3.7996349e-05
3.8016375e-05
3.8035276e-05
3.8053018e-05
3.8069545e-05
3.8084824e-05
3.8098813e-05
3.8111468e-05
3.8122729e-05
3.8132539e-05
3.8140795e-05
3.8144755e-05
3.7524199e-05
3.7556492e-05
3.7589436e-05
3.7621246e-05
3.7651173e-05
3.7679139e-05
3.7704701e-05
3.7727793e-05
3.7748079e-05
3.7765571e-05
3.7762086e-05
3.7740577e-05
3.7717347e-05
3.7692922e-05
3.7667528e-05
3.7641697e-05
3.7615648e-05
3.7589894e-05
3.7564632e-05
3.7540351e-05
3.7517215e-05
3.7495675e-05
3.7475855e-05
3.7458157e-05
3.7442649e-05
3.7429673e-05
3.7419231e-05
3.7411595e-05
3.7406692e-05
3.7404714e-05
3.7405502e-05
3.7409125e-05
3.741549e-05
3.7424342e-05
3.7435654e-05
3.7449044e-05
3.7464401e-05
3.7462458e-05
3.745698e-05
3.7454112e-05
3.7454042e-05
3.7456608e-05
3.746184e-05
3.7469571e-05
3.7479632e-05
3.7491799e-05
3.7505799e-05
3.7521336e-05
3.753806e-05
3.7555609e-05
3.7573603e-05
3.7591653e-05
3.7609368e-05
3.7626381e-05
3.7642319e-05
3.765685e-05
3.7650203e-05
3.7637066e-05
3.7622063e-05
3.7605504e-05
3.75877e-05
3.7568997e-05
3.7549752e-05
3.7530329e-05
3.7511089e-05
3.7492387e-05
3.747458e-05
3.7457986e-05
3.7442916e-05
3.7429651e-05
3.7418444e-05
3.7409507e-05
3.7403037e-05
3.7399164e-05
3.7398001e-05
3.7399611e-05
3.7404022e-05
3.7411217e-05
3.7421159e-05
3.7433744e-05
3.743472e-05
3.7424902e-05
3.7417374e-05
3.7412276e-05
3.7409709e-05
3.7409739e-05
3.7412392e-05
3.741766e-05
3.7425498e-05
3.7435827e-05
3.7448554e-05
3.7463538e-05
3.7480632e-05
3.7499666e-05
3.7520457e-05
3.754281e-05
3.7566523e-05
3.7591405e-05
3.7617241e-05
3.7643835e-05
3.7670993e-05
3.7698528e-05
3.7726259e-05
3.7754027e-05
3.7781663e-05
3.7809026e-05
3.7835978e-05
3.7862398e-05
3.7888166e-05
3.7913193e-05
3.7937376e-05
3.7960634e-05
3.7982894e-05
3.8004091e-05
3.8024161e-05
3.8043063e-05
3.8060738e-05
3.8077143e-05
3.8092234e-05
3.810596e-05
3.8118262e-05
3.8129091e-05
3.8138354e-05
3.8143417e-05
3.7503244e-05
3.7538722e-05
3.7574858e-05
3.7609966e-05
3.7643198e-05
3.7674442e-05
3.7703205e-05
3.7729381e-05
3.7752593e-05
3.7772819e-05
3.7763963e-05
3.7739705e-05
3.7713825e-05
3.7686876e-05
3.7659107e-05
3.7631069e-05
3.7602997e-05
3.7575421e-05
3.7548552e-05
3.7522888e-05
3.7498606e-05
3.7476164e-05
3.7455691e-05
3.7437594e-05
3.7421945e-05
3.7409085e-05
3.7399017e-05
3.7392009e-05
3.7387979e-05
3.7387113e-05
3.7389238e-05
3.7394405e-05
3.7402503e-05
3.7413252e-05
3.7426596e-05
3.7442122e-05
3.7457545e-05
3.744897e-05
3.7441901e-05
3.7437704e-05
3.7436595e-05
3.7438431e-05
3.7443258e-05
3.7450916e-05
3.7461239e-05
3.7473997e-05
3.7488904e-05
3.7505645e-05
3.7523844e-05
3.7543107e-05
3.7563019e-05
3.758315e-05
3.7603065e-05
3.7622352e-05
3.7640593e-05
3.7657409e-05
3.7652778e-05
3.7637528e-05
3.762035e-05
3.7601599e-05
3.7581628e-05
3.7560827e-05
3.7539591e-05
3.7518321e-05
3.7497414e-05
3.7477252e-05
3.745822e-05
3.7440656e-05
3.7424888e-05
3.7411208e-05
3.7399877e-05
3.7391109e-05
3.7385098e-05
3.7381969e-05
3.738182e-05
3.7384702e-05
3.7390621e-05
3.7399539e-05
3.7411391e-05
3.7426046e-05
3.7423841e-05
3.741176e-05
3.7402067e-05
3.7394925e-05
3.7390457e-05
3.7388744e-05
3.7389827e-05
3.7393708e-05
3.7400347e-05
3.7409671e-05
3.7421585e-05
3.7435945e-05
3.74526e-05
3.7471371e-05
3.7492066e-05
3.7514481e-05
3.7538403e-05
3.7563627e-05
3.7589927e-05
3.7617097e-05
3.7644929e-05
3.7673226e-05
3.7701795e-05
3.773047e-05
3.7759071e-05
3.7787447e-05
3.7815455e-05
3.7842963e-05
3.7869849e-05
3.7896014e-05
3.7921351e-05
3.7945774e-05
3.7969205e-05
3.7991573e-05
3.801281e-05
3.8032873e-05
3.8051696e-05
3.8069234e-05
3.808544e-05
3.8100266e-05
3.8113654e-05
3.8125563e-05
3.8135917e-05
3.8142146e-05
3.7481736e-05
3.752061e-05
3.7560139e-05
3.759873e-05
3.7635445e-05
3.7670134e-05
3.7702255e-05
3.773166e-05
3.7757932e-05
3.7781012e-05
3.7766462e-05
3.7739332e-05
3.7710668e-05
3.7681048e-05
3.7650746e-05
3.7620334e-05
3.7590069e-05
3.7560499e-05
3.7531851e-05
3.7504639e-05
3.747905e-05
3.7455553e-05
3.7434285e-05
3.741566e-05
3.7399752e-05
3.7386907e-05
3.7377127e-05
3.7370676e-05
3.7367471e-05
3.7367685e-05
3.7371137e-05
3.7377862e-05
3.7387727e-05
3.7400431e-05
3.7415887e-05
3.7433651e-05
3.744556e-05
3.7433663e-05
3.7424937e-05
3.7419373e-05
3.7417213e-05
3.7418336e-05
3.7422803e-05
3.7430462e-05
3.7441145e-05
3.7454615e-05
3.7470572e-05
3.7488676e-05
3.7508522e-05
3.7529682e-05
3.7551698e-05
3.7574098e-05
3.7596398e-05
3.7618137e-05
3.7638846e-05
3.7658099e-05
3.7655731e-05
3.7638246e-05
3.7618759e-05
3.7597668e-05
3.7575375e-05
3.7552315e-05
3.7528927e-05
3.750565e-05
3.7482918e-05
3.7461146e-05
3.7440746e-05
3.742208e-05
3.7405494e-05
3.7391295e-05
3.7379751e-05
3.737108e-05
3.7365474e-05
3.7363052e-05
3.73639e-05
3.7368055e-05
3.7375502e-05
3.7386179e-05
3.7399996e-05
3.7416791e-05
3.7411541e-05
3.7397125e-05
3.7385211e-05
3.7375987e-05
3.7369595e-05
3.7366135e-05
3.7365661e-05
3.7368182e-05
3.7373666e-05
3.7382039e-05
3.7393206e-05
3.7407018e-05
3.7423315e-05
3.744191e-05
3.7462601e-05
3.7485172e-05
3.7509394e-05
3.7535052e-05
3.7561906e-05
3.7589736e-05
3.7618324e-05
3.7647459e-05
3.7676938e-05
3.7706583e-05
3.7736208e-05
3.7765651e-05
3.7794762e-05
3.7823403e-05
3.7851444e-05
3.7878781e-05
3.7905301e-05
3.7930914e-05
3.7955536e-05
3.7979093e-05
3.8001513e-05
3.8022747e-05
3.8042726e-05
3.8061404e-05
3.807873e-05
3.8094655e-05
3.8109129e-05
3.8122118e-05
3.8133562e-05
3.8140937e-05
3.7459881e-05
3.7502359e-05
3.7545476e-05
3.7587735e-05
3.7628094e-05
3.7666369e-05
3.7701966e-05
3.7734694e-05
3.7764096e-05
3.7790079e-05
3.7769335e-05
3.7739126e-05
3.7707473e-05
3.7674985e-05
3.7641962e-05
3.7608998e-05
3.7576371e-05
3.7544647e-05
3.751407e-05
3.7485169e-05
3.7458142e-05
3.7433469e-05
3.7411298e-05
3.7392047e-05
3.7375799e-05
3.7362903e-05
3.7353362e-05
3.7347441e-05
3.7345051e-05
3.7346361e-05
3.7351176e-05
3.7359519e-05
3.7371236e-05
3.7386001e-05
3.74037e-05
3.7423852e-05
3.7430654e-05
3.7416755e-05
3.7406305e-05
3.7399328e-05
3.7396096e-05
3.7396511e-05
3.7400649e-05
3.7408365e-05
3.7419491e-05
3.7433781e-05
3.7450917e-05
3.7470533e-05
3.7492192e-05
3.7515426e-05
3.7539733e-05
3.756459e-05
3.7589464e-05
3.7613838e-05
3.7637192e-05
3.7659043e-05
3.7659201e-05
3.7639336e-05
3.7617378e-05
3.7593779e-05
3.756899e-05
3.7543493e-05
3.7517774e-05
3.7492315e-05
3.7467588e-05
3.7444045e-05
3.7422126e-05
3.7402221e-05
3.7384694e-05
3.736987e-05
3.7358023e-05
3.7349378e-05
3.7344126e-05
3.7342379e-05
3.7344214e-05
3.7349649e-05
3.735865e-05
3.7371132e-05
3.7386974e-05
3.7405986e-05
3.7397836e-05
3.7380997e-05
3.7366791e-05
3.7355433e-05
3.7347086e-05
3.7341867e-05
3.7339841e-05
3.7341026e-05
3.7345394e-05
3.7352869e-05
3.7363354e-05
3.7376693e-05
3.7392716e-05
3.7411226e-05
3.7432005e-05
3.7454825e-05
3.7479442e-05
3.7505625e-05
3.7533122e-05
3.7561697e-05
3.7591118e-05
3.7621164e-05
3.7651618e-05
3.7682294e-05
3.7712994e-05
3.774355e-05
3.7773804e-05
3.7803609e-05
3.7832832e-05
3.7861363e-05
3.7889083e-05
3.79159e-05
3.7941725e-05
3.796648e-05
3.7990091e-05
3.8012505e-05
3.8033652e-05
3.8053483e-05
3.8071946e-05
3.8088996e-05
3.8104583e-05
3.8118679e-05
3.813124e-05
3.8139763e-05
3.7437416e-05
3.7483762e-05
3.7530711e-05
3.7576866e-05
3.7621086e-05
3.7663148e-05
3.7702406e-05
3.7738624e-05
3.7771304e-05
3.7800317e-05
3.7772813e-05
3.773935e-05
3.7704527e-05
3.7668984e-05
3.7633048e-05
3.7597341e-05
3.7562163e-05
3.75281e-05
3.7495415e-05
3.7464651e-05
3.7436023e-05
3.7410022e-05
3.7386806e-05
3.7366804e-05
3.7350105e-05
3.7337063e-05
3.7327685e-05
3.7322238e-05
3.7320629e-05
3.7323022e-05
3.7329215e-05
3.7339213e-05
3.7352846e-05
3.7369763e-05
3.7389821e-05
3.7412503e-05
3.7413948e-05
3.7397929e-05
3.7385661e-05
3.7377209e-05
3.7372873e-05
3.7372583e-05
3.7376427e-05
3.7384269e-05
3.739594e-05
3.741118e-05
3.742965e-05
3.7450958e-05
3.7474627e-05
3.7500146e-05
3.7526963e-05
3.7554502e-05
3.7582171e-05
3.7609398e-05
3.7635601e-05
3.7660242e-05
3.7663217e-05
3.7640807e-05
3.7616203e-05
3.7589908e-05
3.7562428e-05
3.7534297e-05
3.7506051e-05
3.7478217e-05
3.7451312e-05
3.7425822e-05
3.7402224e-05
3.7380932e-05
3.7362336e-05
3.7346773e-05
3.7334533e-05
3.7325845e-05
3.7320899e-05
3.7319802e-05
3.7322619e-05
3.7329353e-05
3.7339949e-05
3.7354295e-05
3.7372243e-05
3.7393566e-05
3.738268e-05
3.7363319e-05
3.7346745e-05
3.7333198e-05
3.7322862e-05
3.7315869e-05
3.7312298e-05
3.7312173e-05
3.7315467e-05
3.7322103e-05
3.7331979e-05
3.7344929e-05
3.7360771e-05
3.7379293e-05
3.7400264e-05
3.7423438e-05
3.7448555e-05
3.7475368e-05
3.7503608e-05
3.7533024e-05
3.756337e-05
3.759441e-05
3.7625918e-05
3.7657696e-05
3.7689536e-05
3.7721262e-05
3.7752707e-05
3.7783722e-05
3.7814164e-05
3.784392e-05
3.7872867e-05
3.7900908e-05
3.7927952e-05
3.7953918e-05
3.7978727e-05
3.8002326e-05
3.8024643e-05
3.8045627e-05
3.8065227e-05
3.8083398e-05
3.8100095e-05
3.8115296e-05
3.8128968e-05
3.813862e-05
3.7414454e-05
3.7464925e-05
3.7515951e-05
3.7566235e-05
3.7614529e-05
3.7660567e-05
3.7703651e-05
3.7743498e-05
3.7779573e-05
3.7810802e-05
3.7776723e-05
3.7739783e-05
3.7701571e-05
3.766276e-05
3.7623708e-05
3.7585061e-05
3.7547143e-05
3.7510562e-05
3.7475598e-05
3.7442812e-05
3.7412432e-05
3.7384965e-05
3.7360578e-05
3.7339713e-05
3.7322466e-05
3.7309201e-05
3.7299928e-05
3.7294917e-05
3.7294077e-05
3.7297566e-05
3.7305175e-05
3.7316896e-05
3.7332541e-05
3.7351735e-05
3.7374303e-05
3.7399694e-05
3.7395516e-05
3.7377248e-05
3.7363062e-05
3.735306e-05
3.7347579e-05
3.7346572e-05
3.7350148e-05
3.7358176e-05
3.7370483e-05
3.7386799e-05
3.7406761e-05
3.7429942e-05
3.7455826e-05
3.7483851e-05
3.7513411e-05
3.7543871e-05
3.7574576e-05
3.7604888e-05
3.7634165e-05
3.7661805e-05
3.766791e-05
3.7642768e-05
3.7615315e-05
3.7586112e-05
3.7555724e-05
3.7524742e-05
3.7493753e-05
3.7463336e-05
3.7434051e-05
3.7406428e-05
3.7380976e-05
3.7358142e-05
3.7338338e-05
3.7321923e-05
3.7309196e-05
3.7300393e-05
3.7295706e-05
3.7295236e-05
3.7299037e-05
3.7307095e-05
3.7319334e-05
3.7335613e-05
3.7355755e-05
3.7379497e-05
3.7366043e-05
3.7344049e-05
3.7325017e-05
3.7309213e-05
3.7296844e-05
3.7288057e-05
3.7282943e-05
3.728153e-05
3.7283793e-05
3.7289651e-05
3.7298991e-05
3.7311638e-05
3.7327395e-05
3.7346034e-05
3.7367304e-05
3.7390941e-05
3.7416668e-05
3.7444217e-05
3.7473302e-05
3.7503656e-05
3.7535017e-05
3.7567137e-05
3.7599775e-05
3.7632722e-05
3.7665763e-05
3.7698711e-05
3.7731395e-05
3.7763657e-05
3.7795352e-05
3.782636e-05
3.7856557e-05
3.788584e-05
3.7914118e-05
3.7941306e-05
3.7967326e-05
3.799212e-05
3.8015616e-05
3.8037763e-05
3.8058511e-05
3.8077814e-05
3.8095631e-05
3.8111945e-05
3.8126728e-05
3.81375e-05
3.7390818e-05
3.7445726e-05
3.7501118e-05
3.7555806e-05
3.760843e-05
3.7658683e-05
3.7705809e-05
3.774948e-05
3.7789117e-05
3.7820257e-05
3.7781224e-05
3.7740588e-05
3.7698767e-05
3.7656467e-05
3.761408e-05
3.7572279e-05
3.7531413e-05
3.7492112e-05
3.7454677e-05
3.7419685e-05
3.7387382e-05
3.7358288e-05
3.7332585e-05
3.7310725e-05
3.7292818e-05
3.7279234e-05
3.7269992e-05
3.7265366e-05
3.7265268e-05
3.7269853e-05
3.7278906e-05
3.7292409e-05
3.7310154e-05
3.7331745e-05
3.7356976e-05
3.7385257e-05
3.737514e-05
3.7354468e-05
3.7338237e-05
3.7326594e-05
3.7319914e-05
3.7318178e-05
3.7321511e-05
3.7329792e-05
3.7342844e-05
3.736038e-05
3.7382011e-05
3.7407274e-05
3.7435604e-05
3.7466387e-05
3.7498955e-05
3.7532606e-05
3.7566617e-05
3.7600282e-05
3.7632886e-05
3.7663762e-05
3.7673336e-05
3.7645251e-05
3.7614723e-05
3.7582378e-05
3.7548843e-05
3.7514769e-05
3.7480801e-05
3.7447572e-05
3.7415691e-05
3.7385731e-05
3.735824e-05
3.7333697e-05
3.7312542e-05
3.7295153e-05
3.7281843e-05
3.7272857e-05
3.7268385e-05
3.7268526e-05
3.7273321e-05
3.728274e-05
3.7296683e-05
3.7314982e-05
3.7337425e-05
3.7363712e-05
3.734787e-05
3.7323121e-05
3.7301532e-05
3.7283399e-05
3.7268948e-05
3.7258346e-05
3.7251691e-05
3.7249016e-05
3.7250295e-05
3.725544e-05
3.7264329e-05
3.7276769e-05
3.7292547e-05
3.7311416e-05
3.7333104e-05
3.7357326e-05
3.7383782e-05
3.7412185e-05
3.7442229e-05
3.747363e-05
3.7506108e-05
3.75394e-05
3.7573254e-05
3.7607448e-05
3.7641758e-05
3.7675989e-05
3.7709964e-05
3.7743518e-05
3.7776502e-05
3.7808793e-05
3.7840263e-05
3.7870808e-05
3.7900333e-05
3.7928753e-05
3.7955987e-05
3.7981979e-05
3.8006655e-05
3.8029963e-05
3.8051854e-05
3.8072286e-05
3.8091219e-05
3.810864e-05
3.8124526e-05
3.8136401e-05
3.7366565e-05
3.7426225e-05
3.7486283e-05
3.7545662e-05
3.7602878e-05
3.7657586e-05
3.7708966e-05
3.7756644e-05
3.78e-05
3.7829237e-05
3.7786207e-05
3.7741624e-05
3.7695948e-05
3.7649923e-05
3.7603972e-05
3.7558798e-05
3.7514774e-05
3.7472553e-05
3.7432456e-05
3.7395078e-05
3.7360683e-05
3.7329805e-05
3.7302643e-05
3.7279663e-05
3.7260985e-05
3.7246992e-05
3.7237713e-05
3.7233429e-05
3.7234056e-05
3.723975e-05
3.725029e-05
3.726565e-05
3.7285608e-05
3.7309741e-05
3.7337813e-05
3.7369196e-05
3.73528e-05
3.7329552e-05
3.7311135e-05
3.7297746e-05
3.7289799e-05
3.7287307e-05
3.7290416e-05
3.7299012e-05
3.7312914e-05
3.7331818e-05
3.7355306e-05
3.7382871e-05
3.7413899e-05
3.7447712e-05
3.7483575e-05
3.7520714e-05
3.7558329e-05
3.7595637e-05
3.7631849e-05
3.7666224e-05
3.7679629e-05
3.7648363e-05
3.7614507e-05
3.7578758e-05
3.754181e-05
3.7504379e-05
3.7467174e-05
3.7430883e-05
3.7396169e-05
3.7363653e-05
3.7333923e-05
3.7307494e-05
3.7284835e-05
3.7266344e-05
3.7252351e-05
3.724311e-05
3.7238812e-05
3.7239551e-05
3.7245356e-05
3.725618e-05
3.7271898e-05
3.7292313e-05
3.7317177e-05
3.7346151e-05
3.7328103e-05
3.7300461e-05
3.7276205e-05
3.7255658e-05
3.7239072e-05
3.7226626e-05
3.721843e-05
3.7214519e-05
3.7214863e-05
3.7219365e-05
3.7227889e-05
3.7240225e-05
3.7256138e-05
3.7275359e-05
3.7297591e-05
3.7322525e-05
3.7349838e-05
3.737922e-05
3.7410342e-05
3.74429e-05
3.74766e-05
3.751116e-05
3.7546316e-05
3.7581835e-05
3.7617482e-05
3.7653056e-05
3.7688372e-05
3.7723261e-05
3.775757e-05
3.7791174e-05
3.7823941e-05
3.7855766e-05
3.7886554e-05
3.7916217e-05
3.7944675e-05
3.7971871e-05
3.7997731e-05
3.8022204e-05
3.8045242e-05
3.8066803e-05
3.8086851e-05
3.8105375e-05
3.8122355e-05
3.813532e-05
3.7341583e-05
3.7406358e-05
3.7471424e-05
3.7535817e-05
3.759793e-05
3.765737e-05
3.7713257e-05
3.7765166e-05
3.7812434e-05
3.7839068e-05
3.7791779e-05
3.7742988e-05
3.7693199e-05
3.7643195e-05
3.7593435e-05
3.7544648e-05
3.7497237e-05
3.7451877e-05
3.7408909e-05
3.7368948e-05
3.7332275e-05
3.7299443e-05
3.7270665e-05
3.7246423e-05
3.7226852e-05
3.7212349e-05
3.7202954e-05
3.7198959e-05
3.7200285e-05
3.7207092e-05
3.721916e-05
3.7236452e-05
3.7258732e-05
3.7285557e-05
3.7316658e-05
3.7351365e-05
3.7328312e-05
3.7302287e-05
3.728152e-05
3.7266259e-05
3.7256964e-05
3.7253684e-05
3.7256586e-05
3.7265565e-05
3.7280436e-05
3.7300873e-05
3.7326425e-05
3.735654e-05
3.7390544e-05
3.7427691e-05
3.7467171e-05
3.7508127e-05
3.7549678e-05
3.7590956e-05
3.7631087e-05
3.7669253e-05
3.7686874e-05
3.765216e-05
3.7614696e-05
3.7575252e-05
3.7534598e-05
3.749352e-05
3.7452794e-05
3.741317e-05
3.7375368e-05
3.7340059e-05
3.7307877e-05
3.7279373e-05
3.7255046e-05
3.7235321e-05
3.7220543e-05
3.7210976e-05
3.7206813e-05
3.7208143e-05
3.7214984e-05
3.7227269e-05
3.7244849e-05
3.7267494e-05
3.7294918e-05
3.732674e-05
3.7306674e-05
3.7275988e-05
3.7248943e-05
3.7225892e-05
3.720711e-05
3.7192792e-05
3.7183056e-05
3.7177938e-05
3.7177402e-05
3.718134e-05
3.7189596e-05
3.7201941e-05
3.7218115e-05
3.7237821e-05
3.7260737e-05
3.7286525e-05
3.7314833e-05
3.7345328e-05
3.7377658e-05
3.7411497e-05
3.7446531e-05
3.7482463e-05
3.7519015e-05
3.7555942e-05
3.7592999e-05
3.7629979e-05
3.7666691e-05
3.7702961e-05
3.7738632e-05
3.7773577e-05
3.7807664e-05
3.7840786e-05
3.7872847e-05
3.790376e-05
3.7933445e-05
3.7961845e-05
3.7988887e-05
3.801452e-05
3.8038699e-05
3.8061383e-05
3.8082538e-05
3.8102155e-05
3.8120218e-05
3.8134257e-05
3.7315904e-05
3.7386172e-05
3.7456606e-05
3.7526356e-05
3.7593683e-05
3.7658145e-05
3.7718796e-05
3.7775162e-05
3.7826534e-05
3.784972e-05
3.7797875e-05
3.7744588e-05
3.7690408e-05
3.7636159e-05
3.7582332e-05
3.7529689e-05
3.7478658e-05
3.7429935e-05
3.7383884e-05
3.734114e-05
3.7302003e-05
3.7267041e-05
3.7236487e-05
3.721084e-05
3.7190251e-05
3.7175134e-05
3.7165543e-05
3.7161783e-05
3.7163786e-05
3.7171719e-05
3.718536e-05
3.720467e-05
3.72294e-05
3.7259084e-05
3.7293424e-05
3.7331708e-05
3.7301593e-05
3.7272569e-05
3.7249262e-05
3.7231984e-05
3.7221245e-05
3.7217131e-05
3.7219836e-05
3.7229264e-05
3.7245225e-05
3.7267372e-05
3.7295213e-05
3.7328147e-05
3.736543e-05
3.7406245e-05
3.7449695e-05
3.7494834e-05
3.7540687e-05
3.7586294e-05
3.7630691e-05
3.7672971e-05
3.7695216e-05
3.7656755e-05
3.7615367e-05
3.7571908e-05
3.7527224e-05
3.748218e-05
3.7437623e-05
3.7394371e-05
3.7353204e-05
3.7314846e-05
3.727998e-05
3.7249198e-05
3.7223032e-05
3.7201932e-05
3.7186261e-05
3.7176294e-05
3.7172228e-05
3.7174146e-05
3.7182054e-05
3.7195866e-05
3.7215405e-05
3.7240408e-05
3.7270548e-05
3.7305399e-05
3.7283498e-05
3.7249602e-05
3.7219633e-05
3.7193977e-05
3.7172932e-05
3.715671e-05
3.7145434e-05
3.7139141e-05
3.7137785e-05
3.7141243e-05
3.7149339e-05
3.7161817e-05
3.7178388e-05
3.7198726e-05
3.7222475e-05
3.7249266e-05
3.727872e-05
3.7310473e-05
3.7344147e-05
3.7379395e-05
3.7415882e-05
3.7453294e-05
3.7491338e-05
3.7529758e-05
3.7568301e-05
3.7606751e-05
3.7644912e-05
3.7682608e-05
3.7719678e-05
3.7755994e-05
3.7791423e-05
3.7825859e-05
3.7859206e-05
3.7891377e-05
3.7922293e-05
3.7951898e-05
3.7980121e-05
3.8006912e-05
3.8032227e-05
3.8056027e-05
3.807828e-05
3.8098981e-05
3.8118114e-05
3.8133211e-05
3.7289469e-05
3.736565e-05
3.7441851e-05
3.7517338e-05
3.7590233e-05
3.7660042e-05
3.7725748e-05
3.7786827e-05
3.7842523e-05
3.7861278e-05
3.7804566e-05
3.7746478e-05
3.7687611e-05
3.762883e-05
3.7570662e-05
3.7513899e-05
3.7458995e-05
3.740667e-05
3.7357311e-05
3.7311569e-05
3.7269765e-05
3.7232486e-05
3.7199985e-05
3.7172776e-05
3.7151034e-05
3.7135188e-05
3.7125312e-05
3.7121726e-05
3.7124376e-05
3.7133439e-05
3.7148699e-05
3.7170113e-05
3.7197423e-05
3.7230144e-05
3.7267947e-05
3.7309157e-05
3.727247e-05
3.724019e-05
3.721413e-05
3.7194667e-05
3.718237e-05
3.7177368e-05
3.7179882e-05
3.718983e-05
3.7207014e-05
3.7231062e-05
3.7261442e-05
3.729749e-05
3.7338393e-05
3.7383246e-05
3.7431058e-05
3.7480783e-05
3.7531345e-05
3.7581679e-05
3.7630724e-05
3.7677477e-05
3.7704771e-05
3.7662229e-05
3.761657e-05
3.7568739e-05
3.7519671e-05
3.7470312e-05
3.7421586e-05
3.7374385e-05
3.7329551e-05
3.728787e-05
3.7250073e-05
3.7216796e-05
3.7188607e-05
3.7165983e-05
3.7149309e-05
3.7138869e-05
3.7134865e-05
3.7137374e-05
3.7146391e-05
3.7161808e-05
3.718342e-05
3.7210927e-05
3.7243961e-05
3.7282043e-05
3.7258489e-05
3.72212e-05
3.718816e-05
3.7159789e-05
3.713641e-05
3.7118249e-05
3.7105436e-05
3.7098004e-05
3.7095897e-05
3.7098971e-05
3.7107025e-05
3.7119773e-05
3.7136893e-05
3.7158021e-05
3.7182768e-05
3.7210729e-05
3.724149e-05
3.7274658e-05
3.7309825e-05
3.734662e-05
3.7384687e-05
3.7423693e-05
3.7463332e-05
3.7503336e-05
3.7543442e-05
3.7583428e-05
3.7623094e-05
3.766226e-05
3.7700765e-05
3.773848e-05
3.7775272e-05
3.7811035e-05
3.7845676e-05
3.7879108e-05