/*--------------------------------*- C++ -*----------------------------------*\
| =========                 |                                                 |
| \\      /  F ield         | foam-extend: Open Source CFD                    |
|  \\    /   O peration     | Version:     4.1                                |
|   \\  /    A nd           | Web:         http://www.foam-extend.org         |
|    \\/     M anipulation  |                                                 |
\*---------------------------------------------------------------------------*/
FoamFile
{
    version     2.0;
    format      ascii;
    class       volVectorField;
    location    "0.45";
    object      U;
}
// * * * * * * * * * * * * * * * * * * * * * * * * * * * * * * * * * * * * * //

dimensions      [0 1 -1 0 0 0 0];

internalField   nonuniform List<vector> 
16796
(
(139.12903 0.13531793 0)
(138.52157 0.13234954 0)
(138.17252 0.12686304 0)
(137.77329 0.11993228 0)
(137.42466 0.1090033 0)
(137.10512 0.094555947 0)
(136.82973 0.076223862 0)
(136.60267 0.054113275 0)
(136.43112 0.028366764 0)
(136.32093 -0.0005914967 0)
(136.27733 -0.031808794 0)
(136.30464 -0.06291706 0)
(136.40161 -0.090503614 0)
(136.56105 -0.11322138 0)
(136.77738 -0.13204658 0)
(137.04549 -0.14799644 0)
(137.36075 -0.16173872 0)
(137.7187 -0.17365075 0)
(138.11477 -0.18389296 0)
(138.54417 -0.19250029 0)
(139.00184 -0.19944792 0)
(139.48246 -0.20469178 0)
(139.9805 -0.20819259 0)
(140.49027 -0.20992885 0)
(141.00601 -0.2099038 0)
(141.52199 -0.20814858 0)
(142.03259 -0.2047233 0)
(142.53238 -0.19971687 0)
(143.01624 -0.19324554 0)
(143.47944 -0.18545103 0)
(143.91769 -0.17649774 0)
(144.32725 -0.16656965 0)
(144.70498 -0.15586695 0)
(145.0484 -0.14460158 0)
(145.3557 -0.13299377 0)
(145.62582 -0.12126708 0)
(145.85843 -0.10964451 0)
(146.05392 -0.09834369 0)
(146.21343 -0.087573273 0)
(146.33878 -0.077529793 0)
(146.43245 -0.068399381 0)
(146.4975 -0.060363558 0)
(146.53751 -0.053587325 0)
(146.55656 -0.048194465 0)
(146.55903 -0.04425788 0)
(146.5497 -0.041755803 0)
(146.53312 -0.04061714 0)
(146.51389 -0.040855127 0)
(146.49675 -0.04255141 0)
(146.4865 -0.045736255 0)
(146.48786 -0.050269948 0)
(146.50494 -0.05592988 0)
(146.54123 -0.062592276 0)
(146.59993 -0.07015941 0)
(146.68371 -0.078488596 0)
(146.79469 -0.087421211 0)
(146.93438 -0.09677629 0)
(147.10369 -0.1063587 0)
(147.30288 -0.11596942 0)
(147.53158 -0.12541015 0)
(147.78882 -0.13448667 0)
(148.07302 -0.14301248 0)
(148.38207 -0.15081265 0)
(148.71334 -0.15772749 0)
(149.06376 -0.16361578 0)
(149.42985 -0.16835744 0)
(149.80784 -0.17185565 0)
(150.19372 -0.17403824 0)
(150.58328 -0.17485856 0)
(150.97226 -0.1742957 0)
(151.35635 -0.17235426 0)
(151.73134 -0.16906357 0)
(152.09312 -0.16447647 0)
(152.43782 -0.15866767 0)
(152.7618 -0.15173167 0)
(153.06178 -0.14378034 0)
(153.33483 -0.13494013 0)
(153.57844 -0.125349 0)
(153.79055 -0.11515309 0)
(153.96956 -0.10450304 0)
(154.11436 -0.093549901 0)
(154.2243 -0.082439777 0)
(154.29925 -0.071305518 0)
(154.33949 -0.060237519 0)
(154.34571 -0.04921712 0)
(154.3189 -0.038114726 0)
(154.25948 -0.027185396 0)
(154.16924 -0.016856058 0)
(154.05031 -0.0072970134 0)
(153.90514 0.0013821725 0)
(153.73641 0.0091077019 0)
(153.54694 0.015829819 0)
(153.33968 0.021518385 0)
(153.11764 0.026160728 0)
(152.8838 0.029759861 0)
(152.64116 0.032332746 0)
(152.39262 0.033908491 0)
(152.14101 0.034526473 0)
(151.88901 0.034234526 0)
(151.63918 0.033087173 0)
(151.39392 0.031143941 0)
(151.15544 0.028467876 0)
(150.9258 0.025124229 0)
(150.70685 0.021179306 0)
(150.5003 0.016699579 0)
(150.30764 0.011751006 0)
(150.13019 0.0063985144 0)
(149.96912 0.00070573911 0)
(149.82542 -0.0052650451 0)
(149.69989 -0.011452829 0)
(149.59323 -0.017797511 0)
(149.50593 -0.024239235 0)
(149.43838 -0.030717317 0)
(149.39081 -0.037168419 0)
(149.3633 -0.043523387 0)
(149.35578 -0.04969756 0)
(149.36803 -0.055577269 0)
(149.39954 -0.061085575 0)
(149.44977 -0.066116337 0)
(149.51765 -0.070451234 0)
(149.60175 -0.073557235 0)
(149.70306 -0.074379719 0)
(149.81633 -0.073715034 0)
(149.89067 -0.068475208 0)
(157.11301 0.43272947 0)
(156.54786 0.42005136 0)
(156.22908 0.3969348 0)
(155.87817 0.3705132 0)
(155.58008 0.33808261 0)
(155.31237 0.30069298 0)
(155.08306 0.25816965 0)
(154.89053 0.21080917 0)
(154.73535 0.15885519 0)
(154.61689 0.10273769 0)
(154.53451 0.043211492 0)
(154.48703 -0.017972857 0)
(154.47758 -0.078029582 0)
(154.51177 -0.13514668 0)
(154.59135 -0.1889565 0)
(154.716 -0.23921861 0)
(154.88373 -0.28562446 0)
(155.09142 -0.3278288 0)
(155.3352 -0.36546209 0)
(155.61065 -0.39816193 0)
(155.91293 -0.42559972 0)
(156.23686 -0.44749957 0)
(156.57703 -0.46365458 0)
(156.92786 -0.47393769 0)
(157.2837 -0.47830993 0)
(157.63891 -0.47682501 0)
(157.98794 -0.46963133 0)
(158.32543 -0.45697169 0)
(158.64635 -0.4391802 0)
(158.94598 -0.41667808 0)
(159.22011 -0.38996639 0)
(159.46503 -0.3596183 0)
(159.67766 -0.32626942 0)
(159.85553 -0.29060573 0)
(159.99692 -0.25335278 0)
(160.1008 -0.21526101 0)
(160.16692 -0.17709293 0)
(160.19578 -0.1396072 0)
(160.18861 -0.10354451 0)
(160.14737 -0.069610949 0)
(160.07469 -0.038454108 0)
(159.9738 -0.010624282 0)
(159.84841 0.013402612 0)
(159.70259 0.033197158 0)
(159.54079 0.048407954 0)
(159.3677 0.058827196 0)
(159.18849 0.064375989 0)
(159.00846 0.065015814 0)
(158.83259 0.060757654 0)
(158.66551 0.051730144 0)
(158.51137 0.038249175 0)
(158.37432 0.020770818 0)
(158.25827 -0.00023993048 0)
(158.16641 -0.024282993 0)
(158.10141 -0.050778062 0)
(158.06523 -0.079106388 0)
(158.05917 -0.10863538 0)
(158.08392 -0.1387263 0)
(158.13949 -0.16873806 0)
(158.22529 -0.19803854 0)
(158.34009 -0.22601768 0)
(158.48207 -0.25209905 0)
(158.64887 -0.27575033 0)
(158.83766 -0.29649235 0)
(159.04514 -0.31390685 0)
(159.26767 -0.3276427 0)
(159.50129 -0.33742084 0)
(159.74183 -0.34303757 0)
(159.98497 -0.34436649 0)
(160.22629 -0.34135889 0)
(160.4614 -0.33404283 0)
(160.68599 -0.32252072 0)
(160.89587 -0.3069658 0)
(161.0871 -0.28761723 0)
(161.25599 -0.26477418 0)
(161.3992 -0.23878897 0)
(161.51376 -0.21005928 0)
(161.59714 -0.17901971 0)
(161.64725 -0.1461329 0)
(161.66246 -0.11188012 0)
(161.64166 -0.076752049 0)
(161.58422 -0.04123767 0)
(161.48998 -0.0058048879 0)
(161.35927 0.029094237 0)
(161.19286 0.063079912 0)
(160.99212 0.095921452 0)
(160.75977 0.12724777 0)
(160.49779 0.15658044 0)
(160.20841 0.1836122 0)
(159.89401 0.20810361 0)
(159.55714 0.22987556 0)
(159.20052 0.24880191 0)
(158.8269 0.26480551 0)
(158.43913 0.2778546 0)
(158.04002 0.28795882 0)
(157.63239 0.29516479 0)
(157.21897 0.29955133 0)
(156.8024 0.30122454 0)
(156.38522 0.30031284 0)
(155.96982 0.29696225 0)
(155.55846 0.29133187 0)
(155.15323 0.28358976 0)
(154.75607 0.27390937 0)
(154.36875 0.26246635 0)
(153.99285 0.24943598 0)
(153.62981 0.23499114 0)
(153.28092 0.21930063 0)
(152.94727 0.20252817 0)
(152.62984 0.18483162 0)
(152.32944 0.16636274 0)
(152.04675 0.14726719 0)
(151.7823 0.12768513 0)
(151.5365 0.10775205 0)
(151.30964 0.087600569 0)
(151.10188 0.067363041 0)
(150.91323 0.047180367 0)
(150.7436 0.027220169 0)
(150.59289 0.0076563856 0)
(150.46067 -0.011328949 0)
(150.34615 -0.029464723 0)
(150.24846 -0.046005142 0)
(150.1677 -0.059458327 0)
(150.09997 -0.071577771 0)
(150.0341 -0.078040695 0)
(158.18456 0.67541514 0)
(157.68334 0.64267865 0)
(157.42666 0.59762715 0)
(157.14903 0.54640262 0)
(156.93107 0.48883643 0)
(156.75054 0.42590389 0)
(156.61462 0.3581281 0)
(156.52099 0.28616563 0)
(156.46931 0.21066148 0)
(156.45786 0.13232181 0)
(156.48472 0.051868174 0)
(156.54761 -0.030091723 0)
(156.64402 -0.11272837 0)
(156.77255 -0.19433064 0)
(156.93174 -0.27291956 0)
(157.1195 -0.34700308 0)
(157.33318 -0.41547816 0)
(157.5696 -0.47748143 0)
(157.82522 -0.53229696 0)
(158.09616 -0.57930986 0)
(158.3783 -0.61799849 0)
(158.66735 -0.64794121 0)
(158.95891 -0.66883184 0)
(159.24854 -0.68049316 0)
(159.53182 -0.68288884 0)
(159.80444 -0.67613062 0)
(160.06226 -0.66048165 0)
(160.30136 -0.63635607 0)
(160.51817 -0.60431402 0)
(160.70948 -0.56505456 0)
(160.8725 -0.51940364 0)
(161.00497 -0.46830136 0)
(161.10516 -0.41278494 0)
(161.17191 -0.35396978 0)
(161.20469 -0.29303048 0)
(161.20358 -0.23117685 0)
(161.1693 -0.16963288 0)
(161.10318 -0.10961121 0)
(161.00714 -0.052290637 0)
(160.88367 0.001220215 0)
(160.73579 0.049903021 0)
(160.56692 0.09283301 0)
(160.38099 0.12923848 0)
(160.18231 0.15849066 0)
(159.97532 0.18010021 0)
(159.7646 0.19372807 0)
(159.55473 0.19920447 0)
(159.35022 0.19657139 0)
(159.15545 0.18606812 0)
(158.97456 0.16808133 0)
(158.81138 0.14310005 0)
(158.66935 0.11173287 0)
(158.55143 0.074747889 0)
(158.46012 0.033026098 0)
(158.39733 -0.012478486 0)
(158.36447 -0.060741138 0)
(158.36237 -0.11071578 0)
(158.39126 -0.16135039 0)
(158.45074 -0.21159064 0)
(158.53985 -0.26040283 0)
(158.65705 -0.30679347 0)
(158.80026 -0.34982753 0)
(158.96693 -0.3886447 0)
(159.1541 -0.42247347 0)
(159.35838 -0.45064317 0)
(159.57611 -0.47259389 0)
(159.80336 -0.48788407 0)
(160.03603 -0.49619586 0)
(160.26989 -0.49733792 0)
(160.50068 -0.49124614 0)
(160.72418 -0.4779818 0)
(160.93625 -0.45772769 0)
(161.13292 -0.430782 0)
(161.31046 -0.39755027 0)
(161.46539 -0.35853555 0)
(161.5946 -0.31432693 0)
(161.69532 -0.26558672 0)
(161.76521 -0.21303638 0)
(161.80236 -0.15744166 0)
(161.80533 -0.099597513 0)
(161.77314 -0.040314139 0)
(161.70529 0.019601727 0)
(161.60174 0.079360101 0)
(161.46291 0.13819308 0)
(161.2897 0.19534557 0)
(161.08334 0.25007809 0)
(160.84543 0.30184125 0)
(160.57787 0.35021685 0)
(160.28285 0.39477598 0)
(159.96277 0.43515915 0)
(159.62023 0.47108662 0)
(159.25796 0.50235949 0)
(158.87878 0.52885694 0)
(158.48554 0.5505314 0)
(158.08111 0.56740242 0)
(157.66831 0.57954954 0)
(157.2499 0.5871046 0)
(156.82855 0.59024364 0)
(156.4068 0.58917889 0)
(155.98706 0.58415094 0)
(155.5716 0.57542146 0)
(155.16251 0.56326649 0)
(154.76172 0.54797055 0)
(154.37099 0.52982164 0)
(153.99193 0.50910699 0)
(153.62596 0.48610984 0)
(153.27434 0.46110692 0)
(152.93819 0.43436682 0)
(152.61845 0.40614899 0)
(152.31594 0.37670352 0)
(152.03132 0.34627143 0)
(151.76511 0.31508577 0)
(151.51773 0.28337319 0)
(151.28944 0.2513565 0)
(151.08039 0.21925786 0)
(150.8906 0.1873023 0)
(150.71996 0.155725 0)
(150.56822 0.12481339 0)
(150.43499 0.094909041 0)
(150.31961 0.066411941 0)
(150.22152 0.040083464 0)
(150.14012 0.017064006 0)
(150.07208 -0.0031672016 0)
(150.02033 -0.016871069 0)
(158.21925 0.91300824 0)
(157.72028 0.84822528 0)
(157.46802 0.77547487 0)
(157.19686 0.69421532 0)
(156.9875 0.60590635 0)
(156.81784 0.51149116 0)
(156.69513 0.4120654 0)
(156.61715 0.30873036 0)
(156.58361 0.20264668 0)
(156.59286 0.095070948 0)
(156.64289 -0.012607046 0)
(156.73114 -0.1189152 0)
(156.85465 -0.222438 0)
(157.01026 -0.32181883 0)
(157.19482 -0.4157267 0)
(157.40514 -0.50296353 0)
(157.63786 -0.58245872 0)
(157.88937 -0.65325446 0)
(158.15585 -0.71450433 0)
(158.43332 -0.76547505 0)
(158.71771 -0.80556042 0)
(159.00487 -0.83429443 0)
(159.29068 -0.85136791 0)
(159.57106 -0.85664121 0)
(159.84204 -0.85015565 0)
(160.09979 -0.83214028 0)
(160.34069 -0.80301453 0)
(160.56136 -0.76338721 0)
(160.75874 -0.71404958 0)
(160.9301 -0.65596648 0)
(161.07311 -0.59026058 0)
(161.18588 -0.51819627 0)
(161.26697 -0.44115695 0)
(161.3155 -0.36062114 0)
(161.33109 -0.27813698 0)
(161.31393 -0.19529085 0)
(161.26478 -0.11367979 0)
(161.18497 -0.03487836 0)
(161.0764 0.03959684 0)
(160.9415 0.10832295 0)
(160.7832 0.16998915 0)
(160.60489 0.22344872 0)
(160.41036 0.26770839 0)
(160.20367 0.30197731 0)
(159.98919 0.32568843 0)
(159.7714 0.33849347 0)
(159.55486 0.34027051 0)
(159.34409 0.3311319 0)
(159.14349 0.31141482 0)
(158.95727 0.28167122 0)
(158.78932 0.24265092 0)
(158.64314 0.19528014 0)
(158.52177 0.14064534 0)
(158.42777 0.079963357 0)
(158.36312 0.014544414 0)
(158.32923 -0.054235566 0)
(158.3269 -0.12494845 0)
(158.35629 -0.19614874 0)
(158.41698 -0.26639719 0)
(158.50794 -0.33429198 0)
(158.62757 -0.39849291 0)
(158.77374 -0.45774466 0)
(158.94382 -0.51089778 0)
(159.13476 -0.55692682 0)
(159.34311 -0.59494584 0)
(159.56512 -0.62422096 0)
(159.7968 -0.64417997 0)
(160.03395 -0.6544189 0)
(160.27229 -0.6547055 0)
(160.50748 -0.64497971 0)
(160.73524 -0.62535106 0)
(160.95136 -0.59609323 0)
(161.15182 -0.55763576 0)
(161.33283 -0.51055313 0)
(161.49088 -0.45555144 0)
(161.62279 -0.39345286 0)
(161.72578 -0.3251782 0)
(161.79747 -0.25172776 0)
(161.83594 -0.174161 0)
(161.83973 -0.093576203 0)
(161.80787 -0.01109099 0)
(161.73988 0.072191763 0)
(161.6357 0.15518303 0)
(161.49578 0.23686055 0)
(161.32099 0.31625755 0)
(161.11258 0.39246096 0)
(160.87217 0.46463591 0)
(160.60175 0.53205338 0)
(160.30358 0.59409336 0)
(159.98013 0.65025302 0)
(159.63407 0.70014558 0)
(159.26819 0.74349818 0)
(158.88537 0.78014689 0)
(158.48852 0.81002985 0)
(158.08055 0.83317864 0)
(157.66433 0.84970828 0)
(157.24265 0.85980635 0)
(156.81821 0.86372169 0)
(156.39357 0.86175315 0)
(155.97116 0.85423857 0)
(155.55325 0.84154464 0)
(155.14195 0.82405753 0)
(154.73918 0.80217466 0)
(154.34671 0.77629774 0)
(153.96614 0.74682692 0)
(153.59887 0.71415629 0)
(153.24616 0.67867049 0)
(152.90912 0.64074244 0)
(152.58867 0.60073214 0)
(152.28563 0.55898645 0)
(152.00064 0.51583968 0)
(151.73423 0.47161546 0)
(151.4868 0.42662942 0)
(151.25861 0.38119353 0)
(151.04982 0.33562247 0)
(150.86046 0.29024205 0)
(150.69044 0.24540031 0)
(150.53957 0.20149406 0)
(150.40752 0.15899535 0)
(150.29385 0.11851808 0)
(150.19822 0.081024372 0)
(150.11995 0.047714531 0)
(150.05693 0.019638803 0)
(150.01443 0.0018395096 0)
(158.19744 1.1590492 0)
(157.68984 1.0676059 0)
(157.43208 0.96896015 0)
(157.1556 0.85983249 0)
(156.94215 0.74301088 0)
(156.76934 0.61957985 0)
(156.64452 0.49113725 0)
(156.56545 0.35913 0)
(156.53185 0.22503618 0)
(156.54211 0.090321092 0)
(156.59429 -0.043543362 0)
(156.68596 -0.17507189 0)
(156.8143 -0.30269772 0)
(156.97615 -0.42471161 0)
(157.16815 -0.53936245 0)
(157.38673 -0.64507996 0)
(157.62815 -0.74052279 0)
(157.88847 -0.8245517 0)
(158.16365 -0.89621057 0)
(158.4495 -0.95470916 0)
(158.74184 -0.99942401 0)
(159.03645 -1.0299033 0)
(159.32916 -1.0458799 0)
(159.61588 -1.047282 0)
(159.89264 -1.0342445 0)
(160.15563 -1.0071161 0)
(160.40124 -0.96646235 0)
(160.62613 -0.91306587 0)
(160.82721 -0.84791956 0)
(161.00176 -0.77221857 0)
(161.14741 -0.68734408 0)
(161.26223 -0.59484717 0)
(161.34476 -0.49642406 0)
(161.39401 -0.39389044 0)
(161.40957 -0.28915281 0)
(161.39156 -0.18417215 0)
(161.34069 -0.080932237 0)
(161.25825 0.018600988 0)
(161.14616 0.11252583 0)
(161.00683 0.19902638 0)
(160.84325 0.27645298 0)
(160.65887 0.34332746 0)
(160.45757 0.3983899 0)
(160.24355 0.44063301 0)
(160.0213 0.46931823 0)
(159.79548 0.48398932 0)
(159.57081 0.4844863 0)
(159.35199 0.47095277 0)
(159.14361 0.44382797 0)
(158.95001 0.40382807 0)
(158.77524 0.35192305 0)
(158.62295 0.28931544 0)
(158.49631 0.21741592 0)
(158.39795 0.13780589 0)
(158.32995 0.052196642 0)
(158.29376 -0.037609143 0)
(158.29019 -0.12975519 0)
(158.31942 -0.22236784 0)
(158.381 -0.31358713 0)
(158.47387 -0.4016038 0)
(158.59636 -0.48469174 0)
(158.74628 -0.56123747 0)
(158.92091 -0.62976706 0)
(159.11709 -0.68896899 0)
(159.33129 -0.7377134 0)
(159.55962 -0.77506774 0)
(159.79796 -0.80030842 0)
(160.042 -0.81292891 0)
(160.28733 -0.81264367 0)
(160.52949 -0.79938855 0)
(160.76407 -0.77331728 0)
(160.98674 -0.73479437 0)
(161.19339 -0.68438451 0)
(161.38011 -0.62283856 0)
(161.54329 -0.55107663 0)
(161.6797 -0.47016828 0)
(161.78648 -0.38131024 0)
(161.86121 -0.28580209 0)
(161.90192 -0.18502031 0)
(161.90714 -0.080392826 0)
(161.8759 0.026626315 0)
(161.8077 0.13459599 0)
(161.70256 0.24211386 0)
(161.56097 0.34782277 0)
(161.38384 0.45044888 0)
(161.17252 0.54881972 0)
(160.92872 0.64189811 0)
(160.65449 0.7287812 0)
(160.35216 0.80869308 0)
(160.02429 0.88099998 0)
(159.67361 0.94521429 0)
(159.30302 1.0009936 0)
(158.91544 1.0481354 0)
(158.51388 1.0865684 0)
(158.1013 1.1163412 0)
(157.68062 1.1376095 0)
(157.25468 1.1506222 0)
(156.82623 1.1557059 0)
(156.39784 1.1532508 0)
(155.97197 1.1436965 0)
(155.55089 1.1275184 0)
(155.13673 1.1052157 0)
(154.7314 1.0773012 0)
(154.33667 1.0442918 0)
(153.95411 1.006701 0)
(153.58513 0.96503354 0)
(153.23096 0.91978066 0)
(152.89269 0.87141719 0)
(152.57123 0.82039984 0)
(152.26737 0.76716672 0)
(151.98173 0.7121377 0)
(151.71483 0.65571596 0)
(151.46704 0.59829043 0)
(151.23862 0.54023946 0)
(151.0297 0.48193599 0)
(150.84033 0.42375494 0)
(150.67043 0.36608445 0)
(150.51984 0.30934373 0)
(150.38827 0.2539966 0)
(150.27544 0.20060102 0)
(150.18116 0.14991575 0)
(150.10491 0.10274637 0)
(150.04597 0.060043939 0)
(150.01038 0.025314311 0)
(158.16297 1.402211 0)
(157.64252 1.2820476 0)
(157.37766 1.154634 0)
(157.0937 1.0146532 0)
(156.87438 0.86607808 0)
(156.69685 0.71025012 0)
(156.56868 0.54933704 0)
(156.48761 0.3852831 0)
(156.45342 0.22009566 0)
(156.46448 0.055757371 0)
(156.51882 -0.1057657 0)
(156.61392 -0.26256405 0)
(156.74682 -0.41283673 0)
(156.91423 -0.55482984 0)
(157.11266 -0.68686928 0)
(157.33842 -0.80742964 0)
(157.58768 -0.91515571 0)
(157.85642 -1.00886 0)
(158.14049 -1.0875309 0)
(158.43563 -1.1503344 0)
(158.73753 -1.1966266 0)
(159.04188 -1.2259623 0)
(159.34439 -1.2381099 0)
(159.64085 -1.2330622 0)
(159.92717 -1.2110472 0)
(160.19942 -1.1725356 0)
(160.45388 -1.1182447 0)
(160.68704 -1.0491387 0)
(160.89572 -0.96642282 0)
(161.07706 -0.87153576 0)
(161.22857 -0.76613279 0)
(161.34821 -0.65206902 0)
(161.43441 -0.53137181 0)
(161.48612 -0.4062121 0)
(161.50285 -0.27887138 0)
(161.48469 -0.15169914 0)
(161.43233 -0.027075676 0)
(161.34711 0.092640427 0)
(161.23094 0.20516033 0)
(161.08634 0.30834594 0)
(160.91638 0.40022224 0)
(160.72465 0.47902992 0)
(160.51516 0.54326944 0)
(160.29231 0.5917408 0)
(160.06077 0.6235724 0)
(159.8254 0.63824162 0)
(159.59113 0.63558779 0)
(159.36288 0.61581685 0)
(159.1454 0.57949379 0)
(158.94327 0.52752391 0)
(158.76068 0.46112625 0)
(158.60143 0.381803 0)
(158.46884 0.29130389 0)
(158.36564 0.19158198 0)
(158.29398 0.08474606 0)
(158.25538 -0.026985492 0)
(158.25069 -0.14133086 0)
(158.28007 -0.25599808 0)
(158.34307 -0.36871813 0)
(158.43857 -0.47728529 0)
(158.56485 -0.57959837 0)
(158.7196 -0.67369661 0)
(158.90003 -0.75779216 0)
(159.10284 -0.83029754 0)
(159.32437 -0.88984867 0)
(159.56059 -0.93532335 0)
(159.80724 -0.96585514 0)
(160.05985 -0.98084272 0)
(160.31385 -0.97995447 0)
(160.56464 -0.96312868 0)
(160.80764 -0.93056908 0)
(161.03841 -0.88273612 0)
(161.25268 -0.82033395 0)
(161.44643 -0.74429329 0)
(161.61595 -0.65575079 0)
(161.7579 -0.55602473 0)
(161.86934 -0.44658784 0)
(161.94781 -0.32903738 0)
(161.9913 -0.20506316 0)
(161.99831 -0.076415801 0)
(161.96788 0.055125504 0)
(161.89952 0.18779307 0)
(161.79328 0.31985551 0)
(161.64969 0.44965518 0)
(161.46974 0.57563163 0)
(161.25485 0.69634224 0)
(161.00682 0.81049304 0)
(160.7278 0.91695573 0)
(160.42023 1.0147748 0)
(160.08679 1.103176 0)
(159.73031 1.1815685 0)
(159.35378 1.2495413 0)
(158.96025 1.3068566 0)
(158.55278 1.3534383 0)
(158.13443 1.3893582 0)
(157.70819 1.4148192 0)
(157.27696 1.4301382 0)
(156.84351 1.4357271 0)
(156.41048 1.4320751 0)
(155.98034 1.4197304 0)
(155.55537 1.3992845 0)
(155.13771 1.3713568 0)
(154.72928 1.336582 0)
(154.33183 1.2955988 0)
(153.94692 1.249041 0)
(153.57595 1.1975306 0)
(153.22013 1.1416725 0)
(152.88051 1.0820511 0)
(152.55799 1.0192289 0)
(152.25334 0.95374545 0)
(151.96716 0.88611889 0)
(151.69994 0.81684783 0)
(151.45204 0.74641479 0)
(151.2237 0.67529084 0)
(151.01505 0.60394182 0)
(150.82611 0.53283631 0)
(150.65683 0.46245673 0)
(150.50704 0.39331436 0)
(150.37651 0.32596317 0)
(150.26499 0.26103416 0)
(150.17231 0.19926908 0)
(150.09796 0.14138426 0)
(150.04166 0.088193589 0)
(150.00903 0.04140403 0)
(158.12754 1.6599618 0)
(157.59112 1.5126372 0)
(157.31791 1.3575008 0)
(157.02496 1.1878773 0)
(156.79855 1.0087752 0)
(156.61513 0.82180049 0)
(156.48248 0.6295887 0)
(156.3983 0.43444716 0)
(156.36237 0.23872439 0)
(156.37309 0.044691683 0)
(156.42849 -0.14543473 0)
(156.52609 -0.32947748 0)
(156.66299 -0.50529837 0)
(156.83587 -0.67083355 0)
(157.04119 -0.82413817 0)
(157.27512 -0.96344902 0)
(157.53367 -1.0872207 0)
(157.81265 -1.1941258 0)
(158.10775 -1.283059 0)
(158.41456 -1.3531333 0)
(158.72862 -1.403686 0)
(159.04546 -1.434284 0)
(159.36064 -1.4447357 0)
(159.66979 -1.4350997 0)
(159.96864 -1.4056963 0)
(160.25311 -1.3571148 0)
(160.51928 -1.2902185 0)
(160.76349 -1.2061467 0)
(160.98237 -1.1063102 0)
(161.1729 -0.99238481 0)
(161.33243 -0.86629495 0)
(161.45877 -0.73019746 0)
(161.55022 -0.5864522 0)
(161.60562 -0.43759131 0)
(161.6244 -0.28628262 0)
(161.60658 -0.1352815 0)
(161.55284 0.012611848 0)
(161.46454 0.15462139 0)
(161.34361 0.28802902 0)
(161.19269 0.41027266 0)
(161.01498 0.5189829 0)
(160.81421 0.61205319 0)
(160.59461 0.68768747 0)
(160.36079 0.74444847 0)
(160.11768 0.7812927 0)
(159.87038 0.79759647 0)
(159.62409 0.79317178 0)
(159.384 0.76827086 0)
(159.15512 0.72357753 0)
(158.94226 0.66018577 0)
(158.74983 0.57956854 0)
(158.58185 0.4835394 0)
(158.44179 0.37420714 0)
(158.33252 0.25392298 0)
(158.25629 0.12522355 0)
(158.21468 -0.0092264771 0)
(158.20858 -0.14669182 0)
(158.23816 -0.28441785 0)
(158.30291 -0.41968108 0)
(158.40167 -0.54984046 0)
(158.53262 -0.67238539 0)
(158.69335 -0.78497735 0)
(158.88092 -0.88548789 0)
(159.0919 -0.97203072 0)
(159.32244 -1.0429885 0)
(159.56836 -1.0970343 0)
(159.82521 -1.1331475 0)
(160.08832 -1.1506246 0)
(160.35295 -1.1490842 0)
(160.61429 -1.1284672 0)
(160.8676 -1.0890312 0)
(161.10825 -1.03134 0)
(161.33181 -0.95624816 0)
(161.53412 -0.86488057 0)
(161.71133 -0.75860799 0)
(161.85999 -0.63901805 0)
(161.97707 -0.50788294 0)
(162.06002 -0.36712379 0)
(162.1068 -0.21877259 0)
(162.11588 -0.064933985 0)
(162.08629 0.092253529 0)
(162.01759 0.25067433 0)
(161.90985 0.40826689 0)
(161.7637 0.56304831 0)
(161.58019 0.71315727 0)
(161.36086 0.85688333 0)
(161.10761 0.99269516 0)
(160.82273 1.1192579 0)
(160.50877 1.2354442 0)
(160.16853 1.3403436 0)
(159.805 1.4332655 0)
(159.42126 1.5137348 0)
(159.02049 1.5814839 0)
(158.60587 1.6364383 0)
(158.18053 1.6786997 0)
(157.74756 1.7085256 0)
(157.30991 1.7263083 0)
(156.87043 1.7325519 0)
(156.43178 1.7278506 0)
(155.99647 1.7128668 0)
(155.5668 1.6883122 0)
(155.1449 1.6549291 0)
(154.73269 1.6134757 0)
(154.33191 1.5647124 0)
(153.94411 1.509391 0)
(153.57066 1.4482472 0)
(153.21274 1.3819937 0)
(152.87138 1.3113166 0)
(152.54745 1.2368732 0)
(152.24169 1.1592914 0)
(151.95466 1.0791705 0)
(151.68683 0.99708343 0)
(151.43854 0.91358001 0)
(151.21001 0.8291917 0)
(151.00137 0.74443747 0)
(150.81262 0.65983148 0)
(150.64373 0.57589275 0)
(150.49455 0.49315687 0)
(150.36489 0.41218819 0)
(150.25457 0.33360472 0)
(150.1635 0.25808609 0)
(150.09123 0.1862984 0)
(150.03773 0.11902819 0)
(150.00788 0.057337597 0)
(158.08276 1.9184842 0)
(157.52793 1.7418283 0)
(157.24546 1.5564689 0)
(156.9426 1.354575 0)
(156.70875 1.142218 0)
(156.51949 0.92137559 0)
(156.38291 0.69525987 0)
(156.2966 0.46668171 0)
(156.26034 0.23849131 0)
(156.27245 0.013422291 0)
(156.33091 -0.20589537 0)
(156.43312 -0.41697084 0)
(156.57608 -0.61747706 0)
(156.75638 -0.80521756 0)
(156.97036 -0.9781564 0)
(157.2141 -1.1344491 0)
(157.48349 -1.2724686 0)
(157.77421 -1.3908089 0)
(158.08183 -1.4882975 0)
(158.40181 -1.5639974 0)
(158.72953 -1.6172198 0)
(159.06037 -1.647531 0)
(159.38972 -1.6547657 0)
(159.71302 -1.6390382 0)
(160.02583 -1.600753 0)
(160.32385 -1.5406149 0)
(160.60298 -1.4596342 0)
(160.85935 -1.3591311 0)
(161.08939 -1.2407316 0)
(161.2899 -1.1063633 0)
(161.45804 -0.95823786 0)
(161.59147 -0.79883523 0)
(161.68833 -0.63087159 0)
(161.74736 -0.4572657 0)
(161.76788 -0.28109793 0)
(161.74988 -0.10555605 0)
(161.69402 0.066114359 0)
(161.60167 0.23068832 0)
(161.47485 0.3850336 0)
(161.31628 0.52619179 0)
(161.12931 0.65142363 0)
(160.91787 0.75828874 0)
(160.6864 0.84470401 0)
(160.43978 0.90900217 0)
(160.1832 0.94997529 0)
(159.92207 0.96690783 0)
(159.66188 0.95959583 0)
(159.40812 0.92835195 0)
(159.16611 0.87399538 0)
(158.94093 0.79782728 0)
(158.73725 0.70159392 0)
(158.55931 0.58744017 0)
(158.41076 0.45785444 0)
(158.29464 0.31560642 0)
(158.21332 0.16368049 0)
(158.16844 0.005208298 0)
(158.16092 -0.15659843 0)
(158.19094 -0.31851859 0)
(158.25796 -0.47737832 0)
(158.36073 -0.63010087 0)
(158.49733 -0.77376395 0)
(158.66523 -0.90564844 0)
(158.86132 -1.0232826 0)
(159.08201 -1.1244792 0)
(159.32324 -1.2073661 0)
(159.58065 -1.2704106 0)
(159.84954 -1.312438 0)
(160.12505 -1.3326436 0)
(160.4022 -1.330598 0)
(160.67598 -1.3062473 0)
(160.94143 -1.2599063 0)
(161.19372 -1.1922463 0)
(161.42822 -1.1042772 0)
(161.6406 -0.99732305 0)
(161.82686 -0.87299418 0)
(161.98341 -0.73315297 0)
(162.10712 -0.57987623 0)
(162.19536 -0.41541366 0)
(162.24601 -0.24214331 0)
(162.25754 -0.062526678 0)
(162.22897 0.12093679 0)
(162.15987 0.30575923 0)
(162.0504 0.48951403 0)
(161.90122 0.6698805 0)
(161.71351 0.84468024 0)
(161.48893 1.0119132 0)
(161.22951 1.1697898 0)
(160.93769 1.3167541 0)
(160.61617 1.4514987 0)
(160.26791 1.5729743 0)
(159.89605 1.6803914 0)
(159.50383 1.7732153 0)
(159.09456 1.8511548 0)
(158.67153 1.9141457 0)
(158.23801 1.9623294 0)
(157.79717 1.9960291 0)
(157.35206 2.015724 0)
(156.90557 2.0220222 0)
(156.46042 2.0156348 0)
(156.01914 1.9973505 0)
(155.58407 1.9680122 0)
(155.15732 1.9284967 0)
(154.74083 1.8796962 0)
(154.33631 1.8225031 0)
(153.9453 1.7577981 0)
(153.56912 1.6864405 0)
(153.20894 1.6092617 0)
(152.86574 1.5270605 0)
(152.54038 1.4406011 0)
(152.23352 1.3506127 0)
(151.94573 1.2577902 0)
(151.67742 1.1627971 0)
(151.4289 1.0662686 0)
(151.20037 0.96881637 0)
(150.99191 0.87103379 0)
(150.80354 0.77350227 0)
(150.63518 0.67679793 0)
(150.4867 0.58149802 0)
(150.35789 0.48818545 0)
(150.2486 0.39745526 0)
(150.15871 0.30989599 0)
(150.08781 0.22603098 0)
(150.03593 0.14638589 0)
(150.00743 0.071419991 0)
(158.03332 2.1931616 0)
(157.4569 1.9872814 0)
(157.16383 1.7717721 0)
(156.84963 1.5377035 0)
(156.60727 1.2921589 0)
(156.41129 1.0374466 0)
(156.27008 0.77727949 0)
(156.18114 0.51487708 0)
(156.14424 0.25348069 0)
(156.15765 -0.003824084 0)
(156.21931 -0.25408407 0)
(156.32658 -0.49446216 0)
(156.47637 -0.72227844 0)
(156.6652 -0.93503999 0)
(156.88928 -1.1304682 0)
(157.14453 -1.3065179 0)
(157.42668 -1.4614004 0)
(157.73125 -1.5935855 0)
(158.05362 -1.7018109 0)
(158.38907 -1.7850824 0)
(158.73282 -1.8426836 0)
(159.08004 -1.8741813 0)
(159.42594 -1.8794386 0)
(159.76575 -1.8586249 0)
(160.09483 -1.8122281 0)
(160.40865 -1.741066 0)
(160.7029 -1.6462927 0)
(160.97349 -1.529406 0)
(161.21662 -1.3922446 0)
(161.42886 -1.2369858 0)
(161.60719 -1.0661289 0)
(161.74905 -0.88247994 0)
(161.85242 -0.68911818 0)
(161.91589 -0.4893598 0)
(161.93867 -0.28671304 0)
(161.92067 -0.084817498 0)
(161.86251 0.1126137 0)
(161.76557 0.30188011 0)
(161.63194 0.47936033 0)
(161.46447 0.64161989 0)
(161.26667 0.7854804 0)
(161.0427 0.90810913 0)
(160.79727 1.007088 0)
(160.53555 1.080482 0)
(160.26307 1.1268906 0)
(159.9856 1.145487 0)
(159.70899 1.1360401 0)
(159.43909 1.0989204 0)
(159.18159 1.0350882 0)
(158.94187 0.94606404 0)
(158.72493 0.83388605 0)
(158.53526 0.70105371 0)
(158.37674 0.55046242 0)
(158.25259 0.38533 0)
(158.1653 0.20911844 0)
(158.11661 0.025454608 0)
(158.10748 -0.16194827 0)
(158.13807 -0.34936297 0)
(158.20779 -0.53311474 0)
(158.3153 -0.70964997 0)
(158.45857 -0.87560031 0)
(158.63488 -1.0278372 0)
(158.84097 -1.1635215 0)
(159.07302 -1.2801452 0)
(159.32677 -1.3755657 0)
(159.59758 -1.4480333 0)
(159.88053 -1.4962118 0)
(160.1705 -1.5191913 0)
(160.46225 -1.5164948 0)
(160.75051 -1.4880776 0)
(161.03007 -1.4343196 0)
(161.29587 -1.3560112 0)
(161.54307 -1.2543323 0)
(161.76712 -1.1308251 0)
(161.96384 -0.98736114 0)
(162.1295 -0.82610226 0)
(162.26084 -0.64945739 0)
(162.35512 -0.46003433 0)
(162.41018 -0.26058833 0)
(162.42443 -0.053969737 0)
(162.39692 0.15692907 0)
(162.32724 0.36924818 0)
(162.21561 0.58019881 0)
(162.0628 0.78710774 0)
(161.8701 0.98746951 0)
(161.63931 1.1789885 0)
(161.37264 1.3596144 0)
(161.07267 1.527569 0)
(160.74231 1.681364 0)
(160.38469 1.8198123 0)
(160.00311 1.9420287 0)
(159.60101 2.047424 0)
(159.18184 2.135691 0)
(158.74906 2.2067843 0)
(158.30605 2.2608948 0)
(157.8561 2.2984216 0)
(157.40235 2.3199408 0)
(156.94776 2.3261744 0)
(156.4951 2.317959 0)
(156.04694 2.2962167 0)
(155.60563 2.2619281 0)
(155.17329 2.2161081 0)
(154.75186 2.1597852 0)
(154.34301 2.0939844 0)
(153.94826 2.0197132 0)
(153.56891 1.9379508 0)
(153.20609 1.8496414 0)
(152.86073 1.7556887 0)
(152.53364 1.656954 0)
(152.22546 1.5542561 0)
(151.9367 1.448372 0)
(151.66774 1.3400406 0)
(151.41887 1.2299662 0)
(151.19023 1.1188236 0)
(150.98191 1.0072638 0)
(150.79389 0.89592072 0)
(150.6261 0.78541678 0)
(150.47837 0.67636884 0)
(150.35054 0.56939056 0)
(150.24243 0.46509203 0)
(150.15391 0.36405483 0)
(150.08453 0.26678759 0)
(150.03429 0.17373268 0)
(150.00702 0.085116398 0)
(157.97337 2.4730481 0)
(157.37299 2.2356139 0)
(157.06831 1.9875103 0)
(156.74176 1.7187356 0)
(156.49043 1.437459 0)
(156.28766 1.1464005 0)
(156.14219 0.84987126 0)
(156.05136 0.55160295 0)
(156.0149 0.25533335 0)
(156.03097 -0.035404474 0)
(156.09738 -0.31726305 0)
(156.21138 -0.58711321 0)
(156.36973 -0.84206344 0)
(156.56882 -1.0794366 0)
(156.80473 -1.2967976 0)
(157.07323 -1.4919644 0)
(157.36988 -1.6630288 0)
(157.69005 -1.8083578 0)
(158.02897 -1.9266062 0)
(158.38171 -2.0167182 0)
(158.74332 -2.07794 0)
(159.10877 -2.1098263 0)
(159.47305 -2.1122551 0)
(159.83119 -2.0854395 0)
(160.1783 -2.0299415 0)
(160.50962 -1.9466854 0)
(160.8206 -1.8369671 0)
(161.10687 -1.7024636 0)
(161.36442 -1.5452324 0)
(161.58956 -1.3677117 0)
(161.77902 -1.172704 0)
(161.93003 -0.96336177 0)
(162.0404 -0.7431516 0)
(162.10853 -0.51581559 0)
(162.1335 -0.28532199 0)
(162.11514 -0.05579746 0)
(162.05406 0.16853825 0)
(161.95163 0.38347326 0)
(161.81004 0.58490259 0)
(161.63225 0.76891917 0)