/*--------------------------------*- C++ -*----------------------------------*\
| =========                 |                                                 |
| \\      /  F ield         | foam-extend: Open Source CFD                    |
|  \\    /   O peration     | Version:     4.1                                |
|   \\  /    A nd           | Web:         http://www.foam-extend.org         |
|    \\/     M anipulation  |                                                 |
\*---------------------------------------------------------------------------*/
FoamFile
{
    version     2.0;
    format      ascii;
    class       volVectorField;
    location    "0.45";
    object      U;
}
// * * * * * * * * * * * * * * * * * * * * * * * * * * * * * * * * * * * * * //

dimensions      [0 1 -1 0 0 0 0];

internalField   nonuniform List<vector> 
16796
(
(140.88861 -0.077793314 0)
(141.08327 -0.083221625 0)
(141.22894 -0.080516381 0)
(141.36725 -0.076348706 0)
(141.49203 -0.071688699 0)
(141.60279 -0.066981511 0)
(141.69957 -0.062435651 0)
(141.78286 -0.058179601 0)
(141.8535 -0.054307768 0)
(141.91255 -0.050899031 0)
(141.96131 -0.048022656 0)
(142.00127 -0.045738893 0)
(142.0341 -0.044099503 0)
(142.06161 -0.043144125 0)
(142.08575 -0.042902333 0)
(142.10861 -0.043397348 0)
(142.13231 -0.044643447 0)
(142.15909 -0.046646271 0)
(142.1912 -0.049404023 0)
(142.23089 -0.052906973 0)
(142.28043 -0.057137554 0)
(142.34202 -0.062073509 0)
(142.41779 -0.067687384 0)
(142.50977 -0.073944692 0)
(142.61988 -0.080804209 0)
(142.74989 -0.088211411 0)
(142.90139 -0.096101942 0)
(143.07578 -0.10440506 0)
(143.27423 -0.11304259 0)
(143.49769 -0.1219304 0)
(143.74684 -0.13097957 0)
(144.02209 -0.14009725 0)
(144.32357 -0.14918812 0)
(144.65113 -0.15815515 0)
(145.00433 -0.16690085 0)
(145.38242 -0.17532871 0)
(145.78439 -0.18334408 0)
(146.20892 -0.19085579 0)
(146.65444 -0.19777698 0)
(147.11911 -0.20402665 0)
(147.60086 -0.20953051 0)
(148.0974 -0.2142223 0)
(148.60623 -0.21804449 0)
(149.12471 -0.22094942 0)
(149.65005 -0.22289981 0)
(150.17935 -0.22386941 0)
(150.70965 -0.22384336 0)
(151.23794 -0.22281838 0)
(151.76121 -0.22080278 0)
(152.27649 -0.21781625 0)
(152.78086 -0.21388939 0)
(153.27151 -0.20906317 0)
(153.74577 -0.20338799 0)
(154.20109 -0.19692274 0)
(154.63516 -0.18973354 0)
(155.04583 -0.18189241 0)
(155.43121 -0.17347575 0)
(155.78962 -0.16456278 0)
(156.11965 -0.15523391 0)
(156.42013 -0.14556905 0)
(156.69016 -0.13564607 0)
(156.92908 -0.12553904 0)
(157.13646 -0.1153173 0)
(157.31212 -0.10504423 0)
(157.45607 -0.094775803 0)
(157.56854 -0.084557007 0)
(157.64991 -0.074422424 0)
(157.70072 -0.064371942 0)
(157.72161 -0.054367818 0)
(157.71333 -0.044317596 0)
(157.67679 -0.034052236 0)
(157.61162 -0.023625714 0)
(157.51831 -0.013309803 0)
(157.3978 -0.0033200742 0)
(157.25128 0.0062101544 0)
(157.08011 0.015197248 0)
(156.88576 0.023586875 0)
(156.66982 0.031340888 0)
(156.43395 0.038429433 0)
(156.17987 0.044827011 0)
(155.9094 0.05051082 0)
(155.62441 0.0554603 0)
(155.32685 0.059657459 0)
(155.0187 0.063087612 0)
(154.70203 0.065740318 0)
(154.37893 0.067610371 0)
(154.0515 0.068698718 0)
(153.72188 0.069013227 0)
(153.39217 0.068569236 0)
(153.06444 0.067389841 0)
(152.7407 0.065505889 0)
(152.42289 0.062955695 0)
(152.11284 0.0597845 0)
(151.81226 0.056043642 0)
(151.52273 0.051789579 0)
(151.24568 0.047082729 0)
(150.98236 0.041986244 0)
(150.73387 0.036564714 0)
(150.50114 0.030882919 0)
(150.2849 0.025004645 0)
(150.08575 0.018991562 0)
(149.90408 0.012902279 0)
(149.74018 0.0067915456 0)
(149.59415 0.00070961547 0)
(149.46598 -0.0052981751 0)
(149.35556 -0.011191598 0)
(149.26265 -0.016935592 0)
(149.18695 -0.022500004 0)
(149.12808 -0.027859407 0)
(149.08562 -0.032992315 0)
(149.05909 -0.037878299 0)
(149.04801 -0.042494339 0)
(149.05187 -0.046823487 0)
(149.07 -0.050886683 0)
(149.10196 -0.054694674 0)
(149.14732 -0.058222042 0)
(149.20559 -0.061426451 0)
(149.2762 -0.064238649 0)
(149.3585 -0.066505049 0)
(149.45252 -0.067905086 0)
(149.55823 -0.068107076 0)
(149.67516 -0.068030489 0)
(149.7872 -0.065928019 0)
(149.87256 -0.052463349 0)
(160.26035 -0.1180645 0)
(160.30368 -0.12264507 0)
(160.32202 -0.11366669 0)
(160.33038 -0.10126112 0)
(160.32636 -0.087503194 0)
(160.30964 -0.073418445 0)
(160.28024 -0.059555346 0)
(160.23851 -0.046278952 0)
(160.1851 -0.033870188 0)
(160.12086 -0.022565817 0)
(160.04687 -0.012571991 0)
(159.96439 -0.0040714703 0)
(159.87487 0.0027764102 0)
(159.77981 0.0078191076 0)
(159.6809 0.01091648 0)
(159.57995 0.011953045 0)
(159.4789 0.01083612 0)
(159.37976 0.0074974835 0)
(159.28461 0.0018969213 0)
(159.19557 -0.0059774983 0)
(159.11476 -0.016108427 0)
(159.04429 -0.028447989 0)
(158.98623 -0.042916953 0)
(158.94257 -0.059403772 0)
(158.91524 -0.077761834 0)
(158.90585 -0.09782868 0)
(158.91597 -0.11942444 0)
(158.94697 -0.14234444 0)
(159.00001 -0.16636435 0)
(159.07604 -0.19124071 0)
(159.17581 -0.21671414 0)
(159.29976 -0.24251178 0)
(159.44813 -0.26835093 0)
(159.62084 -0.29394223 0)
(159.81756 -0.31899292 0)
(160.03768 -0.34321121 0)
(160.28028 -0.3663092 0)
(160.5442 -0.38800742 0)
(160.82799 -0.40803776 0)
(161.12995 -0.4261479 0)
(161.44815 -0.44210407 0)
(161.78041 -0.45569499 0)
(162.12437 -0.46673434 0)
(162.47749 -0.475064 0)
(162.83708 -0.48055606 0)
(163.20032 -0.48311492 0)
(163.56434 -0.48267873 0)
(163.92616 -0.47922043 0)
(164.28283 -0.47274807 0)
(164.63139 -0.46330474 0)
(164.96894 -0.4509678 0)
(165.29266 -0.43584749 0)
(165.59984 -0.41808496 0)
(165.88794 -0.39784972 0)
(166.15455 -0.37533645 0)
(166.39751 -0.35076138 0)
(166.61485 -0.3243582 0)
(166.80483 -0.29637362 0)
(166.96597 -0.26706268 0)
(167.09705 -0.23668402 0)
(167.19709 -0.20549526 0)
(167.26537 -0.17374793 0)
(167.30142 -0.14168428 0)
(167.30502 -0.10953655 0)
(167.27616 -0.077521383 0)
(167.21504 -0.045832116 0)
(167.12208 -0.014641583 0)
(166.99785 0.01591553 0)
(166.84305 0.04573186 0)
(166.65848 0.074756777 0)
(166.44507 0.10304829 0)
(166.20525 0.13057613 0)
(165.94069 0.15714293 0)
(165.65273 0.18257278 0)
(165.34259 0.20673843 0)
(165.01144 0.22954119 0)
(164.6605 0.25089784 0)
(164.29099 0.27073269 0)
(163.90422 0.28897286 0)
(163.50157 0.30554625 0)
(163.08447 0.32038141 0)
(162.65445 0.33340868 0)
(162.21309 0.34456242 0)
(161.76206 0.35378374 0)
(161.30307 0.36102361 0)
(160.83791 0.36624599 0)
(160.36839 0.36943073 0)
(159.89634 0.37057608 0)
(159.42362 0.36970051 0)
(158.95203 0.36684389 0)
(158.48338 0.3620678 0)
(158.01939 0.35545502 0)
(157.56173 0.34710835 0)
(157.11193 0.33714859 0)
(156.67147 0.32571197 0)
(156.24164 0.31294719 0)
(155.82365 0.29901211 0)
(155.41852 0.28407022 0)
(155.02716 0.26828717 0)
(154.65029 0.25182745 0)
(154.28852 0.23485116 0)
(153.9423 0.21751117 0)
(153.61193 0.19995068 0)
(153.2976 0.18230109 0)
(152.99939 0.1646804 0)
(152.71726 0.14719212 0)
(152.4511 0.1299245 0)
(152.20069 0.11295044 0)
(151.96577 0.09632771 0)
(151.74604 0.080099097 0)
(151.54115 0.064296858 0)
(151.35072 0.048948263 0)
(151.17439 0.034070612 0)
(151.01193 0.019652177 0)
(150.86292 0.0056633734 0)
(150.72695 -0.0079047235 0)
(150.60355 -0.021052544 0)
(150.49225 -0.033748636 0)
(150.39253 -0.045810773 0)
(150.30456 -0.056770291 0)
(150.22789 -0.066292811 0)
(150.1621 -0.077327564 0)
(150.09805 -0.085006603 0)
(150.032 -0.073155889 0)
(162.11091 -0.12018867 0)
(162.06833 -0.11152155 0)
(162.01279 -0.094584589 0)
(161.94597 -0.074536563 0)
(161.86884 -0.053185059 0)
(161.78228 -0.031635934 0)
(161.68708 -0.010597415 0)
(161.58412 0.0094153439 0)
(161.4744 0.027989699 0)
(161.35911 0.044768213 0)
(161.23951 0.059418942 0)
(161.11701 0.071654867 0)
(160.99311 0.081221277 0)
(160.86947 0.087891582 0)
(160.74781 0.091464682 0)
(160.62985 0.09177278 0)
(160.51733 0.088685645 0)
(160.412 0.082110517 0)
(160.31558 0.071995701 0)
(160.22977 0.058332036 0)
(160.15618 0.041152632 0)
(160.09636 0.020536895 0)
(160.05177 -0.0033883633 0)
(160.02372 -0.030452942 0)
(160.01342 -0.060437774 0)
(160.02208 -0.093084108 0)
(160.05066 -0.12810582 0)
(160.09998 -0.16517565 0)
(160.17067 -0.2039363 0)
(160.26314 -0.24399967 0)
(160.37763 -0.28495293 0)
(160.51413 -0.32636169 0)
(160.67242 -0.36777574 0)
(160.85208 -0.40873416 0)
(161.05242 -0.4487701 0)
(161.27257 -0.48741788 0)
(161.51141 -0.52421738 0)
(161.76762 -0.55872137 0)
(162.03968 -0.5905001 0)
(162.32586 -0.61914843 0)
(162.62425 -0.64429032 0)
(162.93279 -0.66558519 0)
(163.24927 -0.68273211 0)
(163.57133 -0.69547498 0)
(163.89654 -0.70360609 0)
(164.22239 -0.70696963 0)
(164.54628 -0.70546415 0)
(164.86564 -0.69904437 0)
(165.17787 -0.68772201 0)
(165.48042 -0.67156563 0)
(165.77078 -0.65069956 0)
(166.04656 -0.62530177 0)
(166.30546 -0.59560067 0)
(166.54535 -0.56187101 0)
(166.76423 -0.52442871 0)
(166.96031 -0.48362492 0)
(167.13199 -0.43983933 0)
(167.27787 -0.39347287 0)
(167.3968 -0.34494004 0)
(167.48782 -0.29466104 0)
(167.55021 -0.24305444 0)
(167.58347 -0.19052808 0)
(167.58731 -0.13747524 0)
(167.56162 -0.084277162 0)
(167.50651 -0.031286193 0)
(167.42223 0.02118247 0)
(167.30921 0.072846064 0)
(167.16796 0.1234346 0)
(166.99919 0.17270423 0)
(166.80371 0.22045447 0)
(166.58236 0.26649349 0)
(166.33601 0.310711 0)
(166.06558 0.35306661 0)
(165.77209 0.39349583 0)
(165.45659 0.43191038 0)
(165.12021 0.46821077 0)
(164.76409 0.50229077 0)
(164.38947 0.53403901 0)
(163.99761 0.56333962 0)
(163.5899 0.59007321 0)
(163.16775 0.61411863 0)
(162.73267 0.63535611 0)
(162.28627 0.65367137 0)
(161.83019 0.66896053 0)
(161.36617 0.68113534 0)
(160.896 0.69012844 0)
(160.42148 0.69589824 0)
(159.94449 0.69843301 0)
(159.46688 0.69775402 0)
(158.99048 0.69391743 0)
(158.51711 0.68701487 0)
(158.04851 0.67717267 0)
(157.58637 0.66454988 0)
(157.13224 0.64933509 0)
(156.6876 0.6317423 0)
(156.25378 0.61200606 0)
(155.83197 0.59037619 0)
(155.42322 0.56711212 0)
(155.02843 0.54247732 0)
(154.64833 0.51673389 0)
(154.28353 0.49013744 0)
(153.93446 0.46293259 0)
(153.60145 0.43534888 0)
(153.28466 0.40759754 0)
(152.98416 0.3798687 0)
(152.69991 0.35232958 0)
(152.43178 0.3251231 0)
(152.17955 0.29836724 0)
(151.94296 0.27215515 0)
(151.72167 0.24655487 0)
(151.51533 0.22161175 0)
(151.32356 0.19735087 0)
(151.14597 0.17378063 0)
(150.98214 0.1509053 0)
(150.83168 0.12871893 0)
(150.69422 0.10719779 0)
(150.56935 0.086309608 0)
(150.45666 0.066045546 0)
(150.35583 0.046531815 0)
(150.26701 0.02808936 0)
(150.18926 0.010733616 0)
(150.1224 -0.0099073676 0)
(150.06343 -0.025713111 0)
(150.01744 -0.028054954 0)
(162.27948 -0.08437411 0)
(162.21817 -0.061371101 0)
(162.15122 -0.036122405 0)
(162.07281 -0.009637544 0)
(161.98433 0.017158086 0)
(161.88691 0.043412271 0)
(161.7815 0.068446311 0)
(161.66908 0.091702709 0)
(161.55072 0.11268759 0)
(161.42761 0.13097433 0)
(161.30104 0.14619331 0)
(161.17241 0.15799865 0)
(161.04321 0.16608698 0)
(160.91501 0.17020013 0)
(160.78945 0.17012485 0)
(160.66819 0.16569362 0)
(160.55294 0.15678788 0)
(160.44543 0.14334098 0)
(160.34737 0.12533895 0)
(160.26043 0.10282226 0)
(160.18624 0.075885504 0)
(160.12635 0.044677341 0)
(160.08222 0.0094020346 0)
(160.05521 -0.029690109 0)
(160.04654 -0.072307948 0)
(160.05726 -0.11810118 0)
(160.0883 -0.16667336 0)
(160.14039 -0.21758781 0)
(160.21408 -0.27036607 0)
(160.30972 -0.32449636 0)
(160.42746 -0.37943793 0)
(160.56721 -0.43462616 0)
(160.72868 -0.48947993 0)
(160.91135 -0.54340736 0)
(161.1145 -0.5958118 0)
(161.33718 -0.64610047 0)
(161.57821 -0.69368959 0)
(161.83624 -0.73801359 0)
(162.10971 -0.77853044 0)
(162.39688 -0.81473056 0)
(162.69583 -0.84614231 0)
(163.0045 -0.87233996 0)
(163.32071 -0.89294894 0)
(163.64213 -0.90765234 0)
(163.96637 -0.91619567 0)
(164.29094 -0.9183912 0)
(164.61334 -0.91412138 0)
(164.93101 -0.90334122 0)
(165.24142 -0.88607943 0)
(165.54208 -0.86243848 0)
(165.83052 -0.83259322 0)
(166.1044 -0.7967882 0)
(166.36146 -0.75533365 0)
(166.59958 -0.70860004 0)
(166.81681 -0.65701136 0)
(167.01136 -0.60103726 0)
(167.18163 -0.54118413 0)
(167.32624 -0.47798531 0)
(167.44401 -0.4119908 0)
(167.53399 -0.3437566 0)
(167.59544 -0.27383517 0)
(167.62783 -0.20276057 0)
(167.63086 -0.1310522 0)
(167.60442 -0.059207347 0)
(167.5486 0.012326569 0)
(167.46363 0.083149823 0)
(167.34993 0.15291076 0)
(167.208 0.22128737 0)
(167.03848 0.28803131 0)
(166.84211 0.35290843 0)
(166.61972 0.41569073 0)
(166.37216 0.47618451 0)
(166.1004 0.53423681 0)
(165.80545 0.58970083 0)
(165.48836 0.64242922 0)
(165.15026 0.69227421 0)
(164.79229 0.73908528 0)
(164.41569 0.78270647 0)
(164.02173 0.8229749 0)
(163.61177 0.85972138 0)
(163.18725 0.89277285 0)
(162.74968 0.92195698 0)
(162.30065 0.94710822 0)
(161.84184 0.9680749 0)
(161.375 0.98472691 0)
(160.90192 0.99696336 0)
(160.42446 1.0047196 0)
(159.9445 1.007973 0)
(159.46392 1.006748 0)
(158.9846 1.0011182 0)
(158.50837 0.99120749 0)
(158.03702 0.97718934 0)
(157.57224 0.9592835 0)
(157.11564 0.93775176 0)
(156.66869 0.91289206 0)
(156.23275 0.88503168 0)
(155.80903 0.85451966 0)
(155.39857 0.82171895 0)
(155.00228 0.78699846 0)
(154.62091 0.7507255 0)
(154.25505 0.71325866 0)
(153.90513 0.6749414 0)
(153.57145 0.63609652 0)
(153.25419 0.59702159 0)
(152.95338 0.55798532 0)
(152.66899 0.51922504 0)
(152.40085 0.48094512 0)
(152.14875 0.44331627 0)
(151.91238 0.40647588 0)
(151.69142 0.37052893 0)
(151.48549 0.33555001 0)
(151.2942 0.301585 0)
(151.11714 0.26865577 0)
(150.95392 0.23677334 0)
(150.80413 0.20594373 0)
(150.66741 0.1761696 0)
(150.54335 0.14746178 0)
(150.43161 0.11988366 0)
(150.33195 0.093637483 0)
(150.24448 0.06903857 0)
(150.16791 0.046165694 0)
(150.10266 0.020199068 0)
(150.04874 0.0030244006 0)
(150.01207 -0.0046348585 0)
(162.32552 -0.062471042 0)
(162.26124 -0.028341998 0)
(162.19362 0.0058114975 0)
(162.11438 0.040039712 0)
(162.02474 0.073813306 0)
(161.9258 0.10644808 0)
(161.81856 0.13727519 0)
(161.70402 0.16567508 0)
(161.5833 0.19110316 0)
(161.45759 0.21305114 0)
(161.32821 0.23105535 0)
(161.19656 0.24470047 0)
(161.06415 0.25361334 0)
(160.93258 0.2574715 0)
(160.80349 0.25600932 0)
(160.6786 0.24901775 0)
(160.55966 0.23634921 0)
(160.44842 0.21792146 0)
(160.34663 0.19371956 0)
(160.25602 0.16379849 0)
(160.17826 0.12828364 0)
(160.11495 0.087372105 0)
(160.0676 0.041332792 0)
(160.03762 -0.009496946 0)
(160.02626 -0.064729455 0)
(160.03463 -0.12391347 0)
(160.06367 -0.18653411 0)
(160.11415 -0.25202232 0)
(160.18663 -0.31975746 0)
(160.28149 -0.38907976 0)
(160.39888 -0.459295 0)
(160.53872 -0.52968164 0)
(160.70072 -0.59949992 0)
(160.88437 -0.66799938 0)
(161.08893 -0.7344264 0)
(161.31342 -0.79803485 0)
(161.55668 -0.85809239 0)
(161.81732 -0.91389168 0)
(162.09375 -0.96475673 0)
(162.38422 -1.0100536 0)
(162.68677 -1.049197 0)
(162.99932 -1.0816595 0)
(163.31964 -1.106978 0)
(163.64538 -1.1247614 0)
(163.97409 -1.1346965 0)
(164.30327 -1.1365528 0)
(164.63035 -1.1301874 0)
(164.95274 -1.1155471 0)
(165.26786 -1.0926712 0)
(165.57317 -1.0616905 0)
(165.86616 -1.022827 0)
(166.14443 -0.97639003 0)
(166.40569 -0.9227722 0)
(166.64777 -0.86244267 0)
(166.86867 -0.79593908 0)
(167.06657 -0.72385808 0)
(167.23985 -0.64684421 0)
(167.38709 -0.56557787 0)
(167.5071 -0.48076228 0)
(167.59891 -0.39311003 0)
(167.66179 -0.30333138 0)
(167.69522 -0.21211234 0)
(167.6989 -0.12013231 0)
(167.67276 -0.028029052 0)
(167.61689 0.063623366 0)
(167.53157 0.15429855 0)
(167.41721 0.24352091 0)
(167.2744 0.33089675 0)
(167.10378 0.41607818 0)
(166.90613 0.49877683 0)
(166.68229 0.5787446 0)
(166.43316 0.65577306 0)
(166.15968 0.72968531 0)
(165.86288 0.80031487 0)
(165.5438 0.86749408 0)
(165.20355 0.93104932 0)
(164.84329 0.99079736 0)
(164.46422 1.0465427 0)
(164.06762 1.0980771 0)
(163.65484 1.1451808 0)
(163.22732 1.187627 0)
(162.78657 1.2251876 0)
(162.3342 1.2576424 0)
(161.8719 1.284788 0)
(161.40142 1.3064481 0)
(160.9246 1.3224841 0)
(160.44333 1.3328043 0)
(159.95951 1.3373717 0)
(159.47507 1.3362099 0)
(158.99193 1.3294069 0)
(158.51197 1.3171166 0)
(158.03699 1.2995568 0)
(157.56875 1.2770057 0)
(157.10887 1.2497963 0)
(156.65886 1.2183083 0)
(156.2201 1.1829596 0)
(155.79381 1.1441961 0)
(155.38106 1.1024814 0)
(154.98275 1.0582868 0)
(154.59963 1.0120812 0)
(154.23228 0.96432186 0)
(153.88114 0.91544631 0)
(153.54649 0.86586494 0)
(153.22848 0.81595514 0)
(152.92716 0.76605657 0)
(152.64243 0.71646782 0)
(152.37413 0.66744421 0)
(152.12202 0.61919692 0)
(151.88579 0.57189333 0)
(151.66507 0.52565842 0)
(151.45949 0.48057706 0)
(151.26862 0.43669698 0)
(151.09207 0.39403354 0)
(150.92941 0.35257817 0)
(150.78025 0.31230513 0)
(150.64424 0.27317811 0)
(150.52098 0.23516767 0)
(150.41022 0.19829722 0)
(150.31179 0.16269469 0)
(150.22578 0.12852793 0)
(150.15094 0.09585951 0)
(150.08853 0.059053223 0)
(150.03991 0.032906857 0)
(150.00936 0.013234268 0)
(162.37629 -0.025508124 0)
(162.31025 0.017509028 0)
(162.24227 0.059575358 0)
(162.16265 0.10080525 0)
(162.07228 0.14078422 0)
(161.9722 0.17889702 0)
(161.86338 0.21448254 0)
(161.74686 0.24690471 0)
(161.62377 0.27555219 0)
(161.49534 0.2998543 0)
(161.3629 0.31928871 0)
(161.22789 0.33337774 0)
(161.09186 0.34169784 0)
(160.95642 0.34388491 0)
(160.82328 0.3396395 0)
(160.69419 0.32873175 0)
(160.57094 0.31100601 0)
(160.45534 0.28638476 0)
(160.34918 0.25487146 0)
(160.25425 0.21655313 0)
(160.17226 0.17160044 0)
(160.10489 0.12026879 0)
(160.05367 0.062894067 0)
(160.02008 -9.9884596e-05 0)
(160.00541 -0.068226891 0)
(160.01082 -0.140932 0)
(160.0373 -0.21758329 0)
(160.08565 -0.2974964 0)
(160.15647 -0.37992627 0)
(160.25017 -0.46407998 0)
(160.3669 -0.54912657 0)
(160.50664 -0.6342028 0)
(160.66909 -0.71842598 0)
(160.85374 -0.80090195 0)
(161.05986 -0.88073411 0)
(161.28648 -0.95703609 0)
(161.53241 -1.028939 0)
(161.79624 -1.0956045 0)
(162.07637 -1.1562322 0)
(162.37101 -1.2100722 0)
(162.67817 -1.2564325 0)
(162.99573 -1.2946903 0)
(163.3214 -1.324299 0)
(163.65279 -1.3447976 0)
(163.98739 -1.3558171 0)
(164.32264 -1.3570875 0)
(164.6559 -1.3484422 0)
(164.98452 -1.329822 0)
(165.30585 -1.3012775 0)
(165.61728 -1.2629692 0)
(165.91624 -1.2151662 0)
(166.20027 -1.1582431 0)
(166.467 -1.0926742 0)
(166.71421 -1.0190263 0)
(166.93986 -0.93794868 0)
(167.14209 -0.8501621 0)
(167.31922 -0.75644509 0)
(167.46983 -0.65761942 0)
(167.59271 -0.55453418 0)
(167.68688 -0.44804927 0)
(167.75162 -0.33902101 0)
(167.78641 -0.22827483 0)
(167.79099 -0.11663231 0)
(167.7653 -0.0048504625 0)
(167.70947 0.10638851 0)
(167.62383 0.21645648 0)
(167.50881 0.32478558 0)
(167.36502 0.43089284 0)
(167.19316 0.53436131 0)
(166.99403 0.63483535 0)
(166.76848 0.73201295 0)
(166.51745 0.82563789 0)
(166.24189 0.9154882 0)
(165.94283 1.0013593 0)
(165.62132 1.0830502 0)
(165.27845 1.1603538 0)
(164.91538 1.2330504 0)
(164.53329 1.3009032 0)
(164.13347 1.3636568 0)
(163.71724 1.4210391 0)
(163.28605 1.4727668 0)
(162.84141 1.5185533 0)
(162.38493 1.5581199 0)
(161.91832 1.5912077 0)
(161.44337 1.6175914 0)
(160.96195 1.6370919 0)
(160.47597 1.6495887 0)
(159.9874 1.6550295 0)
(159.49821 1.6534386 0)
(159.01037 1.644921 0)
(158.52581 1.6296639 0)
(158.04639 1.6079353 0)
(157.5739 1.5800789 0)
(157.11002 1.5465067 0)
(156.65628 1.5076895 0)
(156.2141 1.4641454 0)
(155.78471 1.4164275 0)
(155.36921 1.3651111 0)
(154.9685 1.3107806 0)
(154.58332 1.2540172 0)
(154.21426 1.1953879 0)
(153.86173 1.1354346 0)
(153.52601 1.0746659 0)
(153.20723 1.013549 0)
(152.90539 0.95250489 0)
(152.62039 0.89190351 0)
(152.35205 0.83206147 0)
(152.10007 0.77324082 0)
(151.86414 0.7156494 0)
(151.64386 0.65944236 0)
(151.43883 0.60472495 0)
(151.24861 0.55155674 0)
(151.07277 0.49995743 0)
(150.91089 0.44991412 0)
(150.76256 0.40138769 0)
(150.62741 0.35432022 0)
(150.50508 0.30865261 0)
(150.39534 0.26435919 0)
(150.29804 0.22146382 0)
(150.21324 0.17996784 0)
(150.13984 0.13983381 0)
(150.07976 0.094028742 0)
(150.03487 0.059313205 0)
(150.00794 0.027819101 0)
(162.44255 0.0036279891 0)
(162.37614 0.055402658 0)
(162.30778 0.10590452 0)
(162.22761 0.15502708 0)
(162.1363 0.20230668 0)
(162.0348 0.2471015 0)
(161.92408 0.2887277 0)
(161.80518 0.32648261 0)
(161.67924 0.35968461 0)
(161.54751 0.38768733 0)
(161.41136 0.40988714 0)
(161.27227 0.42573256 0)
(161.13181 0.43473214 0)
(160.99166 0.43646165 0)
(160.85356 0.43057259 0)
(160.71932 0.41679781 0)
(160.59079 0.3949578 0)
(160.46983 0.3649657 0)
(160.35831 0.32683063 0)
(160.25808 0.28066093 0)
(160.17091 0.22666431 0)
(160.09854 0.16514935 0)
(160.04259 0.096518959 0)
(160.00457 0.02128175 0)
(159.98586 -0.059977419 0)
(159.98766 -0.14659593 0)
(160.01102 -0.23782035 0)
(160.05678 -0.33283027 0)
(160.12558 -0.43073492 0)
(160.21787 -0.53058918 0)
(160.33384 -0.63140535 0)
(160.47346 -0.73215949 0)
(160.63647 -0.83180721 0)
(160.82238 -0.92929277 0)
(161.03043 -1.0235596 0)
(161.25966 -1.1135653 0)
(161.50885 -1.1982894 0)
(161.7766 -1.276749 0)
(162.06125 -1.3480069 0)
(162.36097 -1.411186 0)
(162.67375 -1.4654775 0)
(162.9974 -1.5101542 0)
(163.32957 -1.5445782 0)
(163.66782 -1.5682118 0)
(164.00957 -1.5806252 0)
(164.35217 -1.581504 0)
(164.69292 -1.5706552 0)
(165.02908 -1.5480119 0)
(165.35792 -1.5136356 0)
(165.67674 -1.4677178 0)
(165.9829 -1.4105782 0)
(166.27385 -1.342661 0)
(166.54716 -1.2645294 0)
(166.80055 -1.1768567 0)
(167.03189 -1.080415 0)
(167.23928 -0.97606226 0)
(167.42101 -0.86472623 0)
(167.57561 -0.74738719 0)
(167.70186 -0.62505888 0)
(167.79878 -0.49876873 0)
(167.86565 -0.36953982 0)
(167.90197 -0.23836011 0)
(167.90751 -0.10621239 0)
(167.88224 0.026006973 0)
(167.82634 0.15748697 0)
(167.74018 0.28748284 0)
(167.62425 0.41533956 0)
(167.47919 0.54050364 0)
(167.30577 0.66250007 0)
(167.1048 0.78092885 0)
(166.87718 0.89545486 0)
(166.62386 1.005795 0)
(166.34582 1.1117027 0)
(166.04408 1.2129503 0)
(165.71969 1.309313 0)
(165.37373 1.4005566 0)
(165.00734 1.4864281 0)
(164.62169 1.5666497 0)
(164.21804 1.6409177 0)
(163.79773 1.7089046 0)
(163.36217 1.7702657 0)
(162.91289 1.8246501 0)
(162.45151 1.8717136 0)
(161.97975 1.9111349 0)
(161.49944 1.9426316 0)
(161.01248 1.965977 0)
(160.52084 1.9810149 0)
(160.02654 1.9876722 0)
(159.53161 1.9859684 0)
(159.03809 1.9760212 0)
(158.54796 1.9580486 0)
(158.06315 1.9323665 0)
(157.58551 1.8993827 0)
(157.11676 1.8595877 0)
(156.6585 1.8135431 0)
(156.21215 1.7618673 0)
(155.77899 1.7052204 0)
(155.36013 1.6442889 0)
(154.95647 1.5797696 0)
(154.56877 1.5123552 0)
(154.19759 1.4427201 0)
(153.84334 1.3715085 0)
(153.50628 1.2993235 0)
(153.1865 1.226719 0)
(152.88399 1.1541923 0)
(152.59863 1.0821802 0)
(152.33017 1.0110551 0)
(152.07833 0.94112458 0)
(151.84272 0.87263169 0)
(151.62295 0.80575669 0)
(151.41857 0.74062053 0)
(151.22912 0.67728992 0)
(151.05416 0.61578396 0)
(150.89324 0.55608206 0)
(150.74595 0.4981319 0)
(150.61192 0.44185958 0)
(150.49079 0.38718824 0)
(150.38235 0.33406324 0)
(150.28646 0.28245233 0)
(150.20317 0.23229647 0)
(150.13149 0.18355895 0)
(150.0737 0.12773873 0)
(150.03168 0.083632613 0)
(150.00711 0.040612838 0)
(162.52306 0.03881835 0)
(162.45589 0.098895413 0)
(162.38683 0.15741894 0)
(162.3057 0.21408829 0)
(162.21302 0.26833155 0)
(162.10968 0.31947422 0)
(161.9966 0.36676807 0)
(161.87482 0.40945076 0)
(161.7455 0.44677206 0)
(161.60991 0.4780109 0)
(161.46945 0.5024913 0)
(161.32562 0.51959178 0)
(161.18006 0.52875792 0)
(161.03449 0.5295112 0)
(160.89069 0.5214589 0)
(160.75056 0.50430193 0)
(160.61599 0.47784214 0)
(160.48892 0.44198825 0)
(160.37129 0.39675993 0)
(160.26502 0.34229149 0)
(160.17198 0.27883195 0)
(160.09394 0.20674668 0)
(160.03263 0.12650999 0)
(159.98962 0.038716309 0)
(159.96635 -0.055946662 0)
(159.96409 -0.15670455 0)
(159.98395 -0.26268289 0)
(160.02682 -0.37293066 0)
(160.0934 -0.48642567 0)
(160.18415 -0.60207731 0)
(160.29932 -0.7187494 0)
(160.4389 -0.83526421 0)
(160.60265 -0.95042088 0)
(160.79007 -1.0630064 0)
(161.00043 -1.1718072 0)
(161.23273 -1.2756266 0)
(161.48576 -1.3732937 0)
(161.75808 -1.4636809 0)
(162.04799 -1.5457131 0)
(162.35364 -1.6183843 0)
(162.67295 -1.680767 0)
(163.00368 -1.7320266 0)
(163.34342 -1.7714312 0)
(163.68963 -1.7983635 0)
(164.03967 -1.8123297 0)
(164.3908 -1.8129683 0)
(164.74024 -1.8000575 0)
(165.08514 -1.7735199 0)
(165.4227 -1.7334266 0)
(165.7501 -1.6799985 0)
(166.06462 -1.6136046 0)
(166.36362 -1.5347586 0)
(166.64457 -1.4441122 0)
(166.90511 -1.3424453 0)
(167.14306 -1.2306531 0)
(167.35644 -1.109731 0)
(167.54351 -0.98075644 0)
(167.70274 -0.84486801 0)
(167.83291 -0.70324363 0)
(167.93302 -0.55707728 0)
(168.00236 -0.40755662 0)
(168.04044 -0.25583077 0)
(168.04709 -0.10303968 0)
(168.02229 0.049786886 0)
(167.9663 0.2017124 0)
(167.87953 0.35188165 0)
(167.76252 0.49952945 0)
(167.61599 0.64401331 0)
(167.44073 0.78478989 0)
(167.23761 0.92140819 0)
(167.00759 1.0534956 0)
(166.75162 1.1807411 0)
(166.4707 1.3028754 0)
(166.16587 1.4196514 0)
(165.83815 1.5308239 0)
(165.48863 1.6361343 0)
(165.11842 1.7352984 0)
(164.72867 1.8279988 0)
(164.32063 1.9138825 0)
(163.8956 1.9925642 0)
(163.45499 2.0636342 0)
(163.00034 2.126672 0)
(162.53327 2.1812625 0)
(162.05553 2.2270154 0)
(161.56898 2.2635859 0)
(161.07557 2.2906948 0)
(160.57733 2.3081464 0)
(160.07634 2.3158445 0)
(159.57472 2.313804 0)
(159.07456 2.3021574 0)
(158.57794 2.2811571 0)
(158.08686 2.2511729 0)
(157.60323 2.2126843 0)
(157.12883 2.1662694 0)
(156.66531 2.1125904 0)
(156.21414 2.0523768 0)
(155.77663 1.9864071 0)
(155.3539 1.91549 0)
(154.94687 1.8404456 0)
(154.55629 1.7620881 0)
(154.18272 1.681209 0)
(153.82654 1.5985629 0)
(153.48799 1.5148553 0)
(153.16713 1.4307322 0)
(152.86392 1.3467724 0)
(152.57819 1.2634822 0)
(152.30967 1.1812922 0)
(152.05801 1.1005552 0)
(151.82283 1.0215478 0)
(151.60366 0.94447182 0)
(151.40003 0.86945841 0)
(151.21147 0.79657356 0)
(151.03749 0.72582482 0)
(150.87762 0.6571693 0)
(150.73145 0.59052224 0)
(150.59859 0.52576825 0)
(150.47869 0.46277847 0)
(150.37156 0.40142785 0)
(150.27704 0.34159202 0)
(150.19521 0.28312629 0)
(150.12517 0.22593927 0)
(150.06938 0.15998995 0)
(150.02954 0.10635837 0)
(150.00657 0.052293958 0)
(162.61846 0.0708706 0)
(162.55102 0.13967851 0)
(162.48117 0.20677217 0)
(162.39888 0.27166473 0)
(162.30455 0.33365708 0)
(162.199 0.39198114 0)
(162.08313 0.44581087 0)
(161.95798 0.49430119 0)
(161.82472 0.53661758 0)
(161.68464 0.57195186 0)
(161.53916 0.59954308 0)
(161.38985 0.61868941 0)
(161.23838 0.62876278 0)
(161.08651 0.62922045 0)
(160.93613 0.61961665 0)
(160.78916 0.59961197 0)
(160.6476 0.56898217 0)
(160.51347 0.5276252 0)
(160.38878 0.47556589 0)
(160.27553 0.41296031 0)
(160.17568 0.34009585 0)
(160.09112 0.25739277 0)
(160.02362 0.16539739 0)
(159.97485 0.064787837 0)
(159.94634 -0.043641647 0)
(159.93942 -0.15899975 0)
(159.95527 -0.28028981 0)
(159.99484 -0.40641775 0)
(160.05889 -0.53621117 0)
(160.14792 -0.66841908 0)
(160.26221 -0.80174124 0)
(160.40179 -0.9348318 0)
(160.56643 -1.06632 0)
(160.75564 -1.1948227 0)
(160.96868 -1.3189579 0)
(161.20457 -1.4373636 0)
(161.46205 -1.5487083 0)
(161.73965 -1.6517105 0)
(162.03565 -1.745149 0)
(162.34814 -1.8278812 0)
(162.67497 -1.8988536 0)
(163.01385 -1.9571184 0)
(163.36228 -2.0018438 0)
(163.71766 -2.0323281 0)
(164.07723 -2.0480096 0)
(164.43817 -2.0484768 0)
(164.79759 -2.0334763 0)
(165.15254 -2.0029201 0)
(165.5001 -1.9568891 0)
(165.83736 -1.8956354 0)
(166.16147 -1.8195814 0)
(166.46969 -1.7293156 0)
(166.7594 -1.6255856 0)
(167.02814 -1.5092875 0)
(167.27365 -1.381451 0)
(167.49388 -1.2432226 0)
(167.68702 -1.0958439 0)
(167.85153 -0.94062873 0)
(167.98613 -0.77893642 0)
(168.08982 -0.61214541 0)
(168.16191 -0.44162487 0)
(168.20194 -0.26870381 0)
(168.20976 -0.094693392 0)
(168.18542 0.079232881 0)
(168.12923 0.25200222 0)
(168.04168 0.42264548 0)
(167.92337 0.59031569 0)
(167.77508 0.7542975 0)
(167.59767 0.91399518 0)
(167.39208 1.0689197 0)
(167.15929 1.2186724 0)
(166.90029 1.3629251 0)
(166.61611 1.5013965 0)
(166.30776 1.6338284 0)
(165.97629 1.7599622 0)
(165.62275 1.8795197 0)
(165.24822 1.9921877 0)
(164.85384 2.0976088 0)
(164.44081 2.1953783 0)
(164.01043 2.2850484 0)
(163.56409 2.3661372 0)
(163.1033 2.4381458 0)
(162.62972 2.5005782 0)
(162.14512 2.5529648 0)
(161.6514 2.5948877 0)
(161.15057 2.6260048 0)
(160.64472 2.6460724 0)
(160.13601 2.654964 0)
(159.62665 2.6526838 0)
(159.11882 2.6393754 0)
(158.61469 2.6153242 0)
(158.11635 2.5809536 0)
(157.62578 2.5368166 0)
(157.14485 2.4835817 0)
(156.67525 2.4220157 0)
(156.21852 2.3529638 0)
(155.77599 2.2773275 0)
(155.3488 2.1960427 0)
(154.93789 2.1100577 0)
(154.54401 2.0203123 0)
(154.1677 1.9277192 0)
(153.80932 1.833147 0)
(153.46908 1.7374063 0)
(153.14701 1.6412383 0)
(152.84303 1.5453057 0)
(152.55691 1.4501871 0)
(152.28836 1.3563732 0)
(152.03698 1.2642654 0)
(151.80232 1.1741769 0)
(151.58391 1.0863351 0)
(151.38122 1.000886 0)
(151.19373 0.91790035 0)
(151.02094 0.83738081 0)
(150.86235 0.7592702 0)
(150.71751 0.68346051 0)
(150.58604 0.60980413 0)
(150.46757 0.53812813 0)
(150.3619 0.46824485 0)
(150.26887 0.39994903 0)
(150.18855 0.33301201 0)
(150.12013 0.26724834 0)
(150.06612 0.19103693 0)
(150.028 0.12790204 0)
(150.0062 0.063229431 0)
(162.72774 0.10502529 0)
(162.6598 0.1825988 0)
(162.58899 0.25826284 0)
(162.50527 0.33138916 0)
(162.40895 0.40116545 0)
(162.30082 0.46671967 0)
(162.18174 0.52713562 0)
(162.05274 0.58147807 0)
(161.915 0.62882172 0)
(161.76982 0.66826833 0)
(161.61868 0.69896872 0)
(161.46318 0.72013784 0)
(161.30503 0.73107173 0)
(161.14608 0.73116099 0)
(160.98827 0.71990479 0)
(160.83361 0.69692186 0)
(160.68418 0.66196073 0)
(160.54209 0.61490804 0)
(160.40945 0.55579395 0)
(160.28836 0.48479712 0)
(160.18088 0.40224494 0)
(160.08897 0.30861485 0)
(160.01453 0.2045285 0)
(159.9593 0.090750739 0)
(159.92492 -0.031813247 0)
(159.91278 -0.16215004 0)
(159.92414 -0.29913696 0)
(159.96004 -0.44153356 0)
(160.02126 -0.58802465 0)
(160.10839 -0.73720144 0)
(160.22173 -0.88760072 0)
(160.36134 -1.0377091 0)
(160.52702 -1.1859847 0)
(160.71829 -1.3308724 0)
(160.9344 -1.4708185 0)
(161.17436 -1.604292 0)
(161.43689 -1.7297966 0)
(161.72049 -1.8458915 0)
(162.02339 -1.9512039 0)
(162.34362 -2.0444488 0)
(162.67898 -2.1244407 0)