/*--------------------------------*- C++ -*----------------------------------*\
| =========                 |                                                 |
| \\      /  F ield         | foam-extend: Open Source CFD                    |
|  \\    /   O peration     | Version:     4.1                                |
|   \\  /    A nd           | Web:         http://www.foam-extend.org         |
|    \\/     M anipulation  |                                                 |
\*---------------------------------------------------------------------------*/
FoamFile
{
    version     2.0;
    format      ascii;
    class       volScalarField;
    location    "1.2";
    object      p;
}
// * * * * * * * * * * * * * * * * * * * * * * * * * * * * * * * * * * * * * //

dimensions      [0 2 -2 0 0 0 0];

internalField   nonuniform List<scalar> 
16796
(
-0.001295969
-2.3737893e-05
-0.0013490373
-0.00093929462
-0.0017025298
-0.0016911111
-0.0022133963
-0.0023947293
-0.0028239852
-0.0031090699
-0.0035154219
-0.0038679056
-0.0042866609
-0.0046940785
-0.0051450905
-0.0056059338
-0.0061023228
-0.0066202244
-0.0071722966
-0.0077534026
-0.0083703904
-0.0090221483
-0.009712951
-0.01044351
-0.011216957
-0.012034815
-0.012899679
-0.013813401
-0.014778264
-0.015796191
-0.016869184
-0.017999073
-0.019187537
-0.020436118
-0.021746101
-0.023118554
-0.024554217
-0.026053506
-0.027616417
-0.0292425
-0.0309308
-0.032679749
-0.034487195
-0.036350224
-0.038265204
-0.040227632
-0.042232145
-0.044272414
-0.046341129
-0.048429942
-0.050529449
-0.05262917
-0.054717555
-0.056782006
-0.058808912
-0.06078372
-0.062691016
-0.064514638
-0.066237811
-0.067843304
-0.069313608
-0.070631141
-0.071778455
-0.072738477
-0.073494731
-0.074031601
-0.074334552
-0.074390389
-0.074187457
-0.073715906
-0.072967792
-0.071937393
-0.070621288
-0.069018355
-0.067129967
-0.064959988
-0.062514793
-0.05980323
-0.056836551
-0.053628289
-0.050194114
-0.046551619
-0.042720126
-0.038720379
-0.034574321
-0.030304718
-0.025934932
-0.021488508
-0.016988971
-0.012459415
-0.0079223404
-0.003399294
0.001089241
0.0055241301
0.0098876353
0.014163609
0.018337481
0.022396369
0.026328999
0.030125744
0.033778512
0.037280709
0.040627113
0.043813787
0.046837954
0.049697852
0.052392681
0.054922333
0.057287527
0.059489259
0.061529411
0.063409453
0.065132315
0.066699069
0.068114128
0.069376566
0.070494082
0.071460084
0.07229088
0.072964996
0.073521861
0.07390111
0.074203941
0.074270133
-0.0012937592
-2.3356527e-05
-0.0013463954
-0.00093711059
-0.0016989806
-0.001687405
-0.0022087066
-0.0023895924
-0.0028180196
-0.0031025089
-0.0035080834
-0.0038598852
-0.0042778663
-0.0046845427
-0.0051347616
-0.0055948169
-0.0060903853
-0.00660746
-0.007158683
-0.0077389309
-0.0083550461
-0.0090059249
-0.0096958422
-0.010425516
-0.011198082
-0.012015069
-0.012879081
-0.013791976
-0.014756047
-0.015773227
-0.016845532
-0.017974802
-0.019162734
-0.020410884
-0.021720556
-0.023092837
-0.024528488
-0.026027945
-0.02759123
-0.029217915
-0.030907071
-0.032657157
-0.034466046
-0.036330848
-0.038247957
-0.040212892
-0.04222031
-0.044263901
-0.046336368
-0.048429372
-0.050533513
-0.052638305
-0.05473219
-0.05680255
-0.058835747
-0.06081719
-0.06273142
-0.064562218
-0.066292744
-0.067905695
-0.069383478
-0.070708423
-0.07186299
-0.072830007
-0.073592899
-0.074135948
-0.074444524
-0.074505337
-0.074306643
-0.073838517
-0.073092935
-0.072064153
-0.070748777
-0.069145649
-0.067256129
-0.065084073
-0.062635863
-0.059920373
-0.056948884
-0.053734977
-0.050294382
-0.046644762
-0.042805521
-0.038797493
-0.034642719
-0.030364068
-0.025985013
-0.021529205
-0.017020283
-0.012481439
-0.0079352796
-0.0034034395
0.0010935134
0.0055363759
0.0099073489
0.014190241
0.018370448
0.022435069
0.026372818
0.030174077
0.033830763
0.037336304
0.04068551
0.043874475
0.046900465
0.049761759
0.052457602
0.054987929
0.057353509
0.059555377
0.061595461
0.063475271
0.065197773
0.066764078
0.06817863
0.069440532
0.070557507
0.071522992
0.072353305
0.073027006
0.073583509
0.073962507
0.07426513
0.074331283
-0.0012894064
-2.2820659e-05
-0.0013412691
-0.00093300877
-0.0016921133
-0.0016802907
-0.0021996232
-0.0023796632
-0.0028064513
-0.003089793
-0.0034938444
-0.003844328
-0.0042608033
-0.0046660489
-0.0051147348
-0.0055732745
-0.0060672659
-0.0065827581
-0.0071323596
-0.0077109753
-0.0083254364
-0.0089746562
-0.0096629099
-0.01039093
-0.011161858
-0.01197724
-0.01283969
-0.013751086
-0.014713739
-0.015729603
-0.016800716
-0.017928948
-0.019116023
-0.020363528
-0.021672803
-0.023044972
-0.024480836
-0.025980873
-0.027545151
-0.029173286
-0.030864397
-0.032616991
-0.034428988
-0.036297546
-0.038219101
-0.040189214
-0.04220258
-0.044252917
-0.046332951
-0.048434357
-0.050547738
-0.052662597
-0.054767355
-0.056849355
-0.058894904
-0.060889341
-0.062817117
-0.064661909
-0.066406752
-0.068034204
-0.069526518
-0.07086586
-0.072034508
-0.073015107
-0.073790894
-0.074345961
-0.07466549
-0.074736012
-0.074545611
-0.074084207
-0.073343626
-0.072318019
-0.071003954
-0.069400203
-0.067508081
-0.06533144
-0.062876678
-0.060152717
-0.057170917
-0.053944965
-0.050490723
-0.046826012
-0.042970418
-0.038944975
-0.034771945
-0.03047442
-0.026076112
-0.021600904
-0.01707267
-0.012514821
-0.0079501718
-0.0034005416
0.001113333
0.0055721145
0.0099578883
0.014254383
0.018446937
0.022522621
0.026470146
0.030279912
0.033943875
0.037455521
0.040809725
0.044002666
0.047031694
0.049895183
0.052592474
0.055123598
0.057489416
0.059691059
0.061730539
0.063609451
0.065330838
0.066895884
0.068309091
0.069569631
0.070685265
0.071649493
0.072478647
0.073151361
0.073707007
0.074085411
0.074387543
0.074453589
-0.001282878
-2.1959087e-05
-0.0013335325
-0.00092677855
-0.0016817386
-0.001669528
-0.0021859039
-0.0023646617
-0.0027889833
-0.0030705906
-0.0034723455
-0.0038208367
-0.0042350376
-0.0046381186
-0.0050844852
-0.0055407292
-0.0060323305
-0.0065454213
-0.0070925604
-0.0076686944
-0.0082806374
-0.0089273283
-0.0096130424
-0.010338533
-0.011106952
-0.011919869
-0.012779915
-0.013688997
-0.01464945
-0.015663263
-0.016732508
-0.017859096
-0.019044793
-0.020291236
-0.021599816
-0.022971715
-0.024407792
-0.025908593
-0.02747425
-0.029104453
-0.030798391
-0.032554645
-0.034371209
-0.036245312
-0.038173459
-0.040151276
-0.042173512
-0.044233935
-0.046325308
-0.048439326
-0.050566599
-0.05269662
-0.054817772
-0.056917344
-0.05898156
-0.060995652
-0.062943937
-0.064809928
-0.066576475
-0.068225922
-0.069740288
-0.07110148
-0.072291509
-0.073292736
-0.074088109
-0.074661431
-0.0749976
-0.075082872
-0.074905076
-0.074453899
-0.073720955
-0.072700241
-0.071388265
-0.069783709
-0.067887826
-0.065704459
-0.063240027
-0.060503528
-0.057506431
-0.05426258
-0.050788032
-0.047100841
-0.043220865
-0.039169428
-0.034969122
-0.030643371
-0.026216246
-0.021711972
-0.017154779
-0.012568401
-0.0079759731
-0.0033995889
0.0011397581
0.0056225276
0.010030628
0.014347666
0.018558887
0.022651324
0.026613673
0.030436364
0.034111407
0.037632371
0.040994233
0.044193291
0.047227025
0.050093949
0.052793546
0.05532599
0.057692285
0.059893699
0.061932376
0.063810036
0.065529835
0.067093067
0.068504327
0.069762884
0.070876561
0.071838952
0.072666405
0.073337671
0.073892059
0.07426959
0.074570999
0.074636892
-0.0012742456
-2.0883127e-05
-0.0013233157
-0.0009185969
-0.0016680392
-0.0016553359
-0.0021677803
-0.0023448507
-0.0027658987
-0.0030452155
-0.0034439277
-0.0037897858
-0.0042009772
-0.0046011982
-0.0050444992
-0.0054977115
-0.0059861568
-0.0064960792
-0.0070399703
-0.0076128333
-0.0082214591
-0.008864821
-0.0095471943
-0.01026936
-0.011034486
-0.011844168
-0.012701068
-0.013607122
-0.014564705
-0.015575848
-0.016642671
-0.017767135
-0.018951068
-0.020196169
-0.021503898
-0.022875512
-0.024311952
-0.025813847
-0.02738142
-0.029014454
-0.030712233
-0.032473435
-0.034296151
-0.036177705
-0.038114692
-0.040102823
-0.042136921
-0.044210819
-0.046317325
-0.048448165
-0.050593958
-0.052744178
-0.054887166
-0.057010135
-0.059099202
-0.061139458
-0.063115041
-0.065009252
-0.066804693
-0.068483426
-0.070027158
-0.071417459
-0.072635981
-0.073664708
-0.074486207
-0.075083892
-0.075442284
-0.075547272
-0.075386341
-0.07494886
-0.07422616
-0.073212001
-0.071902781
-0.070297067
-0.068396013
-0.066203458
-0.063725845
-0.060972274
-0.057954369
-0.054686186
-0.051184053
-0.047466341
-0.043553282
-0.039466603
-0.035229344
-0.030865389
-0.026399296
-0.021855763
-0.017259504
-0.012634693
-0.0080049011
-0.0033925899
0.0011809
0.0056957579
0.010133657
0.014478046
0.018714054
0.022828663
0.026810563
0.030650232
0.034339755
0.037872825
0.041244559
0.044451423
0.047491078
0.050362228
0.053064551
0.055598419
0.057965026
0.060165828
0.062203145
0.064078866
0.065796299
0.067356889
0.068765349
0.07002108
0.071131987
0.072091789
0.072916857
0.073586096
0.074138726
0.074515037
0.074815439
0.074881113
-0.0012634906
-1.9503287e-05
-0.0013105312
-0.00090833173
-0.0016508833
-0.0016375541
-0.0021450841
-0.002320039
-0.0027369916
-0.0030134382
-0.0034083403
-0.0037508978
-0.0041583169
-0.0045549501
-0.0049944043
-0.0054438097
-0.00592829
-0.0064342287
-0.0069740335
-0.0075427777
-0.0081472232
-0.0087863857
-0.0094645405
-0.010182503
-0.010943459
-0.011749041
-0.012601942
-0.013504143
-0.014458062
-0.015465786
-0.016529492
-0.017651208
-0.018832834
-0.02007615
-0.021382703
-0.022753845
-0.024190617
-0.025693756
-0.027263599
-0.028900045
-0.030602502
-0.03236977
-0.034200065
-0.03609083
-0.038038778
-0.040039728
-0.0420886
-0.044179309
-0.046304727
-0.04845662
-0.050625619
-0.052801181
-0.054971595
-0.05712398
-0.05924432
-0.061317529
-0.06332752
-0.065257327
-0.067089237
-0.068804956
-0.070385797
-0.071812901
-0.073067462
-0.074130988
-0.07498556
-0.075614102
-0.076000656
-0.076130642
-0.07599112
-0.075571049
-0.074861422
-0.073855689
-0.072550104
-0.070943101
-0.06903571
-0.06683176
-0.064337728
-0.061562839
-0.058518905
-0.055220247
-0.051683534
-0.047927531
-0.043972938
-0.039841987
-0.035558289
-0.031146299
-0.026631197
-0.022038274
-0.017392859
-0.012719684
-0.008042871
-0.0033853487
0.0012311019
0.0057863287
0.010261706
0.014640486
0.018907646
0.023050112
0.027056561
0.030917533
0.034625216
0.038173454
0.041557546
0.04477417
0.047821214
0.050697627
0.053403329
0.055938942
0.058305902
0.0605059
0.062541478
0.064414738
0.066129179
0.06768643
0.06909136
0.07034353
0.071450948
0.072407492
0.073229558
0.073896248
0.074446669
0.074821448
0.075120583
0.075185987
-0.0012506717
-1.7883181e-05
-0.0012952823
-0.00089610804
-0.0016304153
-0.0016163494
-0.0021179997
-0.0022904329
-0.0027024873
-0.0029755076
-0.0033658543
-0.0037044692
-0.0041073791
-0.0044997252
-0.0049345813
-0.0053794368
-0.0058591773
-0.0063603538
-0.006895273
-0.0074590922
-0.0080585383
-0.008692678
-0.0093657861
-0.010078719
-0.010834685
-0.011635359
-0.012483471
-0.013381055
-0.014330585
-0.015334208
-0.016394174
-0.01751259
-0.018691441
-0.019932606
-0.021237735
-0.022608293
-0.024045442
-0.02555005
-0.027122588
-0.0287631
-0.030471137
-0.03224565
-0.034085003
-0.035986787
-0.037947857
-0.03996416
-0.042030739
-0.044141607
-0.046289716
-0.048466883
-0.050663757
-0.052869777
-0.05507317
-0.057260948
-0.059418938
-0.061531839
-0.063583302
-0.065556035
-0.067431951
-0.069192326
-0.070817996
-0.072289585
-0.073587734
-0.074693376
-0.075588
-0.076253935
-0.07667464
-0.076834969
-0.076721459
-0.076322569
-0.075628882
-0.074633445
-0.073332323
-0.071723799
-0.069808735
-0.067590954
-0.065076966
-0.06227615
-0.059200548
-0.055864802
-0.052285995
-0.048483376
-0.044478223
-0.040293383
-0.035953169
-0.031482739
-0.026908039
-0.022255088
-0.017549973
-0.012818106
-0.0080842872
-0.0033720146
0.0012963921
0.0059003702
0.010420932
0.014841096
0.019145664
0.0233215
0.027357274
0.031243613
0.034972833
0.038538975
0.041937563
0.045165543
0.048221082
0.051103431
0.053812811
0.056350148
0.058717172
0.060915863
0.062949029
0.064819033
0.066529603
0.068082593
0.069483055
0.070730747
0.071833798
0.072786276
0.073604607
0.074268129
0.07481581
0.075188689
0.075486256
0.07555132
-0.0012357773
-1.5971915e-05
-0.0012775124
-0.00088184396
-0.0016065496
-0.0015916191
-0.0020864172
-0.0022559083
-0.002662251
-0.0029312731
-0.0033163043
-0.0036503157
-0.0040479594
-0.0044352957
-0.0048647764
-0.0053043092
-0.0057785022
-0.006274101
-0.006803294
-0.0073613363
-0.0079549134
-0.0085831508
-0.0092503224
-0.0099573328
-0.010707413
-0.01150229
-0.012344737
-0.013236848
-0.014181158
-0.015179892
-0.016235378
-0.017349818
-0.018525298
-0.019763808
-0.021067122
-0.022436837
-0.023874259
-0.025380407
-0.026955913
-0.028600988
-0.030315359
-0.032098152
-0.03394791
-0.0358624
-0.037838644
-0.039872751
-0.041959906
-0.044094246
-0.04626882
-0.048475512
-0.050704997
-0.052946697
-0.055188773
-0.057418114
-0.059620363
-0.061779976
-0.063880288
-0.065903633
-0.067831475
-0.069644586
-0.071323237
-0.072847437
-0.074197172
-0.075352689
-0.076294775
-0.077005053
-0.077466291
-0.077662666
-0.0775801
-0.077206452
-0.076531838
-0.075548806
-0.07425319
-0.07264311
-0.070719225
-0.068485347
-0.065948024
-0.063116809
-0.060004014
-0.056624655
-0.052996303
-0.049138774
-0.045074027
-0.040825641
-0.036418759
-0.031879373
-0.027234345
-0.022510555
-0.017735001
-0.012933899
-0.0081328655
-0.0033560693
0.0013735251
0.0060348715
0.010608552
0.015077314
0.019425752
0.023640667
0.027710723
0.031626657
0.035380945
0.038967867
0.042383217
0.045624264
0.04868951
0.051578564
0.054292005
0.056831123
0.059197993
0.061394936
0.063425078
0.065291083
0.066996951
0.068544801
0.069939895
0.071182225
0.072280058
0.073227688
0.074041572
0.074701326
0.075245751
0.075616373
0.075912079
0.075976743
-0.0012188485
-1.3813249e-05
-0.0012573023
-0.00086563483
-0.0015794028
-0.0015634968
-0.0020504878
-0.0022166338
-0.0026164688
-0.0028809394
-0.0032599135
-0.0035886805
-0.0039803213
-0.0043619465
-0.0047852967
-0.0052187579
-0.0056866198
-0.0061758507
-0.0066985034
-0.0072499443
-0.0078368111
-0.0084582961
-0.0091186717
-0.0098188965
-0.010562228
-0.011350451
-0.012186388
-0.013072201
-0.014010497
-0.015003583
-0.016053882
-0.0171637
-0.01833524
-0.01957062
-0.020871753
-0.02224039
-0.023677999
-0.025185774
-0.026764533
-0.028414681
-0.030136144
-0.031928255
-0.033789762
-0.035718636
-0.037712099
-0.039766446
-0.041877032
-0.044038141
-0.046242941
-0.048483395
-0.050750218
-0.053032818
-0.055319284
-0.057596372
-0.059849519
-0.062062903
-0.064219503
-0.066301219
-0.068289003
-0.070163044
-0.071902959
-0.073488046
-0.074897528
-0.076110859
-0.077108006
-0.07786977
-0.078378111
-0.07861642
-0.0785699
-0.078225708
-0.077573417
-0.076604973
-0.07531593
-0.073704231
-0.071770281
-0.069517882
-0.066953617
-0.064087241
-0.060931371
-0.057501458
-0.053815639
-0.049894386
-0.04576046
-0.041438286
-0.03695399
-0.032334536
-0.02760787
-0.022801877
-0.017944634
-0.013063295
-0.00818444
-0.0033330177
0.0014672497
0.0061947604
0.010829595
0.015354198
0.019752931
0.02401253
0.028121668
0.032071223
0.035853866
0.039464168
0.042898251
0.046153765
0.049229611
0.052125819
0.05484339
0.057384036
0.059750239
0.061944714
0.063970953
0.065831973
0.067532083
0.069073707
0.070462351
0.07169827
0.072789894
0.073731769
0.074540388
0.075195689
0.075736271
0.076104231
0.076397744
0.076461933
-0.0011998759
-1.137864e-05
-0.0012346181
-0.00084743334
-0.0015489247
-0.0015319232
-0.002010148
-0.0021725377
-0.0025650622
-0.0028244186
-0.0031965838
-0.003519453
-0.0039043401
-0.0042795363
-0.0046959818
-0.0051225999
-0.005583322
-0.0060653663
-0.006580632
-0.0071246105
-0.0077038845
-0.0083177212
-0.0089703903
-0.0096629102
-0.010398569
-0.011179213
-0.01200772
-0.01288633
-0.013817725
-0.014804311
-0.015848613
-0.016953055
-0.01811997
-0.019351622
-0.020650081
-0.02201727
-0.023454843
-0.024964193
-0.026546349
-0.028201936
-0.029931111
-0.031733442
-0.033607916
-0.03555274
-0.037565366
-0.039642308
-0.041779121
-0.043970263
-0.046209044
-0.04848753
-0.050796485
-0.053125313
-0.05546203
-0.057793246
-0.060104174
-0.062378679
-0.064599339
-0.066747561
-0.068803717
-0.070747328
-0.072557261
-0.074212
-0.075689893
-0.076969476
-0.078029775
-0.078850645
-0.079413117
-0.079699673
-0.079694691
-0.079384516
-0.078758109
-0.077806703
-0.076525521
-0.074912321
-0.072967206
-0.070693963
-0.068099212
-0.065192927
-0.061988076
-0.058500592
-0.054749261
-0.0507553
-0.046542391
-0.042135925
-0.037563167
-0.032852198
-0.028032222
-0.023132283
-0.018181715
-0.013208754
-0.0082411009
-0.0033045986
0.0015761502
0.006378913
0.011083194
0.015671101
0.020126731
0.024436767
0.028589898
0.032577179
0.036391519
0.040027834
0.043482631
0.046754009
0.049841329
0.052745116
0.055466854
0.058008742
0.060373727
0.062564976
0.064586398
0.06644141
0.068134675
0.069668958
0.071050041
0.072278478
0.073362877
0.074298074
0.075100596
0.075750745
0.076286889
0.076651777
0.076942761
0.077006407
-0.0011788867
-8.7031269e-06
-0.0012095247
-0.00082731794
-0.0015152137
-0.0014970114
-0.0019655273
-0.0021237652
-0.0025081922
-0.0027618872
-0.0031265078
-0.0034428421
-0.003820241
-0.0041883069
-0.0045970904
-0.0050161111
-0.0054689018
-0.0059429577
-0.0064500068
-0.0069856785
-0.0075564939
-0.0081618023
-0.0088058696
-0.0094897798
-0.010216853
-0.010989005
-0.011809174
-0.012679681
-0.013603298
-0.014582533
-0.015620027
-0.016718335
-0.017879935
-0.019107248
-0.020402523
-0.021767874
-0.023205163
-0.024716006
-0.026301666
-0.02796302
-0.029700483
-0.031513891
-0.033402499
-0.035364788
-0.03739847
-0.039500312
-0.041666101
-0.043890502
-0.046166991
-0.04848776
-0.05084364
-0.053224042
-0.055616909
-0.0580087
-0.060384381
-0.062727476
-0.065020118
-0.067243165
-0.069376336
-0.071398399
-0.073287378
-0.075020829
-0.076576107
-0.077930709
-0.079062587
-0.079950517
-0.080574469
-0.080915894
-0.080958224
-0.080686881
-0.080090129
-0.079158371
-0.077886438
-0.076271898
-0.074314493
-0.072017989
-0.069389038
-0.066437852
-0.063177789
-0.059625321
-0.055799967
-0.051723781
-0.047421498
-0.042919606
-0.038246679
-0.03343207
-0.028506443
-0.023500162
-0.01844402
-0.013367484
-0.0082995562
-0.0032670916
0.0017042916
0.0065916568
0.01137385
0.016032616
0.020551762
0.02491793
0.029119843
0.03314878
0.036997936
0.04066264
0.044139849
0.047428186
0.050527548
0.053439024
0.056164656
0.058707197
0.061070122
0.063257112
0.065272546
0.067120289
0.0688054
0.070331028
0.071703261
0.072922987
0.073999008
0.074926484
0.075721974
0.076366194
0.076897237
0.077258596
0.077546679
0.077609697
-0.0011558731
-5.7730673e-06
-0.001182005
-0.00080526674
-0.0014782472
-0.0014587359
-0.0019165992
-0.0020702863
-0.0024458258
-0.0026933077
-0.0030496424
-0.0033587969
-0.0037279641
-0.0040881871
-0.0044885373
-0.00489919
-0.0053432385
-0.0058084817
-0.0063064586
-0.0068329492
-0.007394406
-0.0079902675
-0.008624794
-0.0092991408
-0.010016662
-0.010779348
-0.011590201
-0.012451635
-0.013366514
-0.014337461
-0.015367242
-0.016458555
-0.017614037
-0.018836286
-0.020127744
-0.021490738
-0.022927359
-0.024439472
-0.026028604
-0.02769591
-0.029442096
-0.031267299
-0.03317108
-0.035152224
-0.037208748
-0.039337706
-0.041535154
-0.043795996
-0.046113911
-0.048481239
-0.050888904
-0.053326334
-0.055781409
-0.058240428
-0.060688097
-0.063107568
-0.065480483
-0.067787094
-0.070006389
-0.072116297
-0.07409389
-0.075915684
-0.07755791
-0.07899689
-0.080209361
-0.081172878
-0.081866209
-0.082269637
-0.082365523
-0.082138246
-0.081575285
-0.080666092
-0.079405035
-0.077789488
-0.07581878
-0.073496641
-0.070829758
-0.067828593
-0.064506939
-0.060881857
-0.056973684
-0.052805406
-0.048402949
-0.043794026
-0.039008711
-0.034077787
-0.029033594
-0.023907992
-0.018733454
-0.013540837
-0.0083606426
-0.0032208613
0.0018517237
0.006833397
0.011702258
0.016439666
0.021029108
0.025457207
0.029712742
0.033787273
0.03767433
0.041369735
0.044870964
0.048177246
0.051289094
0.054208243
0.056937362
0.059479836
0.061839734
0.064021309
0.066029467
0.067868574
0.069544126
0.071059697
0.072421712
0.073631427
0.074697857
0.075616518
0.076403999
0.077041476
0.077566728
0.077924083
0.078208878
0.078271188
-0.0011308532
-2.6196563e-06
-0.0011521137
-0.00078134911
-0.0014381123
-0.0014171985
-0.0018634811
-0.0020122331
-0.0023781099
-0.0026188413
-0.002966163
-0.0032675071
-0.0036277127
-0.0039793936
-0.0043705527
-0.0047720794
-0.0052065867
-0.0056622043
-0.0061502636
-0.006666708
-0.0072179139
-0.0078034158
-0.0084274668
-0.0090912981
-0.0097982995
-0.010550542
-0.011351096
-0.012202474
-0.01310764
-0.014069341
-0.015090478
-0.016173905
-0.01732243
-0.018538844
-0.019825802
-0.021185863
-0.022621371
-0.024134462
-0.025726956
-0.027400317
-0.029155574
-0.0309932
-0.032913098
-0.034914399
-0.036995461
-0.039153666
-0.04138538
-0.043685785
-0.046048794
-0.048466933
-0.050931243
-0.053431186
-0.055954591
-0.058487597
-0.061014635
-0.063518456
-0.065980171
-0.068379365
-0.07069422
-0.072901732
-0.074977913
-0.076898115
-0.078637312
-0.080170503
-0.081473061
-0.082521169
-0.083292237
-0.083765241
-0.083921329
-0.083743713
-0.083218986
-0.082335525
-0.081087154
-0.079471056
-0.077486077
-0.075135896
-0.072427229
-0.069370799
-0.06598087
-0.06227514
-0.058274863
-0.054004043
-0.049489952
-0.044761667
-0.03985097
-0.034790244
-0.029613761
-0.024355051
-0.019048531
-0.013726612
-0.008421524
-0.0031625187
0.0020222868
0.007108326
0.012072856
0.016896835
0.021563403
0.0260592
0.030373086
0.03449697
0.038424786
0.042152931
0.045679486
0.049004383
0.052128829
0.055055298
0.05778717
0.060328537
0.062684132
0.064858847
0.066858173
0.068687026
0.070351385
0.071855292
0.073205539
0.074403782
0.075459265
0.076367896
0.077146289
0.077776126
0.078294829
0.078647659
0.078928743
0.078990249
-0.0011038208
7.599037e-07
-0.0011198467
-0.00075556294
-0.001394809
-0.001372401
-0.0018061766
-0.0019496104
-0.0023050498
-0.0025384927
-0.0028760726
-0.0031689722
-0.0035194814
-0.0038619139
-0.0042431146
-0.0046347455
-0.0050588983
-0.0055040595
-0.0059813348
-0.0064868431
-0.0070268767
-0.0076010728
-0.0082136748
-0.0088659949
-0.0095614595
-0.010302224
-0.011091434
-0.011931702
-0.012826104
-0.013777517
-0.014788986
-0.015863534
-0.017004154
-0.018213848
-0.019495497
-0.020851916
-0.022285723
-0.023799356
-0.025394952
-0.027074318
-0.02883884
-0.030689364
-0.032626178
-0.034648798
-0.036755968
-0.038945443
-0.041213943
-0.043556971
-0.04596872
-0.048441935
-0.050967805
-0.053535857
-0.056133878
-0.058747852
-0.061361926
-0.063958425
-0.066517885
-0.069019164
-0.071439558
-0.073755032
-0.07594042
-0.07796978
-0.079816676
-0.081454634
-0.08285749
-0.083999894
-0.084857729
-0.085408509
-0.085632014
-0.085510169
-0.085028548
-0.084174354
-0.082940748
-0.081324718
-0.079324591
-0.076943953
-0.074189564
-0.071072402
-0.067607254
-0.063812494
-0.059710389
-0.055326055
-0.050688271
-0.045827616
-0.040777816
-0.035573026
-0.030249733
-0.024843329
-0.019390467
-0.013925286
-0.0084820024
-0.0030912605
0.0022172989
0.0074181885
0.012487716
0.017406432
0.022157102
0.026726428
0.031103386
0.035280316
0.039251628
0.043014395
0.046567396
0.049911364
0.053048302
0.055981515
0.058715181
0.061254181
0.063603989
0.065770204
0.067758956
0.069575771
0.071227153
0.072717651
0.074054456
0.075239659
0.076282749
0.077180058
0.077948216
0.078569465
0.07908082
0.079428575
0.079705502
0.079766111
-0.0010747882
4.3357263e-06
-0.0010852529
-0.00072797368
-0.0013484189
-0.0013244407
-0.0017447983
-0.0018825455
-0.002226787
-0.0024524174
-0.00277954
-0.0030633743
-0.0034034646
-0.0037359544
-0.0041064404
-0.0044874157
-0.0049004092
-0.0053342909
-0.0057999213
-0.0062936073
-0.006821549
-0.007383492
-0.0079836677
-0.0086234733
-0.0093063727
-0.010034611
-0.010811409
-0.01163949
-0.012522043
-0.013462086
-0.014462819
-0.015527442
-0.016659149
-0.017861164
-0.019136617
-0.020488598
-0.021920022
-0.023433653
-0.025031979
-0.026717178
-0.028491033
-0.030354801
-0.032309194
-0.034354163
-0.036488881
-0.038711528
-0.041019224
-0.043407846
-0.04587191
-0.048404426
-0.050996769
-0.05363856
-0.056317566
-0.059019627
-0.061728596
-0.064426354
-0.067092819
-0.06970606
-0.072242409
-0.074676695
-0.07698245
-0.079132297
-0.081098234
-0.082852141
-0.084366142
-0.085613176
-0.086567413
-0.087204745
-0.087503411
-0.087443921
-0.087010695
-0.086189651
-0.084973163
-0.083358028
-0.081341998
-0.078928525
-0.07612441
-0.072940877
-0.069393273
-0.065500687
-0.061286496
-0.056777015
-0.052002714
-0.046995813
-0.041792248
-0.036428135
-0.030942499
-0.025372802
-0.01975827
-0.014134957
-0.008539368
-0.0030036706
0.0024407517
0.0077674276
0.012951597
0.017973408
0.022815228
0.027463881
0.031908505
0.036141969
0.040159248
0.043958206
0.047538424
0.050901554
0.054050499
0.056989502
0.059723631
0.062258649
0.064600846
0.066756599
0.068732744
0.070535465
0.072171839
0.073646964
0.07496846
0.076138885
0.077167985
0.078052551
0.078809224
0.07942085
0.079923987
0.08026607
0.080538358
0.080597963
-0.0010437506
8.1021725e-06
-0.001048339
-0.00069859529
-0.0012989606
-0.0012733421
-0.0016793755
-0.0018110726
-0.0021433596
-0.0023606564
-0.002676608
-0.0029507562
-0.0032797038
-0.0036015531
-0.0039605627
-0.0043301146
-0.0047311335
-0.0051528985
-0.0056060063
-0.0060869629
-0.0066018675
-0.0071505805
-0.0077373177
-0.008363565
-0.0090328241
-0.0097474329
-0.010510693
-0.011325441
-0.012194986
-0.013122493
-0.014111327
-0.015164876
-0.016286547
-0.017479804
-0.018748043
-0.020094646
-0.021522854
-0.023035781
-0.024636297
-0.026326988
-0.028110069
-0.029987251
-0.031959716
-0.034027897
-0.03619145
-0.038449032
-0.040798221
-0.04323532
-0.045755224
-0.048351258
-0.05101503
-0.053736292
-0.056502821
-0.059300325
-0.062112366
-0.064920362
-0.067703573
-0.07043922
-0.073102582
-0.075667245
-0.078105308
-0.080387804
-0.082484988
-0.084366916
-0.086003796
-0.087366661
-0.088427765
-0.089161203
-0.089543473
-0.089553556
-0.089174504
-0.088390961
-0.087194265
-0.085580995
-0.083548383
-0.081099636
-0.078241638
-0.074985827
-0.07134816
-0.067348466
-0.063011341
-0.058364379
-0.053439939
-0.048272018
-0.042899064
-0.037359339
-0.031694789
-0.025945146
-0.020152613
-0.014355345
-0.0085924835
-0.002897853
0.0026951686
0.0081590723
0.013467895
0.018601406
0.023541544
0.028275343
0.03279215
0.037085488
0.041150989
0.044987449
0.048595362
0.051977435
0.055137581
0.058081097
0.060814045
0.063343164
0.065675641
0.067818708
0.069779964
0.071566314
0.073185449
0.07464306
0.075947221
0.077100992
0.078114389
0.078984694
0.079728545
0.080329449
0.080823444
0.081159223
0.081426362
0.081484853
-0.0010107169
1.2029019e-05
-0.0010091513
-0.00066749305
-0.0012465149
-0.0012192033
-0.0016100214
-0.0017353205
-0.0020549111
-0.0022633677
-0.002567448
-0.0028313026
-0.0031483958
-0.0034589183
-0.0038056996
-0.0041630692
-0.0045513052
-0.0049601219
-0.0053998321
-0.0058671527
-0.0063680731
-0.0069025734
-0.0074748503
-0.0080864819
-0.0087410071
-0.0094408602
-0.010189424
-0.010989656
-0.011844988
-0.012758741
-0.013734451
-0.014775707
-0.015886139
-0.017069466
-0.018329367
-0.019669539
-0.02109357
-0.022604956
-0.024206974
-0.025902657
-0.02769469
-0.029585283
-0.031576137
-0.033668217
-0.035861719
-0.038155836
-0.040548665
-0.043036996
-0.045616165
-0.048279871
-0.051020007
-0.053826505
-0.056687185
-0.059587649
-0.062511172
-0.065438694
-0.068348783
-0.071217751
-0.074019734
-0.076726963
-0.07930996
-0.081738004
-0.083979422
-0.086002241
-0.087774539
-0.089265231
-0.090444433
-0.091284253
-0.091759235
-0.091846708
-0.091528141
-0.090786908
-0.089613058
-0.08800293
-0.08595327
-0.083466936
-0.0805509
-0.077216782
-0.073481178
-0.069364673
-0.064893184
-0.060095653
-0.055006547
-0.049661778
-0.044102654
-0.038369775
-0.032508458
-0.026560923
-0.020572827
-0.014584615
-0.0086384868
-0.0027700485
0.0029850315
0.0085981665
0.014042038
0.01929608
0.02434178
0.029166486
0.033759824
0.038116111
0.042231757
0.04610664
0.049742306
0.053142659
0.056312752
0.059259063
0.061988756
0.064509647
0.066829908
0.068957704
0.070901464
0.072668867
0.074268264
0.07570598
0.07699057
0.078125629
0.079121452
0.079975843
0.080705426
0.081294418
0.081778276
0.082107069
0.082368508
0.082425764
-0.0009756832
1.6103622e-05
-0.00096770544
-0.00063469469
-0.0011911163
-0.0011620689
-0.0015367882
-0.0016553499
-0.0019615085
-0.0021606248
-0.0024521384
-0.0027050955
-0.0030096243
-0.0033081336
-0.0036419329
-0.0039863566
-0.0043609942
-0.0047560205
-0.0051814445
-0.005634205
-0.0061201719
-0.00663945
-0.0071962129
-0.0077921334
-0.0084307866
-0.009114706
-0.0098473579
-0.010631822
-0.011471661
-0.012370355
-0.01333162
-0.014359255
-0.015457126
-0.01662922
-0.017879517
-0.019212052
-0.02063078
-0.022139606
-0.023742252
-0.025442232
-0.027242741
-0.029146537
-0.03115589
-0.033272355
-0.035496728
-0.037828802
-0.040267262
-0.042809455
-0.045451227
-0.048186721
-0.051008178
-0.053905764
-0.056867391
-0.059878586
-0.06292235
-0.065979139
-0.069026795
-0.072040661
-0.07499364
-0.077856488
-0.080597994
-0.083185508
-0.085585216
-0.087762899
-0.089684259
-0.091315861
-0.09262543
-0.093582878
-0.094160548
-0.09433401
-0.094082777
-0.093389281
-0.092241741
-0.090636118
-0.088569
-0.086042652
-0.083064202
-0.079645386
-0.075803485
-0.071559839
-0.066941802
-0.061979716
-0.056710403
-0.051171805
-0.045408499
-0.0394636
-0.03338633
-0.027221606
-0.021019104
-0.014821748
-0.0086752896
-0.0026172309
0.0033141209
0.0090890824
0.014678803
0.020062455
0.025221044
0.030142376
0.034816427
0.039238487
0.043405874
0.04731973
0.050982797
0.054400342
0.057578699
0.060525665
0.06324962
0.06575957
0.06806476
0.070174371
0.072097725
0.073843333
0.075420251
0.076835476
0.078098073
0.0792122
0.080188439
0.081025149
0.081738918
0.082314733
0.082787398
0.083108483
0.083363641
0.083419537
-0.00093865576
2.0294163e-05
-0.0009240478
-0.00060026809
-0.0011328485
-0.0011020413
-0.0014597944
-0.0015712965
-0.0018633034
-0.0020525947
-0.0023308607
-0.0025723303
-0.0028635977
-0.0031494191
-0.0034694927
-0.0038002158
-0.0041604465
-0.0045408451
-0.0049510964
-0.0053883718
-0.0058584119
-0.0063614503
-0.0069016329
-0.0074807291
-0.0081023489
-0.0087691268
-0.0094846132
-0.010252014
-0.011075024
-0.011957291
-0.012902715