/*--------------------------------*- C++ -*----------------------------------*\
| =========                 |                                                 |
| \\      /  F ield         | foam-extend: Open Source CFD                    |
|  \\    /   O peration     | Version:     4.1                                |
|   \\  /    A nd           | Web:         http://www.foam-extend.org         |
|    \\/     M anipulation  |                                                 |
\*---------------------------------------------------------------------------*/
FoamFile
{
    version     2.0;
    format      ascii;
    class       surfaceScalarField;
    location    "1.2";
    object      phi;
}
// * * * * * * * * * * * * * * * * * * * * * * * * * * * * * * * * * * * * * //

dimensions      [0 3 -1 0 0 0 0];

internalField   nonuniform List<scalar> 
32976
(
-0.0016216282
7.9151705e-07
-0.0016224539
8.2564227e-07
-0.0016233087
8.5486412e-07
-0.0016242007
8.9198548e-07
-0.0016251287
9.2795789e-07
-0.0016260975
9.6885116e-07
-0.0016271082
1.0106308e-06
-0.0016281642
1.0560601e-06
-0.0016292676
1.1033387e-06
-0.0016304213
1.1537543e-06
-0.0016316278
1.2065192e-06
-0.0016328901
1.2622649e-06
-0.0016342108
1.3206662e-06
-0.0016355928
1.3820652e-06
-0.0016370392
1.446348e-06
-0.0016385529
1.5137282e-06
-0.0016401371
1.584184e-06
-0.001641795
1.6578664e-06
-0.0016435297
1.7347841e-06
-0.0016453448
1.8150472e-06
-0.0016472434
1.8986584e-06
-0.0016492291
1.9856882e-06
-0.0016513052
2.0761079e-06
-0.0016534752
2.1699408e-06
-0.0016557423
2.2671083e-06
-0.0016581099
2.3675765e-06
-0.0016605811
2.4712016e-06
-0.0016631589
2.5778824e-06
-0.0016658463
2.6873968e-06
-0.0016686459
2.7995648e-06
-0.00167156
2.9140724e-06
-0.0016745906
3.0306339e-06
-0.0016777395
3.148876e-06
-0.0016810078
3.2683243e-06
-0.0016843963
3.3885274e-06
-0.0016879052
3.5088542e-06
-0.0016915339
3.6287029e-06
-0.0016952812
3.7472702e-06
-0.0016991449
3.8637775e-06
-0.0017031222
3.9772266e-06
-0.0017072088
4.0866442e-06
-0.0017113997
4.1908313e-06
-0.0017156882
4.2885941e-06
-0.0017200668
4.3785839e-06
-0.0017245262
4.4593912e-06
-0.0017290558
4.5295337e-06
-0.0017336432
4.5874767e-06
-0.0017382749
4.6316655e-06
-0.0017429354
4.6605338e-06
-0.001747608
4.6725534e-06
-0.0017522742
4.6662594e-06
-0.0017569145
4.6402877e-06
-0.0017615079
4.5934103e-06
-0.0017660325
4.5245797e-06
-0.0017704655
4.4329426e-06
-0.0017747833
4.3178857e-06
-0.0017789624
4.1790468e-06
-0.0017829787
4.0163276e-06
-0.0017868086
3.8298938e-06
-0.0017904288
3.6201744e-06
-0.0017938166
3.3878274e-06
-0.0017969503
3.1337283e-06
-0.0017998093
2.8589291e-06
-0.0018023739
2.5646229e-06
-0.001804626
2.2521072e-06
-0.0018065488
1.9227505e-06
-0.0018081267
1.5779711e-06
-0.0018093459
1.2192127e-06
-0.0018101939
8.4795142e-07
-0.0018106596
4.6570122e-07
-0.0018107336
7.4029144e-08
-0.0018104082
-3.2538412e-07
-0.0018096775
-7.3074728e-07
-0.0018085373
-1.1401463e-06
-0.0018069859
-1.551465e-06
-0.0018050235
-1.9623692e-06
-0.0018026532
-2.3703063e-06
-0.0017998807
-2.7725023e-06
-0.0017967147
-3.166004e-06
-0.001793167
-3.5477082e-06
-0.0017892525
-3.9144435e-06
-0.0017849895
-4.2630393e-06
-0.0017803991
-4.5904119e-06
-0.0017755054
-4.8936613e-06
-0.0017703353
-5.1701472e-06
-0.0017649177
-5.4175789e-06
-0.0017592836
-5.6340671e-06
-0.0017534655
-5.8181843e-06
-0.0017474965
-5.9689795e-06
-0.0017414105
-6.0860014e-06
-0.0017352412
-6.1692852e-06
-0.0017290219
-6.2193189e-06
-0.0017227849
-6.2370132e-06
-0.0017165612
-6.2236563e-06
-0.0017103804
-6.1808445e-06
-0.0017042699
-6.1104376e-06
-0.0016982554
-6.0144826e-06
-0.0016923603
-5.8951787e-06
-0.0016866055
-5.7547871e-06
-0.0016810099
-5.5956137e-06
-0.0016755899
-5.4199438e-06
-0.0016703599
-5.230012e-06
-0.0016653319
-5.0279611e-06
-0.0016605161
-4.8158302e-06
-0.0016559206
-4.5955081e-06
-0.0016515519
-4.3687418e-06
-0.0016474148
-4.1371114e-06
-0.0016435127
-3.9020277e-06
-0.001639848
-3.6647258e-06
-0.0016364217
-3.4262744e-06
-0.0016332342
-3.1875616e-06
-0.0016302848
-2.9493191e-06
-0.0016275727
-2.7121187e-06
-0.0016250963
-2.4763885e-06
-0.0016228539
-2.2424161e-06
-0.0016208435
-2.0103767e-06
-0.0016190632
-1.7803186e-06
-0.001617511
-1.5522139e-06
-0.0016161851
-1.3259212e-06
-0.0016150838
-1.1012695e-06
-0.0016142059
-8.7795578e-07
-0.0016135501
-6.5573677e-07
-0.001613116
-4.3414911e-07
-2.1297768e-07
-0.0016216116
1.5816284e-06
-0.0016224359
1.6499548e-06
-0.0016232894
1.7083501e-06
-0.00162418
1.7826395e-06
-0.0016251066
1.8545464e-06
-0.0016260741
1.9363554e-06
-0.0016270834
2.0198961e-06
-0.0016281381
2.1107661e-06
-0.0016292401
2.2053161e-06
-0.0016303925
2.3061543e-06
-0.0016315976
2.4116824e-06
-0.0016328586
2.5231782e-06
-0.0016341779
2.6399806e-06
-0.0016355586
2.7627805e-06
-0.0016370036
2.8913448e-06
-0.001638516
3.0261036e-06
-0.0016400988
3.1670109e-06
-0.0016417553
3.3143702e-06
-0.0016434887
3.4681982e-06
-0.0016453024
3.6287164e-06
-0.0016471996
3.7959305e-06
-0.0016491839
3.9699831e-06
-0.0016512587
4.1508183e-06
-0.0016534272
4.3384854e-06
-0.0016556929
4.5328291e-06
-0.0016580591
4.7337851e-06
-0.001660529
4.9410689e-06
-0.0016631056
5.1544816e-06
-0.0016657918
5.3735828e-06
-0.0016685902
5.5980162e-06
-0.0016715033
5.8271575e-06
-0.0016745331
6.0604387e-06
-0.0016776814
6.2971168e-06
-0.0016809493
6.5362457e-06
-0.0016843377
6.7769257e-06
-0.0016878467
7.0178967e-06
-0.001691476
7.2579571e-06
-0.0016952242
7.4955016e-06
-0.0016990894
7.7289746e-06
-0.0017030686
7.9563799e-06
-0.0017071577
8.1757713e-06
-0.0017113516
8.3847504e-06
-0.0017156439
8.5809284e-06
-0.001720027
8.7616065e-06
-0.0017244915
8.9239626e-06
-0.001729027
9.0650287e-06
-0.0017336213
9.1817309e-06
-0.0017382606
9.2709539e-06
-0.0017429296
9.3295577e-06
-0.0017476115
9.3544776e-06
-0.001752288
9.3427736e-06
-0.0017569395
9.2917062e-06
-0.0017615448
9.1988063e-06
-0.0017660822
9.0619649e-06
-0.0017705288
8.8794599e-06
-0.0017748609
8.6500487e-06
-0.0017790549
8.3729897e-06
-0.0017830866
8.0480691e-06
-0.0017869323
7.6756014e-06
-0.0017905686
7.2564285e-06
-0.0017939726
6.7918506e-06
-0.0017971225
6.2836057e-06
-0.0017999973
5.7337863e-06
-0.0018025775
5.14477e-06
-0.0018048445
4.5191468e-06
-0.0018067814
3.8596517e-06
-0.0018083726
3.1691239e-06
-0.0018096038
2.4504571e-06
-0.0018104625
1.7066149e-06
-0.0018109374
9.4063849e-07
-0.0018110191
1.5568804e-07
-0.0018106996
-6.4486197e-07
-0.0018099729
-1.4574018e-06
-0.001808835
-2.2780676e-06
-0.0018072839
-3.1026047e-06
-0.0018053199
-3.9263132e-06
-0.0018029462
-4.7440592e-06
-0.0018001684
-5.5502649e-06
-0.0017969954
-6.3389965e-06
-0.0017934391
-7.104022e-06
-0.0017895146
-7.8389758e-06
-0.0017852401
-8.5374969e-06
-0.0017806371
-9.1934013e-06
-0.0017757299
-9.800876e-06
-0.0017705454
-1.0354631e-05
-0.0017651129
-1.0850079e-05
-0.0017594636
-1.128344e-05
-0.0017536299
-1.1651861e-05
-0.0017476454
-1.1953446e-05
-0.0017415441
-1.2187302e-05
-0.0017353599
-1.2353513e-05
-0.0017291261
-1.2453069e-05
-0.0017228753
-1.2487812e-05
-0.0017166387
-1.2460336e-05
-0.0017104456
-1.2373858e-05
-0.001704324
-1.2232118e-05
-0.0016982992
-1.2039231e-05
-0.0016923948
-1.1799619e-05
-0.0016866317
-1.1517821e-05
-0.0016810289
-1.119847e-05
-0.0016756027
-1.0846151e-05
-0.0016703673
-1.0465347e-05
-0.0016653349
-1.0060356e-05
-0.0016605155
-9.6352645e-06
-0.0016559172
-9.1938572e-06
-0.0016515463
-8.7396327e-06
-0.0016474076
-8.275754e-06
-0.0016435046
-7.8050438e-06
-0.0016398394
-7.3299715e-06
-0.001636413
-6.8526727e-06
-0.0016332256
-6.3749212e-06
-0.0016302768
-5.8981766e-06
-0.0016275653
-5.4235783e-06
-0.0016250897
-4.9519781e-06
-0.0016228482
-4.4839459e-06
-0.0016208387
-4.0198275e-06
-0.0016190593
-3.5597138e-06
-0.001617508
-3.1035447e-06
-0.0016161829
-2.6510308e-06
-0.0016150823
-2.2018275e-06
-0.001614205
-1.7553198e-06
-0.0016135497
-1.3110222e-06
-0.0016131158
-8.6799376e-07
-4.2581209e-07
-0.0016215795
2.3691503e-06
-0.0016224012
2.4716049e-06
-0.001623252
2.5591758e-06
-0.0016241399
2.6706052e-06
-0.0016250638
2.7784406e-06
-0.0016260286
2.901153e-06
-0.0016270352
3.0264501e-06
-0.0016280872
3.1627559e-06
-0.0016291864
3.3045755e-06
-0.0016303361
3.4558351e-06
-0.0016315386
3.614126e-06
-0.0016327968
3.7813712e-06
-0.0016341134
3.9565731e-06
-0.0016354913
4.1407703e-06
-0.0016369336
4.3336102e-06
-0.0016384432
4.5357385e-06
-0.0016400233
4.7470852e-06
-0.0016416771
4.968106e-06
-0.0016434077
5.1988266e-06
-0.0016452185
5.4395807e-06
-0.001647113
5.6903794e-06
-0.0016490945
5.9514397e-06
-0.0016511663
6.2226824e-06
-0.001653332
6.5041867e-06
-0.0016555949
6.7957263e-06
-0.0016579583
7.097212e-06
-0.0016604255
7.4082251e-06
-0.0016629995
7.728476e-06
-0.0016656832
8.0573133e-06
-0.0016684794
8.3942117e-06
-0.0016713905
8.738244e-06
-0.0016744186
9.0885671e-06
-0.0016775656
9.4440746e-06
-0.0016808327
9.8033552e-06
-0.0016842208
1.0165066e-05
-0.0016877303
1.0527324e-05
-0.0016913606
1.088833e-05
-0.0016951108
1.1245681e-05
-0.0016989789
1.1597046e-05
-0.0017029619
1.1939433e-05
-0.0017070561
1.2269924e-05
-0.0017112563
1.2584918e-05
-0.0017155562
1.288083e-05
-0.0017199482
1.3153607e-05
-0.0017244232
1.3399009e-05
-0.0017289708
1.3612575e-05
-0.0017335787
1.378968e-05
-0.0017382334
1.3925637e-05
-0.0017429196
1.4015717e-05
-0.0017476204
1.40553e-05
-0.0017523176
1.4039951e-05
-0.0017569914
1.3965532e-05
-0.0017616209
1.3828306e-05
-0.001766184
1.3625075e-05
-0.0017706577
1.3353218e-05
-0.0017750185
1.3010831e-05
-0.0017792423
1.259676e-05
-0.0017833049
1.2110643e-05
-0.0017871822
1.1552911e-05
-0.0017908505
1.0924787e-05
-0.0017942869
1.0228186e-05
-0.001797469
9.4656814e-06
-0.0018003755
8.6403854e-06
-0.0018029866
7.7558442e-06
-0.0018052834
6.8159303e-06
-0.0018072485
5.824743e-06
-0.0018088659
4.7865471e-06
-0.0018101212
3.7056992e-06
-0.0018110012
2.5866715e-06
-0.0018114946
1.4340591e-06
-0.0018115916
2.526521e-07
-0.001811284
-9.5245689e-07
-0.0018105656
-2.1757923e-06
-0.0018094322
-3.4114716e-06
-0.0018078818
-4.6530442e-06
-0.0018059147
-5.8933816e-06
-0.0018035341
-7.1247088e-06
-0.0018007457
-8.3385858e-06
-0.0017975587
-9.5260425e-06
-0.001793985
-1.0677667e-05
-0.0017900402
-1.1783851e-05
-0.0017857427
-1.2835003e-05
-0.0017811143
-1.3821803e-05
-0.0017761796
-1.4735497e-05
-0.0017709662
-1.5568123e-05
-0.0017655034
-1.6312787e-05
-0.0017598231
-1.6963809e-05
-0.001753958
-1.7516916e-05
-0.0017479422
-1.7969278e-05
-0.0017418099
-1.831958e-05
-0.0017355954
-1.8567979e-05
-0.0017293325
-1.8716005e-05
-0.0017230539
-1.8766463e-05
-0.0017167909
-1.8723303e-05
-0.0017105733
-1.8591399e-05
-0.001704429
-1.8376423e-05
-0.0016983837
-1.8084601e-05
-0.0016924607
-1.7722621e-05
-0.0016866811
-1.7297344e-05
-0.0016810639
-1.6815762e-05
-0.0016756252
-1.6284797e-05
-0.0016703793
-1.5711208e-05
-0.0016653382
-1.5101468e-05
-0.0016605118
-1.4461733e-05
-0.0016559079
-1.3797696e-05
-0.0016515329
-1.3114615e-05
-0.0016473915
-1.2417242e-05
-0.0016434867
-1.1709813e-05
-0.0016398206
-1.099603e-05
-0.0016363942
-1.0279092e-05
-0.0016332075
-9.5616519e-06
-0.0016302598
-8.8458903e-06
-0.0016275498
-8.1335052e-06
-0.0016250761
-7.4257625e-06
-0.0016228365
-6.7235046e-06
-0.0016208291
-6.0272375e-06
-0.0016190517
-5.3370843e-06
-0.0016175023
-4.6529426e-06
-0.001616179
-3.9743646e-06
-0.00161508
-3.300823e-06
-0.0016142039
-2.63138e-06
-0.0016135497
-1.9653005e-06
-0.0016131165
-1.3011542e-06
-6.383068e-07
-0.0016215297
3.1528101e-06
-0.0016223473
3.2892943e-06
-0.0016231942
3.4060518e-06
-0.0016240782
3.554581e-06
-0.0016249981
3.6983376e-06
-0.0016259589
3.8619331e-06
-0.0016269614
4.0289778e-06
-0.0016280094
4.2107084e-06
-0.0016291046
4.399791e-06
-0.0016302502
4.601465e-06
-0.0016314486
4.8125127e-06
-0.0016327027
5.0355001e-06
-0.0016340152
5.269093e-06
-0.0016353891
5.514676e-06
-0.0016368273
5.7717766e-06
-0.0016383328
6.0412556e-06
-0.0016399088
6.3230186e-06
-0.0016415583
6.6176743e-06
-0.0016432848
6.9252581e-06
-0.0016450914
7.2462185e-06
-0.0016469816
7.5805742e-06
-0.0016489588
7.9286213e-06
-0.0016510264
8.2902622e-06
-0.0016531878
8.6656123e-06
-0.0016554464
9.0543816e-06
-0.0016578057
9.4564645e-06
-0.0016602688
9.8713175e-06
-0.0016628389
1.029857e-05
-0.0016655189
1.0737371e-05
-0.0016683118
1.1187035e-05
-0.0016712199
1.1646345e-05
-0.0016742455
1.211419e-05
-0.0016773905
1.2589113e-05
-0.0016806564
1.3069245e-05
-0.0016840441
1.3552808e-05
-0.0016875541
1.4037304e-05
-0.0016911861
1.4520343e-05
-0.0016949392
1.4998729e-05
-0.0016988115
1.5469361e-05
-0.0017028003
1.5928253e-05
-0.0017069019
1.6371512e-05
-0.0017111113
1.679434e-05
-0.0017154225
1.7191949e-05
-0.0017198278
1.7558928e-05
-0.0017243184
1.788961e-05
-0.0017288838
1.8178028e-05
-0.0017335121
1.8417995e-05
-0.0017381897
1.8603231e-05
-0.0017429014
1.8727396e-05
-0.0017476304
1.878429e-05
-0.0017523584
1.8767951e-05
-0.0017570657
1.8672807e-05
-0.0017617312
1.8493816e-05
-0.0017663328
1.8226646e-05
-0.0017708473
1.7867733e-05
-0.0017752509
1.7414462e-05
-0.0017795194
1.6865219e-05
-0.0017836282
1.6219442e-05
-0.0017875529
1.5477629e-05
-0.0017912694
1.4641336e-05
-0.0017947543
1.3713046e-05
-0.0017979847
1.269613e-05
-0.001800939
1.1594685e-05
-0.0018035966
1.0413402e-05
-0.0018059381
9.1574189e-06
-0.0018079455
7.832194e-06
-0.0018096024
6.443425e-06
-0.0018108937
4.9969498e-06
-0.0018118058
3.4987821e-06
-0.0018123268
1.9551134e-06
-0.0018124466
3.7242352e-07
-0.0018121566
-1.2424173e-06
-0.0018114504
-2.8819881e-06
-0.0018103236
-4.5382991e-06
-0.001808774
-6.2026233e-06
-0.0018068021
-7.865312e-06
-0.001804411
-9.5158626e-06
-0.0018016067
-1.1142885e-05
-0.0017983984
-1.2734292e-05
-0.0017947987
-1.4277412e-05
-0.0017908232
-1.5759328e-05
-0.001786491
-1.7167154e-05
-0.0017818245
-1.848838e-05
-0.0017768487
-1.9711269e-05
-0.0017715917
-2.0825155e-05
-0.0017660836
-2.1820816e-05
-0.0017603568
-2.2690668e-05
-0.0017544447
-2.342902e-05
-0.0017483818
-2.4032124e-05
-0.0017422031
-2.4498274e-05
-0.0017359434
-2.482774e-05
-0.0017296367
-2.5022639e-05
-0.0017233164
-2.5086803e-05
-0.0017170141
-2.5025593e-05
-0.0017107599
-2.4845616e-05
-0.0017045818
-2.4554538e-05
-0.0016985056
-2.4160769e-05
-0.0016925549
-2.3673325e-05
-0.0016867508
-2.3101453e-05
-0.001681112
-2.2454561e-05
-0.0016756548
-2.1741953e-05
-0.0016703933
-2.0972708e-05
-0.0016653393
-2.0155512e-05
-0.0016605024
-1.9298612e-05
-0.0016558905
-1.8409631e-05
-0.0016515095
-1.7495603e-05
-0.0016473639
-1.6562873e-05
-0.0016434566
-1.5617094e-05
-0.0016397894
-1.4663198e-05
-0.0016363631
-1.3705442e-05
-0.0016331774
-1.2747347e-05
-0.0016302314
-1.1791805e-05
-0.0016275239
-1.0841059e-05
-0.0016250529
-9.896774e-06
-0.0016228163
-8.9600503e-06
-0.001620812
-8.0315388e-06
-0.0016190377
-7.1113788e-06
-0.0016174913
-6.1994107e-06
-0.0016161706
-5.2950125e-06
-0.001615074
-4.3974598e-06
-0.0016141999
-3.5054768e-06
-0.0016135471
-2.6180662e-06
-0.001613115
-1.7332913e-06
-8.5029818e-07
-0.0016214655
3.9313922e-06
-0.001622278
4.1017996e-06
-0.0016231197
4.2477329e-06
-0.0016239984
4.43331e-06
-0.0016249131
4.612968e-06
-0.0016258686
4.8174156e-06
-0.0016268658
5.0261888e-06
-0.0016279084
5.2533224e-06
-0.0016289982
5.4896506e-06
-0.0016301385
5.7417206e-06
-0.0016313315
6.0055071e-06
-0.0016325802
6.2842167e-06
-0.0016338873
6.5761779e-06
-0.0016352557
6.8831205e-06
-0.0016366884
7.2044513e-06
-0.0016381884
7.5412456e-06
-0.0016397588
7.8933852e-06
-0.0016414027
8.2616324e-06
-0.0016431235
8.6460345e-06
-0.0016449244
9.047157e-06
-0.0016468089
9.4650312e-06
-0.0016487803
9.900037e-06
-0.0016508421
1.0352065e-05
-0.0016529978
1.0821276e-05
-0.0016552507
1.1307325e-05
-0.0016576044
1.1810101e-05
-0.001660062
1.2328947e-05
-0.0016626269
1.2863426e-05
-0.001665302
1.3412497e-05
-0.0016680903
1.3975333e-05
-0.0016709944
1.4550435e-05
-0.0016740166
1.5136444e-05
-0.0016771591
1.573156e-05
-0.0016804233
1.6333472e-05
-0.0016838105
1.6939978e-05
-0.0016873211
1.7547972e-05
-0.0016909553
1.8154486e-05
-0.0016947121
1.8755538e-05
-0.00169859
1.9347261e-05
-0.0017025864
1.9924678e-05
-0.0017066978
2.0482928e-05
-0.0017109195
2.101601e-05
-0.0017152455
2.1517933e-05
-0.0017196685
2.1981919e-05
-0.0017241797
2.2400863e-05
-0.001728769
2.2767279e-05
-0.0017334244
2.3073396e-05
-0.0017381325
2.3311319e-05
-0.0017428781
2.3473064e-05
-0.0017476447
2.3550817e-05
-0.0017524138
2.3537045e-05
-0.0017571656
2.3424698e-05
-0.0017618792
2.3207373e-05
-0.0017665321
2.2879551e-05
-0.001771101
2.243666e-05
-0.0017755619
2.1875311e-05
-0.00177989
2.1193362e-05
-0.0017840606
2.0389985e-05
-0.0017880486
1.9465675e-05
-0.0017918295
1.842226e-05
-0.0017953792
1.726273e-05
-0.0017986743
1.5991201e-05
-0.0018016923
1.4612712e-05
-0.001804412
1.3133061e-05
-0.0018068132
1.1558634e-05
-0.0018088772
9.8962411e-06
-0.0018105868
8.1530224e-06
-0.0018119262
6.3363232e-06
-0.0018128812
4.4537413e-06
-0.0018134392
2.5131215e-06
-0.0018135895
5.2270865e-07
-0.0018133231
-1.5087704e-06
-0.0018126333
-3.5718457e-06
-0.0018115152
-5.6563046e-06
-0.0018099668
-7.7510328e-06
-0.0018079884
-9.8437402e-06
-0.0018055832
-1.1921079e-05
-0.0018027575
-1.3968594e-05
-0.0017995208
-1.5970966e-05
-0.0017958861
-1.7912166e-05
-0.0017918695
-1.9775868e-05
-0.0017874909
-2.1545808e-05
-0.001782773
-2.3206214e-05
-0.001777742
-2.4742307e-05
-0.0017724265
-2.6140673e-05
-0.0017668576
-2.7389732e-05
-0.0017610682
-2.8479982e-05
-0.0017550929
-2.9404324e-05
-0.001748967
-3.0158111e-05
-0.0017427259
-3.0739287e-05
-0.0017364054
-3.1148288e-05
-0.0017300401
-3.138789e-05
-0.0017236639
-3.1463023e-05
-0.001717309
-3.1380555e-05
-0.0017110057
-3.114891e-05
-0.0017047824
-3.077785e-05
-0.0016986651
-3.0278055e-05
-0.0016926774
-2.9660966e-05
-0.0016868406
-2.893829e-05
-0.0016811732
-2.8121932e-05
-0.0016756915
-2.7223645e-05
-0.0016704094
-2.6254883e-05
-0.0016653383
-2.5226589e-05
-0.0016604877
-2.4149141e-05
-0.0016558653
-2.3032118e-05
-0.0016514765
-2.1884344e-05
-0.0016473256
-2.0713769e-05
-0.0016434152
-1.9527465e-05
-0.0016397469
-1.833159e-05
-0.0016363208
-1.7131449e-05
-0.0016331368
-1.5931422e-05
-0.0016301935
-1.4735093e-05
-0.0016274893
-1.3545232e-05
-0.0016250222
-1.2363886e-05
-0.0016227899
-1.1192392e-05
-0.0016207899
-1.0031524e-05
-0.0016190198
-8.881417e-06
-0.0016174774
-7.7418337e-06
-0.0016161605
-6.611957e-06
-0.0016150671
-5.4908468e-06
-0.0016141957
-4.376868e-06
-0.001613545
-3.2687457e-06
-0.0016131143
-2.1640136e-06
-1.061588e-06
-0.0016213868
4.7036842e-06
-0.0016221929
4.9079056e-06
-0.0016230282
5.0829999e-06
-0.0016239004
5.3055643e-06
-0.0016248086
5.5210962e-06
-0.0016257575
5.7663543e-06
-0.0016267481
6.0168259e-06
-0.0016277841
6.2893285e-06
-0.0016288674
6.5728716e-06
-0.001630001
6.8753046e-06
-0.0016311872
7.1917962e-06
-0.0016324292
7.5261909e-06
-0.0016337295
7.8764799e-06
-0.0016350911
8.2447367e-06
-0.0016365169
8.6302472e-06
-0.00163801
9.0343013e-06
-0.0016395734
9.4567575e-06
-0.0016412103
9.8985334e-06
-0.0016429239
1.0359691e-05
-0.0016447177
1.0840916e-05
-0.0016465949
1.1342257e-05
-0.001648559
1.1864186e-05
-0.0016506136
1.240659e-05
-0.001652762
1.2969683e-05
-0.0016550077
1.3553079e-05
-0.0016573543
1.4156672e-05
-0.0016598051
1.4779708e-05
-0.0016623633
1.5421696e-05
-0.0016650323
1.6081425e-05
-0.0016678149
1.6757937e-05
-0.0016707139
1.7449474e-05
-0.0016737319
1.8154441e-05
-0.0016768711
1.8870712e-05
-0.0016801331
1.959555e-05
-0.0016835195
2.0326343e-05
-0.0016870309
2.1059393e-05
-0.0016906676
2.1791162e-05
-0.001694429
2.2516894e-05
-0.0016983137
2.3231964e-05
-0.0017023194
2.3930411e-05
-0.0017064429
2.460641e-05
-0.0017106796
2.5252754e-05
-0.0017150239
2.5862248e-05
-0.0017194687
2.6426737e-05
-0.0017240056
2.6937668e-05
-0.0017286243
2.7386017e-05
-0.0017333133
2.7762404e-05
-0.0017380593
2.8057287e-05
-0.0017428472
2.8261004e-05
-0.0017476605
2.8364077e-05
-0.0017524808
2.8357356e-05
-0.0017572883
2.8232248e-05
-0.0017620619
2.7980928e-05
-0.0017667789
2.7596612e-05
-0.0017714159
2.7073645e-05
-0.0017759484
2.6407782e-05
-0.0017803513
2.5596267e-05
-0.0017845992
2.4637917e-05
-0.0017886667
2.3533144e-05
-0.0017925284
2.2283962e-05
-0.0017961595
2.0893793e-05
-0.0017995357
1.9367429e-05
-0.0018026338
1.7710793e-05
-0.0018054315
1.5930752e-05
-0.0018079077
1.4034908e-05
-0.0018100429
1.2031417e-05
-0.0018118188
9.9288743e-06
-0.0018132186
7.7361644e-06
-0.0018142274
5.4625248e-06
-0.0018148318
3.1175276e-06
-0.0018150204
7.1128002e-07
-0.0018147836
-1.7455287e-06
-0.0018141142
-4.2412473e-06
-0.0018130072
-6.7633003e-06
-0.0018114602
-9.2980475e-06
-0.0018094735
-1.1830407e-05
-0.0018070506
-1.434404e-05
-0.0018041979
-1.6821279e-05
-0.0018009254
-1.9243438e-05
-0.0017972466
-2.1590995e-05
-0.0017931784
-2.3844096e-05
-0.0017887412
-2.5982994e-05
-0.0017839588
-2.7988559e-05
-0.0017788582
-2.9842899e-05
-0.0017734691
-3.1529787e-05
-0.0017678236
-3.3035255e-05
-0.0017619557
-3.4347861e-05
-0.0017559009
-3.5459109e-05
-0.0017496956
-3.6363479e-05
-0.0017433762
-3.7058617e-05
-0.0017369793
-3.754519e-05
-0.0017305405
-3.7826724e-05
-0.0017240942
-3.7909346e-05
-0.0017176732
-3.7801544e-05
-0.0017113084
-3.7513674e-05
-0.0017050286
-3.7057713e-05
-0.0016988599
-3.6446734e-05
-0.0016928261
-3.569471e-05
-0.0016869485
-3.4815919e-05
-0.0016812456
-3.3824857e-05
-0.0016757334
-3.2735807e-05
-0.0016704256
-3.156267e-05
-0.0016653335
-3.0318706e-05
-0.0016604662
-2.9016466e-05
-0.0016558308
-2.7667516e-05
-0.0016514327
-2.6282496e-05
-0.0016472755
-2.4870969e-05
-0.0016433615
-2.3441428e-05
-0.0016396918
-2.2001252e-05
-0.0016362665
-2.0556782e-05
-0.0016330847
-1.911324e-05
-0.0016301449
-1.7674882e-05
-0.0016274451
-1.6244984e-05
-0.0016249831
-1.4825948e-05
-0.0016227561
-1.3419321e-05
-0.0016207617
-1.2025976e-05
-0.0016189971
-1.0646015e-05
-0.0016174598
-9.2790993e-06
-0.0016161476
-7.9241891e-06
-0.0016150583
-6.5801054e-06
-0.0016141904
-5.2448276e-06
-0.0016135423
-3.916783e-06
-0.0016131134
-2.5929478e-06
-1.2719956e-06
-0.0016212948
5.4685103e-06
-0.0016220934
5.7064396e-06
-0.001622921
5.9106624e-06
-0.0016237856
6.1701442e-06
-0.001624686
6.4215078e-06
-0.0016256272
6.7075217e-06
-0.00162661
6.9996467e-06
-0.0016276381
7.3174682e-06
-0.0016287134
7.6481782e-06
-0.0016298391
8.0009224e-06
-0.0016310173
8.3700653e-06
-0.0016322512
8.7600862e-06
-0.0016335434
9.1686397e-06
-0.0016348968
9.5981412e-06
-0.0016363143
1.0047756e-05
-0.001637799
1.051899e-05
-0.0016393539
1.1011678e-05
-0.0016409823
1.1526895e-05
-0.0016426873
1.2064722e-05
-0.0016444724
1.2625971e-05
-0.0016463408
1.3210714e-05
-0.0016482961
1.3819521e-05
-0.0016503418
1.4452286e-05
-0.0016524814
1.5109288e-05
-0.0016547185
1.5790112e-05
-0.0016570565
1.6494675e-05
-0.0016594989
1.7222139e-05
-0.0016620492
1.7971977e-05
-0.0016647106
1.8742826e-05
-0.0016674863
1.953362e-05
-0.0016703792
2.0342356e-05
-0.0016733919
2.1167224e-05
-0.001676527
2.2005795e-05
-0.0016797864
2.2854919e-05
-0.0016831716
2.3711597e-05
-0.0016866838
2.4571552e-05
-0.0016903233
2.5430694e-05
-0.0016940899
2.6283503e-05
-0.0016979826
2.712461e-05
-0.0017019993
2.7947079e-05
-0.001706137
2.8744121e-05
-0.0017103915
2.950733e-05
-0.0017147576
3.02283e-05
-0.0017192284
3.0897492e-05
-0.0017237956
3.150489e-05
-0.0017284495
3.2039909e-05
-0.0017331786
3.2491534e-05
-0.0017379699
3.2848538e-05
-0.0017428084
3.3099536e-05
-0.0017476776
3.3233332e-05
-0.0017525594
3.3239094e-05
-0.0017574337
3.3106616e-05
-0.0017622794
3.2826567e-05
-0.0017670736
3.2390815e-05
-0.0017717925
3.1792522e-05
-0.0017764112
3.1026489e-05
-0.0017809041
3.0089239e-05
-0.0017852454
2.8979135e-05
-0.0017894086
2.7696394e-05
-0.0017933678
2.624312e-05
-0.001797097
2.4623074e-05
-0.0018005713
2.284164e-05
-0.001803766
2.0905557e-05
-0.001806658
1.8822706e-05
-0.0018092249
1.6601876e-05
-0.0018114461
1.4252559e-05
-0.001813302
1.1784818e-05
-0.001814775
9.2091195e-06
-0.0018158489
6.5364053e-06
-0.0018165094
3.778065e-06
-0.0018167443
9.4618297e-07
-0.0018165434
-1.9464598e-06
-0.0018158988
-4.8858723e-06
-0.0018148051
-7.8569479e-06
-0.0018132598
-1.0843353e-05
-0.0018112632
-1.3827032e-05
-0.0018088187
-1.6788476e-05
-0.0018059334
-1.9706633e-05
-0.0018026175
-2.2559277e-05
-0.0017988853
-2.5323236e-05
-0.0017947544
-2.7974981e-05
-0.0017902463
-3.049115e-05
-0.0017853857
-3.284914e-05
-0.0017802007
-3.5027848e-05
-0.0017747224
-3.7008166e-05
-0.0017689839
-3.8773689e-05
-0.0017630208
-4.0311015e-05
-0.0017568696
-4.1610256e-05
-0.001750568
-4.2665052e-05
-0.0017441539
-4.3472815e-05
-0.0017376645
-4.4034528e-05
-0.0017311367
-4.4354574e-05
-0.0017246056
-4.4440401e-05
-0.0017181049
-4.4302255e-05
-0.001711666
-4.395257e-05
-0.001705318
-4.3405688e-05
-0.0016990875
-4.2677214e-05
-0.0016929985
-4.17838e-05
-0.001687072
-4.0742421e-05
-0.0016813265
-3.9570278e-05
-0.0016757781
-3.8284288e-05
-0.0016704398
-3.6900885e-05
-0.0016653228
-3.5435712e-05
-0.0016604357
-3.3903549e-05
-0.0016557853
-3.2317988e-05
-0.0016513763
-3.0691505e-05
-0.0016472119
-2.9035292e-05
-0.0016432941
-2.7359262e-05
-0.0016396234
-2.5672008e-05
-0.0016361992
-2.3980892e-05
-0.0016330205
-2.2291956e-05
-0.0016300853
-2.0610104e-05
-0.0016273912
-1.8939087e-05
-0.0016249355
-1.7281633e-05
-0.0016227154
-1.5639467e-05
-0.0016207278
-1.4013528e-05
-0.00161897
-1.2403855e-05
-0.0016174391
-1.0809974e-05
-0.0016161327
-9.2305929e-06
-0.0016150485
-7.6642645e-06
-0.0016141848
-6.1085516e-06
-0.00161354
-4.5615599e-06
-0.0016131133
-3.0196743e-06
-1.48131e-06
-0.0016211869
6.2246941e-06
-0.0016219767
6.4962297e-06
-0.0016227956
6.7295384e-06
-0.0016236513
7.0258602e-06
-0.0016245428
7.3130019e-06
-0.001625475
7.639704e-06
-0.0016264487
7.9734226e-06
-0.0016274678
8.3364966e-06
-0.0016285339
8.7143073e-06
-0.0016296503
9.1172909e-06
-0.0016308192
9.5390095e-06
-0.0016320437
9.9845747e-06
-0.0016333264
1.0451304e-05
-0.0016346702
1.0941955e-05
-0.001636078
1.1455572e-05
-0.0016375529
1.1993877e-05
-0.0016390979
1.2556684e-05
-0.0016407162
1.3145231e-05
-0.0016424111
1.3759618e-05
-0.0016441859
1.440079e-05
-0.0016460441
1.5068851e-05
-0.001647989
1.5764477e-05
-0.0016500243
1.6487582e-05
-0.0016521536
1.7238522e-05
-0.0016543803
1.8016869e-05
-0.0016567082
1.8822576e-05
-0.0016591408
1.9654743e-05
-0.0016616817
2.0512826e-05
-0.0016643342
2.1395329e-05
-0.0016671017
2.2301099e-05
-0.0016699872
2.3227913e-05
-0.0016729938
2.4173768e-05
-0.0016761239
2.5135952e-05
-0.0016793799
2.6110929e-05
-0.0016827637
2.7095327e-05
-0.0016862764
2.8084316e-05
-0.001689919
2.9073271e-05
-0.0016936914
3.0055925e-05
-0.001697593
3.102618e-05
-0.001701622
3.1976132e-05
-0.001705776
3.2898041e-05
-0.0017100509
3.3782303e-05
-0.0017144419
3.4619296e-05
-0.0017189425
3.5398092e-05
-0.0017235448
3.6107192e-05
-0.0017282394
3.673443e-05
-0.0017330149
3.7267121e-05
-0.0017378587
3.7692311e-05
-0.001742756
3.7996837e-05
-0.0017476904
3.8167726e-05
-0.0017526437
3.8192387e-05
-0.001757596
3.8058916e-05
-0.0017625258
3.7756381e-05
-0.0017674102
3.7275196e-05
-0.0017722249
3.660723e-05
-0.0017769446
3.5746206e-05
-0.0017815432
3.4687805e-05
-0.0017859939
3.3429805e-05
-0.0017902696
3.197211e-05
-0.0017943432
3.0316787e-05
-0.001798188
2.8467828e-05
-0.0018017775
2.6431108e-05
-0.001805086
2.4214099e-05
-0.0018080889
2.1825633e-05
-0.0018107627
1.9275649e-05
-0.0018130851
1.657496e-05
-0.0018150354
1.3735118e-05
-0.0018165945
1.0768216e-05
-0.0018177451
7.6869827e-06
-0.0018184717
4.5047326e-06
-0.0018187612
1.2356637e-06
-0.0018186025
-2.105195e-06
-0.001817987
-5.5013261e-06
-0.0018169091
-8.9348959e-06
-0.0018153658
-1.2386677e-05
-0.0018133574
-1.5835432e-05
-0.0018108876
-1.9258269e-05
-0.0018079637
-2.2630545e-05
-0.0018045966
-2.5926297e-05
-0.0018008014
-2.9118516e-05
-0.0017965965
-3.2179819e-05
-0.0017920046
-3.5083073e-05
-0.0017870517
-3.7802063e-05
-0.0017817672
-4.0312365e-05
-0.0017761834
-4.2591896e-05
-0.0017703354
-4.4621762e-05
-0.0017642598
-4.6386566e-05
-0.001757995
-4.7875043e-05
-0.00175158
-4.9080027e-05
-0.0017450541
-4.9998776e-05
-0.0017384559
-5.0632684e-05
-0.0017318234
-5.0987127e-05
-0.0017251928
-5.1071021e-05
-0.0017185985
-5.0896538e-05
-0.0017120727
-5.0478364e-05
-0.001705645
-4.9833384e-05
-0.0016993423
-4.8979911e-05
-0.0016931886
-4.793744e-05
-0.0016872053
-4.6725796e-05
-0.0016814105
-4.5365028e-05
-0.00167582
-4.3874801e-05
-0.0016704467
-4.2274185e-05
-0.0016653011
-4.0581285e-05
-0.0016603915
-3.8813174e-05
-0.001655724
-3.698551e-05
-0.0016513029
-3.5112634e-05
-0.0016471308
-3.3207378e-05
-0.001643209
-3.1281075e-05
-0.0016395375
-2.9343521e-05
-0.0016361153
-2.740308e-05
-0.0016329406
-2.5466587e-05
-0.0016300112
-2.3539562e-05
-0.0016273241
-2.16262e-05
-0.0016248762
-1.9729514e-05
-0.0016226643
-1.7851373e-05
-0.0016206851
-1.5992742e-05
-0.0016189354
-1.4153558e-05
-0.0016174122
-1.2333177e-05
-0.0016161127
-1.0530016e-05
-0.0016150347
-8.7423264e-06
-0.001614176
-6.9672191e-06
-0.0016135351
-5.2024494e-06
-0.001613111
-3.4437723e-06
-1.6893266e-06
-0.0016210662
6.9710788e-06
-0.0016218461
7.2761226e-06
-0.001622655
7.5384583e-06
-0.0016235007
7.8715339e-06
-0.0016243821
8.1943844e-06
-0.0016253041
8.5616932e-06
-0.0016262676
8.9369286e-06
-0.0016272762
9.3451707e-06
-0.0016283319
9.7699959e-06
-0.0016294378
1.0223125e-05
-0.0016305961
1.069732e-05
-0.0016318098
1.1198322e-05
-0.0016330816
1.1723113e-05
-0.0016344145
1.2274789e-05
-0.0016358112
1.2852277e-05
-0.0016372748
1.3457514e-05
-0.0016388084
1.40903e-05
-0.0016404152
1.4752032e-05
-0.0016420984
1.5442843e-05
-0.0016438615
1.6163812e-05
-0.0016457077
1.6915085e-05
-0.0016476407
1.7697456e-05
-0.001649664
1.851087e-05
-0.0016517812
1.9355775e-05
-0.0016539961
2.0231745e-05
-0.0016563123
2.113879e-05
-0.0016587335
2.2075966e-05
-0.0016612634
2.3042734e-05
-0.0016639056
2.403749e-05
-0.0016666635
2.5059016e-05
-0.0016695405
2.6104895e-05
-0.0016725397
2.7172956e-05
-0.001675664
2.8260231e-05
-0.0016789159
2.9362821e-05
-0.0016822975
3.0477011e-05
-0.0016858107
3.1597437e-05
-0.0016894564
3.2718963e-05
-0.001693235
3.3834598e-05
-0.0016971464
3.4937528e-05
-0.0017011891
3.6018902e-05
-0.0017053611
3.7070032e-05
-0.001709659
3.8080122e-05
-0.001714078
3.9038338e-05
-0.0017186123
3.9932348e-05
-0.0017232542
4.0749158e-05
-0.0017279948