/*--------------------------------*- C++ -*----------------------------------*\
| =========                 |                                                 |
| \\      /  F ield         | foam-extend: Open Source CFD                    |
|  \\    /   O peration     | Version:     4.1                                |
|   \\  /    A nd           | Web:         http://www.foam-extend.org         |
|    \\/     M anipulation  |                                                 |
\*---------------------------------------------------------------------------*/
FoamFile
{
    version     2.0;
    format      ascii;
    class       volScalarField;
    location    "1.2";
    object      rAU;
}
// * * * * * * * * * * * * * * * * * * * * * * * * * * * * * * * * * * * * * //

dimensions      [0 0 1 0 0 0 0];

internalField   nonuniform List<scalar> 
16796
(
0.00048788296
0.00048747165
0.00048746641
0.00048746102
0.00048745533
0.00048744948
0.00048744328
0.0004874369
0.00048743014
0.00048742317
0.00048741578
0.00048740814
0.00048740006
0.0004873917
0.00048738285
0.00048737369
0.000487364
0.00048735396
0.00048734336
0.00048733236
0.00048732077
0.00048730873
0.00048729606
0.0004872829
0.00048726907
0.00048725471
0.00048723964
0.000487224
0.00048720761
0.00048719063
0.00048717287
0.00048715444
0.00048713534
0.00048711542
0.00048709487
0.00048707349
0.00048705148
0.00048702866
0.00048700523
0.00048698101
0.00048695623
0.00048693073
0.00048690469
0.00048687809
0.000486851
0.00048682349
0.00048679563
0.0004867675
0.00048673921
0.00048671084
0.00048668251
0.00048665434
0.00048662646
0.000486599
0.0004865721
0.0004865459
0.00048652055
0.00048649618
0.00048647295
0.00048645099
0.00048643045
0.00048641144
0.00048639411
0.00048637855
0.0004863649
0.00048635324
0.00048634368
0.00048633629
0.00048633115
0.00048632833
0.00048632788
0.00048632788
0.00048632985
0.00048633428
0.00048634119
0.0004863506
0.00048636249
0.00048637685
0.00048639367
0.00048641285
0.00048643436
0.00048645809
0.00048648394
0.00048651178
0.00048654146
0.00048657282
0.00048660568
0.00048663986
0.00048667517
0.00048671139
0.00048674834
0.00048678579
0.00048682355
0.00048686143
0.00048689923
0.00048693678
0.0004869739
0.00048701046
0.00048704629
0.00048708127
0.00048711529
0.00048714824
0.00048718005
0.00048721063
0.00048723993
0.00048726788
0.00048729446
0.00048731964
0.00048734338
0.00048736569
0.00048738654
0.00048740595
0.0004874239
0.00048744041
0.00048745549
0.00048746915
0.00048748139
0.00048749223
0.00048750168
0.00048750976
0.00048751646
0.00048752181
0.00048752581
0.00048712272
0.00048757343
0.00048716245
0.00048715704
0.00048715145
0.00048714555
0.00048713947
0.00048713304
0.0004871264
0.00048711937
0.0004871121
0.00048710441
0.00048709645
0.00048708804
0.00048707932
0.0004870701
0.00048706054
0.00048705045
0.00048703998
0.00048702894
0.00048701748
0.00048700539
0.00048699285
0.00048697966
0.00048696596
0.00048695156
0.00048693662
0.00048692094
0.00048690469
0.00048688766
0.00048687003
0.0004868516
0.00048683249
0.0004868127
0.00048679209
0.00048677083
0.00048674875
0.00048672604
0.00048670252
0.0004866784
0.00048665352
0.00048662809
0.00048660198
0.00048657535
0.00048654822
0.00048652064
0.00048649271
0.00048646449
0.00048643609
0.00048640761
0.00048637915
0.00048635083
0.00048632279
0.00048629516
0.00048626808
0.00048624169
0.00048621613
0.00048619156
0.00048616812
0.00048614595
0.0004861252
0.00048610599
0.00048608845
0.00048607271
0.00048605886
0.00048604703
0.00048603729
0.00048602975
0.00048602447
0.00048602152
0.00048602096
0.00048602284
0.00048602131
0.0004860208
0.00048602272
0.00048602712
0.00048603402
0.00048604344
0.00048605537
0.00048606981
0.00048608671
0.00048610602
0.00048612767
0.00048615157
0.0004861776
0.00048620565
0.00048623555
0.00048626715
0.00048630026
0.0004863347
0.00048637025
0.00048640674
0.00048644392
0.00048648161
0.0004865196
0.00048655769
0.00048659569
0.00048663341
0.0004866707
0.00048670738
0.00048674333
0.00048677842
0.00048681252
0.00048684553
0.00048687739
0.00048690801
0.00048693732
0.00048696529
0.00048699187
0.00048701702
0.00048704076
0.00048706303
0.00048708386
0.00048710323
0.00048712115
0.00048713762
0.00048715267
0.00048716629
0.0004871785
0.00048718931
0.00048719873
0.00048720678
0.00048721348
0.00048721881
0.00048681757
0.00048756883
0.00048715766
0.00048715209
0.00048714629
0.00048714019
0.00048713387
0.0004871272
0.0004871203
0.000487113
0.00048710545
0.00048709745
0.00048708917
0.00048708042
0.00048707134
0.00048706175
0.0004870518
0.0004870413
0.0004870304
0.00048701891
0.00048700697
0.0004869944
0.00048698135
0.00048696762
0.00048695337
0.0004869384
0.00048692286
0.00048690657
0.00048688969
0.00048687201
0.00048685372
0.0004868346
0.0004868148
0.0004867943
0.00048677296
0.00048675098
0.00048672817
0.00048670472
0.00048668047
0.00048665563
0.00048663003
0.0004866039
0.00048657712
0.00048654985
0.00048652212
0.00048649399
0.00048646555
0.0004864369
0.00048640813
0.00048637937
0.00048635072
0.00048632231
0.00048629429
0.00048626679
0.00048623998
0.00048621397
0.00048618894
0.00048616503
0.00048614239
0.00048612115
0.00048610148
0.00048608348
0.00048606729
0.00048605302
0.00048604077
0.00048603066
0.00048602275
0.00048601714
0.0004860139
0.00048601307
0.00048601472
0.00048601889
0.00048601592
0.00048601287
0.00048601225
0.00048601412
0.00048601852
0.00048602548
0.00048603501
0.00048604712
0.00048606177
0.00048607896
0.00048609861
0.00048612066
0.00048614501
0.00048617153
0.00048620011
0.00048623057
0.00048626275
0.00048629645
0.00048633149
0.00048636765
0.00048640471
0.00048644247
0.00048648071
0.00048651921
0.00048655778
0.00048659622
0.00048663436
0.00048667201
0.00048670903
0.00048674527
0.0004867806
0.00048681491
0.00048684811
0.0004868801
0.00048691083
0.00048694023
0.00048696825
0.00048699486
0.00048702005
0.00048704378
0.00048706605
0.00048708686
0.0004871062
0.00048712408
0.00048714053
0.00048715553
0.00048716912
0.00048718129
0.00048719207
0.00048720147
0.0004872095
0.00048721618
0.00048681628
0.00048756433
0.00048715299
0.00048714726
0.00048714126
0.00048713497
0.00048712843
0.00048712153
0.00048711437
0.00048710681
0.00048709897
0.00048709069
0.00048708209
0.00048707301
0.00048706358
0.00048705363
0.00048704329
0.00048703239
0.00048702107
0.00048700913
0.00048699674
0.00048698368
0.00048697013
0.00048695588
0.00048694108
0.00048692555
0.00048690943
0.00048689253
0.00048687503
0.00048685671
0.00048683775
0.00048681795
0.00048679745
0.00048677625
0.00048675419
0.00048673148
0.00048670793
0.00048668374
0.00048665875
0.00048663316
0.00048660684
0.00048657999
0.00048655251
0.00048652458
0.0004864962
0.00048646748
0.0004864385
0.00048640935
0.00048638017
0.00048635106
0.00048632216
0.00048629359
0.00048626551
0.00048623807
0.00048621142
0.00048618571
0.00048616111
0.00048613776
0.00048611582
0.00048609542
0.00048607672
0.00048605983
0.00048604489
0.000486032
0.00048602127
0.00048601278
0.00048600663
0.00048600289
0.00048600162
0.00048600287
0.00048600669
0.00048601312
0.00048600888
0.00048600323
0.00048600003
0.00048599934
0.00048600121
0.00048600569
0.00048601281
0.00048602261
0.00048603505
0.00048605015
0.00048606785
0.0004860881
0.00048611082
0.0004861359
0.00048616323
0.00048619264
0.00048622398
0.00048625705
0.00048629165
0.00048632759
0.00048636463
0.00048640255
0.00048644113
0.00048648014
0.00048651937
0.00048655861
0.00048659767
0.00048663636
0.0004866745
0.00048671195
0.00048674856
0.0004867842
0.00048681878
0.00048685219
0.00048688435
0.0004869152
0.00048694469
0.00048697276
0.00048699941
0.00048702459
0.00048704831
0.00048707055
0.00048709131
0.0004871106
0.00048712843
0.00048714482
0.00048715977
0.0004871733
0.00048718543
0.00048719617
0.00048720554
0.00048721355
0.00048681499
0.00048755995
0.00048714844
0.00048714257
0.00048713637
0.00048712989
0.00048712314
0.00048711602
0.00048710862
0.0004871008
0.00048709269
0.00048708411
0.00048707521
0.00048706581
0.00048705604
0.00048704573
0.00048703502
0.00048702372
0.00048701199
0.00048699962
0.00048698677
0.00048697325
0.0004869592
0.00048694444
0.00048692911
0.00048691301
0.00048689632
0.00048687883
0.0004868607
0.00048684175
0.00048682213
0.00048680166
0.00048678047
0.00048675856
0.00048673578
0.00048671234
0.00048668804
0.0004866631
0.00048663735
0.00048661101
0.00048658394
0.00048655635
0.00048652814
0.0004864995
0.00048647045
0.00048644109
0.00048641151
0.00048638183
0.00048635217
0.00048632265
0.00048629341
0.0004862646
0.00048623638
0.0004862089
0.00048618233
0.00048615683
0.00048613255
0.00048610966
0.00048608831
0.00048606865
0.00048605082
0.00048603495
0.00048602116
0.00048600956
0.00048600025
0.00048599331
0.00048598884
0.0004859869
0.00048598755
0.00048599084
0.00048599681
0.00048600548
0.0004860002
0.0004859919
0.00048598605
0.00048598275
0.00048598206
0.00048598404
0.00048598875
0.00048599622
0.00048600647
0.0004860195
0.00048603529
0.0004860538
0.00048607495
0.00048609866
0.00048612482
0.00048615327
0.00048618386
0.00048621639
0.00048625067
0.00048628649
0.00048632361
0.0004863618
0.00048640081
0.00048644043
0.00048648042
0.00048652054
0.00048656061
0.0004866004
0.00048663974
0.00048667846
0.0004867164
0.00048675342
0.00048678942
0.00048682427
0.00048685789
0.00048689022
0.00048692118
0.00048695073
0.00048697884
0.00048700549
0.00048703065
0.00048705432
0.0004870765
0.00048709719
0.00048711641
0.00048713416
0.00048715047
0.00048716535
0.00048717882
0.00048719089
0.0004872016
0.00048721093
0.00048681371
0.00048755569
0.00048714402
0.00048713801
0.00048713163
0.00048712497
0.00048711801
0.00048711067
0.00048710304
0.00048709498
0.0004870866
0.00048707774
0.00048706855
0.00048705882
0.00048704873
0.00048703807
0.00048702699
0.00048701531
0.00048700317
0.00048699038
0.00048697709
0.0004869631
0.00048694857
0.0004869333
0.00048691745
0.00048690081
0.00048688355
0.00048686547
0.00048684673
0.00048682714
0.00048680688
0.00048678574
0.00048676386
0.00048674123
0.00048671773
0.00048669354
0.0004866685
0.00048664279
0.00048661628
0.00048658916
0.00048656131
0.00048653296
0.000486504
0.00048647461
0.00048644484
0.00048641479
0.00048638457
0.00048635428
0.00048632407
0.00048629407
0.00048626443
0.0004862353
0.00048620685
0.00048617924
0.00048615266
0.00048612725
0.0004861032
0.00048608066
0.0004860598
0.00048604076
0.0004860237
0.00048600874
0.000485996
0.00048598559
0.00048597762
0.00048597216
0.00048596929
0.0004859691
0.00048597163
0.00048597692
0.00048598501
0.00048599591
0.00048598993
0.00048597889
0.00048597032
0.00048596435
0.00048596105
0.0004859605
0.00048596277
0.00048596792
0.00048597598
0.00048598696
0.00048600087
0.00048601767
0.00048603732
0.00048605973
0.00048608479
0.00048611237
0.0004861423
0.0004861744
0.00048620845
0.00048624426
0.00048628156
0.00048632012
0.00048635969
0.00048640001
0.00048644084
0.00048648195
0.0004865231
0.00048656409
0.0004866047
0.00048664475
0.00048668408
0.00048672254
0.00048675999
0.00048679633
0.00048683145
0.00048686527
0.00048689773
0.00048692877
0.00048695836
0.00048698647
0.00048701307
0.00048703817
0.00048706177
0.00048708385
0.00048710445
0.00048712357
0.00048714123
0.00048715745
0.00048717225
0.00048718565
0.00048719767
0.00048720833
0.00048681243
0.00048755155
0.00048713973
0.00048713359
0.00048712703
0.0004871202
0.00048711304
0.0004871055
0.00048709764
0.00048708934
0.0004870807
0.00048707157
0.00048706209
0.00048705206
0.00048704165
0.00048703064
0.00048701921
0.00048700715
0.00048699462
0.00048698141
0.00048696769
0.00048695325
0.00048693825
0.00048692248
0.00048690611
0.00048688893
0.00048687111
0.00048685245
0.00048683311
0.0004868129
0.00048679199
0.00048677018
0.00048674761
0.00048672428
0.00048670005
0.00048667511
0.0004866493
0.00048662283
0.00048659552
0.00048656762
0.00048653897
0.00048650981
0.00048648006
0.00048644989
0.00048641936
0.00048638857
0.00048635764
0.00048632669
0.00048629586
0.0004862653
0.00048623517
0.00048620563
0.00048617686
0.00048614902
0.00048612231
0.0004860969
0.00048607296
0.00048605066
0.00048603018
0.00048601166
0.00048599526
0.0004859811
0.00048596931
0.00048596
0.00048595327
0.00048594921
0.00048594789
0.00048594939
0.00048595375
0.00048596101
0.00048597121
0.00048598435
0.00048597808
0.0004859642
0.00048595284
0.00048594412
0.00048593815
0.00048593502
0.00048593482
0.00048593763
0.00048594349
0.00048595243
0.00048596449
0.00048597963
0.00048599782
0.00048601899
0.00048604303
0.00048606982
0.00048609919
0.00048613096
0.0004861649
0.00048620081
0.00048623841
0.00048627745
0.00048631768
0.00048635882
0.00048640061
0.00048644279
0.00048648514
0.0004865274
0.00048656936
0.00048661082
0.00048665161
0.00048669155
0.00048673052
0.00048676838
0.00048680502
0.00048684037
0.00048687435
0.00048690689
0.00048693797
0.00048696755
0.0004869956
0.00048702213
0.00048704714
0.00048707061
0.00048709258
0.00048711306
0.00048713206
0.00048714961
0.00048716572
0.00048718043
0.00048719377
0.00048720574
0.00048681116
0.00048754755
0.00048713558
0.00048712932
0.00048712259
0.0004871156
0.00048710824
0.0004871005
0.00048709242
0.00048708389
0.000487075
0.00048706561
0.00048705584
0.00048704552
0.00048703479
0.00048702346
0.00048701168
0.00048699926
0.00048698634
0.00048697273
0.00048695858
0.0004869437
0.00048692823
0.00048691198
0.0004868951
0.00048687739
0.00048685902
0.00048683979
0.00048681985
0.00048679902
0.00048677746
0.00048675499
0.00048673173
0.00048670769
0.00048668273
0.00048665704
0.00048663046
0.00048660319
0.00048657508
0.00048654636
0.00048651689
0.0004864869
0.00048645632
0.00048642533
0.00048639398
0.0004863624
0.0004863307
0.00048629901
0.0004862675
0.0004862363
0.00048620559
0.00048617554
0.00048614635
0.00048611818
0.00048609124
0.0004860657
0.00048604176
0.00048601959
0.00048599936
0.00048598124
0.00048596538
0.00048595192
0.00048594098
0.00048593267
0.00048592711
0.00048592437
0.00048592453
0.00048592767
0.00048593382
0.00048594303
0.00048595533
0.00048597071
0.00048596465
0.00048594783
0.00048593358
0.00048592203
0.00048591332
0.00048590755
0.00048590484
0.00048590528
0.00048590892
0.00048591584
0.00048592606
0.00048593957
0.00048595636
0.00048597635
0.00048599945
0.00048602554
0.00048605445
0.00048608598
0.00048611992
0.00048615604
0.00048619406
0.00048623372
0.00048627472
0.0004863168
0.00048635966
0.00048640303
0.00048644666
0.00048649029
0.00048653369
0.00048657664
0.00048661895
0.00048666044
0.00048670097
0.0004867404
0.00048677861
0.00048681552
0.00048685103
0.0004868851
0.00048691768
0.00048694873
0.00048697825
0.0004870062
0.00048703261
0.00048705747
0.0004870808
0.00048710262
0.00048712295
0.00048714182
0.00048715924
0.00048717526
0.00048718989
0.00048720317
0.0004868099
0.00048754368
0.00048713158
0.0004871252
0.0004871183
0.00048711116
0.00048710361
0.00048709568
0.00048708739
0.00048707864
0.00048706951
0.00048705986
0.00048704983
0.00048703922
0.00048702818
0.00048701653
0.00048700441
0.00048699163
0.00048697833
0.00048696433
0.00048694977
0.00048693445
0.00048691853
0.0004869018
0.00048688443
0.00048686621
0.00048684729
0.00048682749
0.00048680697
0.00048678552
0.00048676332
0.00048674019
0.00048671624
0.00048669148
0.00048666579
0.00048663934
0.00048661197
0.0004865839
0.00048655497
0.00048652541
0.00048649508
0.00048646423
0.00048643278
0.00048640092
0.00048636871
0.00048633627
0.00048630373
0.00048627124
0.00048623895
0.00048620703
0.00048617565
0.00048614499
0.00048611527
0.00048608665
0.00048605936
0.00048603359
0.00048600952
0.00048598735
0.00048596726
0.00048594942
0.00048593399
0.0004859211
0.0004859109
0.0004859035
0.00048589901
0.00048589752
0.0004858991
0.00048590383
0.00048591174
0.00048592289
0.00048593729
0.00048595493
0.00048594966
0.00048592978
0.00048591253
0.00048589806
0.00048588652
0.00048587805
0.00048587276
0.00048587079
0.0004858722
0.00048587709
0.00048588548
0.00048589739
0.00048591282
0.00048593169
0.00048595393
0.00048597941
0.00048600795
0.00048603937
0.00048607343
0.00048610988
0.00048614845
0.00048618884
0.00048623075
0.00048627389
0.00048631794
0.00048636262
0.00048640765
0.00048645275
0.00048649768
0.0004865422
0.00048658612
0.00048662922
0.00048667138
0.00048671242
0.00048675224
0.00048679073
0.00048682781
0.00048686342
0.00048689751
0.00048693005
0.00048696102
0.0004869904
0.00048701821
0.00048704444
0.00048706913
0.00048709228
0.00048711393
0.0004871341
0.00048715282
0.00048717013
0.00048718605
0.00048720062
0.00048680864
0.00048753996
0.00048712772
0.00048712123
0.00048711418
0.00048710689
0.00048709917
0.00048709106
0.00048708256
0.00048707359
0.00048706423
0.00048705434
0.00048704404
0.00048703315
0.00048702182
0.00048700986
0.00048699741
0.00048698428
0.00048697062
0.00048695623
0.00048694127
0.00048692553
0.00048690916
0.00048689197
0.00048687411
0.00048685538
0.00048683593
0.00048681557
0.00048679446
0.00048677241
0.00048674958
0.00048672578
0.00048670114
0.00048667567
0.00048664923
0.00048662201
0.00048659385
0.00048656496
0.00048653519
0.00048650476
0.00048647354
0.0004864418
0.00048640943
0.00048637665
0.00048634352
0.00048631017
0.00048627673
0.00048624334
0.0004862102
0.00048617746
0.00048614531
0.00048611394
0.00048608357
0.00048605439
0.00048602663
0.00048600049
0.00048597617
0.00048595387
0.00048593379
0.00048591609
0.00048590096
0.00048588854
0.00048587897
0.00048587238
0.00048586887
0.00048586855
0.00048587148
0.00048587776
0.00048588741
0.00048590048
0.00048591699
0.00048593692
0.00048593313
0.00048591005
0.00048588968
0.00048587217
0.00048585771
0.00048584644
0.00048583852
0.00048583409
0.00048583324
0.00048583607
0.00048584265
0.00048585299
0.00048586709
0.00048588491
0.00048590636
0.00048593132
0.0004859596
0.00048599102
0.00048602532
0.00048606224
0.00048610149
0.00048614275
0.00048618571
0.00048623004
0.00048627542
0.00048632153
0.00048636807
0.00048641476
0.00048646132
0.0004865075
0.0004865531
0.00048659789
0.00048664173
0.00048668444
0.00048672591
0.00048676602
0.0004868047
0.00048684186
0.00048687748
0.00048691151
0.00048694393
0.00048697474
0.00048700395
0.00048703155
0.00048705758
0.00048708205
0.000487105
0.00048712647
0.00048714647
0.00048716505
0.00048718225
0.00048719809
0.0004868074
0.00048753638
0.00048712402
0.00048711744
0.00048711024
0.0004871028
0.00048709491
0.00048708663
0.00048707793
0.00048706876
0.00048705918
0.00048704905
0.00048703849
0.00048702733
0.00048701572
0.00048700345
0.00048699068
0.00048697722
0.0004869632
0.00048694844
0.00048693309
0.00048691693
0.00048690014
0.00048688249
0.00048686415
0.00048684492
0.00048682494
0.00048680404
0.00048678235
0.00048675969
0.00048673623
0.00048671177
0.00048668645
0.00048666026
0.00048663307
0.00048660508
0.00048657611
0.00048654638
0.00048651574
0.00048648442
0.00048645229
0.00048641961
0.00048638628
0.00048635253
0.00048631842
0.00048628408
0.00048624966
0.00048621532
0.00048618123
0.00048614756
0.00048611454
0.00048608235
0.00048605121
0.00048602134
0.00048599298
0.00048596634
0.00048594162
0.00048591906
0.00048589884
0.00048588116
0.0004858662
0.00048585412
0.00048584507
0.00048583918
0.00048583657
0.00048583734
0.00048584157
0.00048584935
0.00048586071
0.0004858757
0.00048589433
0.00048591659
0.00048591504
0.00048588863
0.00048586499
0.00048584432
0.00048582682
0.00048581267
0.00048580204
0.00048579509
0.00048579193
0.0004857927
0.00048579745
0.00048580624
0.00048581906
0.00048583589
0.00048585662
0.00048588115
0.00048590929
0.00048594082
0.00048597549
0.00048601303
0.0004860531
0.00048609538
0.00048613954
0.00048618521
0.00048623205
0.00048627972
0.00048632791
0.0004863763
0.00048642459
0.00048647254
0.0004865199
0.00048656646
0.00048661205
0.00048665648
0.00048669964
0.00048674141
0.00048678171
0.00048682045
0.00048685761
0.00048689314
0.00048692702
0.00048695925
0.00048698984
0.0004870188
0.00048704616
0.00048707194
0.00048709618
0.00048711892
0.00048714019
0.00048716003
0.00048717848
0.00048719559
0.00048680617
0.00048753296
0.00048712049
0.00048711381
0.00048710647
0.0004870989
0.00048709085
0.0004870824
0.00048707352
0.00048706415
0.00048705435
0.00048704399
0.00048703319
0.00048702177
0.00048700988
0.00048699732
0.00048698424
0.00048697045
0.0004869561
0.00048694097
0.00048692524
0.00048690868
0.00048689146
0.00048687337
0.00048685456
0.00048683484
0.00048681435
0.0004867929
0.00048677065
0.0004867474
0.00048672331
0.00048669819
0.00048667218
0.00048664527
0.00048661733
0.00048658855
0.00048655876
0.00048652818
0.00048649665
0.00048646441
0.00048643133
0.00048639766
0.00048636334
0.00048632856
0.00048629341
0.00048625802
0.00048622254
0.00048618714
0.00048615201
0.00048611733
0.00048608331
0.00048605017
0.00048601815
0.00048598746
0.00048595836
0.00048593106
0.00048590582
0.00048588284
0.00048586234
0.00048584453
0.00048582961
0.00048581774
0.00048580908
0.00048580378
0.00048580197
0.00048580376
0.00048580922
0.00048581847
0.00048583152
0.00048584844
0.00048586921
0.00048589384
0.00048589541
0.0004858655
0.00048583844
0.00048581448
0.00048579382
0.00048577667
0.00048576323
0.00048575369
0.00048574818
0.00048574684
0.00048574977
0.00048575702
0.0004857686
0.00048578449
0.00048580459
0.00048582879
0.00048585689
0.00048588867
0.00048592385
0.00048596214
0.0004860032
0.00048604666
0.00048609217
0.00048613933
0.00048618779
0.00048623717
0.00048628714
0.00048633735
0.0004863875
0.00048643732
0.00048648654
0.00048653494
0.00048658234
0.00048662856
0.00048667346
0.00048671693
0.00048675887
0.00048679921
0.00048683792
0.00048687495
0.0004869103
0.00048694395
0.00048697592
0.00048700622
0.0004870349
0.00048706197
0.00048708749
0.00048711148
0.00048713399
0.00048715507
0.00048717477
0.00048719312
0.00048680495
0.00048752971
0.00048711713
0.00048711036
0.00048710289
0.0004870952
0.00048708699
0.00048707838
0.00048706933
0.00048705976
0.00048704976
0.00048703918
0.00048702814
0.00048701648
0.00048700432
0.00048699147
0.0004869781
0.00048696399
0.0004869493
0.00048693383
0.00048691772
0.00048690078
0.00048688314
0.00048686462
0.00048684536
0.00048682515
0.00048680416
0.00048678218
0.00048675937
0.00048673552
0.00048671081
0.00048668505
0.00048665835
0.00048663072
0.00048660201
0.00048657244
0.00048654181
0.00048651036
0.00048647792
0.00048644473
0.00048641066
0.00048637598
0.0004863406
0.00048630474
0.00048626848
0.00048623197
0.00048619535
0.0004861588
0.00048612253
0.00048608672
0.00048605159
0.00048601738
0.00048598433
0.00048595268
0.00048592269
0.0004858946
0.00048586866
0.00048584511
0.00048582418
0.00048580609
0.00048579106
0.00048577926
0.00048577087
0.00048576606
0.00048576495
0.00048576767
0.00048577432
0.00048578498
0.00048579972
0.00048581856
0.00048584151
0.00048586856
0.00048587422
0.00048584064
0.00048581
0.00048578258
0.00048575861
0.00048573835
0.000485722
0.00048570979
0.00048570186
0.00048569839
0.00048569947
0.00048570519
0.00048571557
0.00048573057
0.00048575013
0.00048577409
0.00048580228
0.00048583444
0.00048587028
0.0004859095
0.0004859517
0.00048599651
0.00048604354
0.00048609237
0.00048614261
0.00048619385
0.00048624575
0.00048629792
0.00048635005
0.00048640184
0.00048645302
0.00048650335
0.00048655264
0.0004866007
0.00048664739
0.00048669259
0.00048673621
0.00048677817
0.00048681844
0.00048685699
0.00048689379
0.00048692885
0.00048696219
0.00048699383
0.00048702381
0.00048705216
0.00048707892
0.00048710415
0.00048712789
0.00048715019
0.0004871711
0.00048719068
0.00048680375
0.00048752662
0.00048711394
0.0004871071
0.0004870995
0.0004870917
0.00048708334
0.00048707459
0.00048706536
0.00048705561
0.00048704541
0.00048703462
0.00048702336
0.00048701145
0.00048699904
0.00048698592
0.00048697226
0.00048695785
0.00048694284
0.00048692702
0.00048691056
0.00048689323
0.0004868752
0.00048685626
0.00048683655
0.00048681588
0.00048679439
0.00048677188
0.00048674852
0.00048672409
0.00048669877
0.00048667235
0.00048664496
0.00048661661
0.00048658714
0.00048655676
0.00048652529
0.00048649294
0.00048645957
0.0004864254
0.00048639032
0.00048635457
0.00048631809
0.00048628109
0.00048624366
0.00048620594
0.0004861681
0.00048613031
0.00048609279
0.00048605573
0.00048601937
0.00048598396
0.00048594974
0.00048591697
0.00048588594
0.00048585689
0.00048583009
0.00048580581
0.00048578428
0.00048576575
0.00048575045
0.00048573858
0.00048573033
0.00048572587
0.00048572537
0.00048572894
0.00048573671
0.00048574876
0.00048576516
0.00048578594
0.00048581111
0.00048584064
0.00048585149
0.00048581403
0.00048577963
0.00048574857
0.00048572115
0.00048569763
0.00048567826
0.00048566327
0.00048565286
0.0004856472
0.00048564643
0.00048565063
0.00048565983
0.00048567401
0.0004856931
0.00048571694
0.00048574534
0.00048577803
0.00048581469
0.000485855
0.00048589853
0.00048594487
0.00048599361
0.00048604428
0.00048609647
0.00048614975
0.00048620372
0.000486258
0.00048631224
0.00048636612
0.00048641937
0.00048647171
0.00048652297
0.00048657293
0.00048662146
0.00048666844
0.00048671376
0.00048675736
0.00048679921
0.00048683927
0.00048687753
0.00048691399
0.00048694869
0.00048698165
0.00048701291
0.00048704251
0.0004870705
0.00048709695
0.00048712189
0.00048714538
0.0004871675
0.00048718828
0.00048680257
0.00048752372
0.00048711094
0.00048710403
0.00048709632
0.0004870884
0.00048707992
0.00048707102
0.00048706163
0.00048705171
0.00048704132
0.00048703033
0.00048701885
0.00048700671
0.00048699405
0.00048698067
0.00048696673
0.00048695203
0.00048693671
0.00048692056
0.00048690375
0.00048688606
0.00048686764
0.00048684829
0.00048682815
0.00048680702
0.00048678505
0.00048676203
0.00048673812
0.00048671312
0.00048668719
0.00048666012
0.00048663205
0.00048660297
0.00048657274
0.00048654154
0.00048650921
0.00048647596
0.00048644163
0.00048640645
0.00048637031
0.00048633346
0.00048629582
0.00048625762
0.00048621894
0.00048617994
0.00048614078
0.00048610165
0.00048606277
0.00048602435
0.00048598662
0.00048594986
0.00048591432
0.00048588028
0.00048584804
0.00048581786
0.00048579003
0.00048576483
0.00048574253
0.00048572339
0.00048570766
0.00048569556
0.00048568731
0.00048568309
0.00048568308
0.00048568742
0.00048569624
0.00048570965
0.0004857277
0.00048575044
0.00048577788
0.00048580997
0.0004858272
0.00048578565
0.00048574728
0.0004857124
0.00048568135
0.00048565442
0.00048563189
0.00048561403
0.00048560104
0.00048559315
0.00048559049
0.00048559316
0.00048560122
0.00048561465
0.00048563335
0.00048565718
0.00048568593
0.0004857193
0.00048575696
0.00048579854
0.00048584359
0.00048589167
0.00048594231
0.00048599503
0.00048604936
0.00048610485
0.00048616107
0.00048621761
0.0004862741
0.0004863302
0.00048638561
0.00048644007
0.00048649337
0.0004865453
0.00048659572
0.00048664451
0.00048669157
0.00048673683
0.00048678026
0.00048682183
0.00048686154
0.00048689941
0.00048693545
0.0004869697
0.00048700223
0.00048703306
0.00048706226
0.00048708989
0.000487116
0.00048714067
0.00048716396
0.00048718592
0.0004868014
0.000487521
0.00048710814
0.00048710116
0.00048709334
0.00048708533
0.00048707671
0.00048706768
0.00048705814
0.00048704806
0.00048703749
0.00048702631
0.00048701462
0.00048700226
0.00048698936
0.00048697574
0.00048696153
0.00048694655
0.00048693092
0.00048691447
0.00048689732
0.00048687927
0.00048686048
0.00048684073
0.00048682017
0.0004867986
0.00048677615
0.00048675263
0.00048672819
0.00048670262
0.00048667609
0.00048664838
0.00048661963
0.00048658982
0.00048655882
0.0004865268
0.0004864936
0.00048645942
0.00048642411
0.00048638789
0.00048635066
0.00048631265
0.00048627381
0.00048623435
0.00048619435
0.00048615399
0.00048611342
0.00048607285
0.00048603249
0.00048599257
0.00048595334
0.00048591508
0.00048587806
0.00048584258
0.00048580895
0.00048577745
0.0004857484
0.00048572211
0.00048569885
0.00048567891
0.00048566258
0.00048565009
0.00048564168
0.00048563756
0.00048563793
0.00048564296
0.00048565277
0.00048566749
0.0004856872
0.00048571192
0.00048574167
0.0004857764
0.00048580135
0.00048575547
0.0004857129
0.00048567401
0.00048563913
0.00048560862
0.00048558278
0.00048556192
0.00048554627
0.00048553607
0.00048553149
0.00048553265
0.00048553959
0.00048555231
0.00048557073
0.00048559467
0.00048562391
0.00048565814
0.00048569698
0.00048574004
0.00048578682
0.00048583685
0.0004858896
0.00048594457
0.00048600125
0.00048605914
0.00048611779
0.00048617676
0.00048623564
0.00048629409
0.00048635179
0.00048640846
0.00048646388
0.00048651785
0.00048657021
0.00048662085
0.00048666967
0.0004867166
0.00048676163
0.00048680471
0.00048684587
0.00048688512
0.00048692249
0.00048695802
0.00048699178
0.00048702382
0.00048705419
0.00048708298
0.00048711025
0.00048713606
0.00048716049
0.00048718361
0.00048680026
0.00048751847
0.00048710553
0.0004870985
0.00048709058
0.00048708247
0.00048707374
0.00048706458
0.0004870549
0.00048704467
0.00048703393
0.00048702256
0.00048701068
0.00048699811
0.00048698499
0.00048697112
0.00048695666
0.0004869414
0.0004869255
0.00048690873
0.00048689127
0.00048687288
0.00048685373
0.00048683359
0.00048681263
0.00048679062
0.00048676772
0.00048674371
0.00048671874
0.00048669262
0.00048666549
0.00048663715
0.00048660771
0.00048657718
0.0004865454
0.00048651255
0.00048647847
0.00048644335
0.00048640703
0.00048636976
0.00048633139
0.00048629219
0.00048625208
0.00048621129
0.00048616991
0.00048612809
0.00048608602
0.00048604389
0.00048600193
0.00048596038
0.00048591951
0.00048587959
0.00048584092
0.00048580382
0.00048576861
0.0004857356
0.00048570514
0.00048567754
0.00048565312
0.00048563219
0.00048561506
0.000485602
0.00048559328
0.00048558912
0.00048558976
0.00048559537
0.00048560611
0.00048562212
0.00048564346
0.0004856702
0.00048570233
0.00048573979
0.00048577391
0.00048572346
0.00048567645
0.0004856333
0.0004855944
0.00048556012
0.00048553081
0.00048550681
0.0004854884
0.00048547582
0.00048546927
0.00048546889
0.00048547475
0.00048548684
0.00048550505
0.00048552924
0.00048555913
0.00048559439
0.00048563462
0.00048567937
0.00048572811
0.00048578032
0.00048583543
0.00048589288
0.00048595212
0.00048601262
0.0004860739
0.00048613546
0.0004861969
0.00048625783
0.00048631794
0.00048637692
0.00048643455
0.00048649062
0.00048654498
0.00048659751
0.00048664811
0.00048669674
0.00048674336
0.00048678796
0.00048683055
0.00048687117
0.00048690984