/*--------------------------------*- C++ -*----------------------------------*\
| =========                 |                                                 |
| \\      /  F ield         | foam-extend: Open Source CFD                    |
|  \\    /   O peration     | Version:     4.1                                |
|   \\  /    A nd           | Web:         http://www.foam-extend.org         |
|    \\/     M anipulation  |                                                 |
\*---------------------------------------------------------------------------*/
FoamFile
{
    version     2.0;
    format      ascii;
    class       volScalarField;
    location    "2.7";
    object      p;
}
// * * * * * * * * * * * * * * * * * * * * * * * * * * * * * * * * * * * * * //

dimensions      [0 2 -2 0 0 0 0];

internalField   nonuniform List<scalar> 
4393
(
-46.418282
-92.981837
-146.74665
-201.53774
-258.52854
-318.02973
-380.42427
-446.0217
-515.04628
-587.60817
-663.67531
-743.0453
-825.32001
-909.88686
-995.91062
-1082.3387
-1167.9206
-1251.2389
-1330.7467
-1404.8064
-1471.7268
-1529.7977
-1577.3242
-1612.6687
-1634.3037
-1640.8858
-1631.361
-1605.1092
-1562.0235
-1502.6044
-1428.0629
-1340.3046
-1241.8238
-1135.5211
-1024.4771
-911.72637
-800.06841
-691.93584
-589.32579
-493.78644
-406.44521
-328.06319
-259.10092
-199.78426
-150.17456
-110.24083
-79.763748
-57.832805
-43.628509
-45.166118
-92.396016
-146.03406
-200.67392
-257.4956
-316.84201
-379.10971
-444.62033
-513.60998
-586.20085
-662.37251
-741.93261
-824.4901
-909.43486
-995.92844
-1082.9093
-1169.1132
-1253.1063
-1333.3248
-1408.1154
-1475.7721
-1534.5699
-1582.7977
-1618.7958
-1641.0079
-1648.0573
-1638.8543
-1612.7042
-1569.4365
-1509.5446
-1434.2452
-1345.479
-1245.8059
-1138.2122
-1025.8684
-911.88925
-799.13418
-690.0725
-586.71577
-490.6088
-402.86333
-324.21787
-255.11034
-195.75376
-146.201
-106.36072
-75.962089
-54.863155
-44.264984
-44.361879
-91.499263
-144.77578
-199.05486
-255.52572
-314.56089
-376.57905
-441.92411
-510.85531
-583.51855
-659.91622
-739.87562
-823.01901
-908.74014
-996.19263
-1084.295
-1171.7535
-1257.0999
-1338.7356
-1414.9754
-1484.0847
-1544.3105
-1593.9095
-1631.1789
-1654.5016
-1662.4212
-1653.7595
-1627.7384
-1584.096
-1523.2537
-1446.4226
-1355.6123
-1253.5198
-1143.3096
-1028.3385
-911.88432
-796.92674
-686.00545
-581.15611
-483.91099
-395.3442
-316.14265
-246.69039
-187.15679
-137.55126
-97.688434
-67.258327
-46.703402
-37.920874
-43.57116
-90.203517
-142.87206
-196.57263
-252.49946
-311.05371
-372.68288
-437.76285
-506.58765
-579.3397
-656.05721
-736.5989
-820.60914
-907.4892
-996.38153
-1086.1743
-1175.5282
-1262.9216
-1346.7028
-1425.1391
-1496.4549
-1558.8587
-1610.5626
-1649.8032
-1674.8753
-1684.1999
-1676.4527
-1650.7046
-1606.5454
-1544.2898
-1465.1359
-1371.1996
-1265.3944
-1151.17
-1032.1792
-911.95651
-793.66759
-679.95794
-572.89595
-473.99008
-384.25322
-304.2915
-234.40521
-174.68851
-125.07573
-85.291903
-55.022716
-34.934766
-26.790642
-42.746025
-88.586096
-140.40167
-193.29793
-248.47673
-306.37008
-367.46095
-432.16674
-500.82808
-573.67726
-650.80233
-732.10653
-817.26655
-905.69561
-996.52145
-1088.5894
-1180.495
-1270.6407
-1357.301
-1438.6794
-1512.9486
-1578.2705
-1632.8048
-1674.7135
-1702.1786
-1713.4593
-1707.0295
-1681.7395
-1636.9534
-1572.8182
-1490.4981
-1392.2542
-1281.3121
-1161.5353
-1037.0031
-911.61378
-788.78946
-671.31423
-561.29073
-460.1835
-368.9121
-287.96594
-217.52632
-157.57816
-107.95417
-68.297109
-38.300258
-18.683899
-10.92749
-41.737448
-86.536907
-137.25311
-189.11406
-243.33048
-300.36954
-360.75701
-424.96206
-493.38494
-566.32307
-643.93087
-726.17248
-812.77042
-903.15705
-996.44245
-1091.4144
-1186.5796
-1280.2371
-1370.5628
-1455.68
-1533.7007
-1602.7372
-1660.8939
-1706.2496
-1736.8505
-1750.751
-1746.1569
-1721.6156
-1676.1694
-1609.7103
-1523.3306
-1419.4778
-1301.8093
-1174.7663
-1043.0183
-910.95514
-782.33368
-660.10596
-546.40055
-442.60569
-349.50358
-267.42013
-196.37276
-136.19559
-86.587223
-47.090949
-17.369201
1.8948489
9.4336712
-40.595518
-84.127191
-133.49122
-184.07014
-237.08801
-293.05312
-352.54174
-416.08563
-484.15877
-557.14091
-635.27234
-718.59832
-806.90523
-899.65552
-995.93975
-1094.4707
-1193.6353
-1291.5943
-1386.3956
-1476.0642
-1558.6466
-1632.2102
-1694.8106
-1744.4439
-1779.0053
-1796.3017
-1794.1941
-1770.8254
-1724.7869
-1655.5866
-1564.1767
-1453.2326
-1326.9993
-1190.7124
-1049.8418
-909.42643
-773.64397
-645.6371
-527.53761
-420.60919
-325.43902
-242.13306
-170.49467
-110.16545
-60.680322
-21.461193
7.9036145
26.82318
34.190445
-39.186015
-81.205571
-128.95648
-178.00166
-229.5771
-284.23743
-342.61701
-405.32147
-472.91389
-545.87592
-624.55684
-709.10832
-799.40473
-894.95513
-994.83066
-1097.647
-1201.6309
-1304.7576
-1404.9091
-1499.9927
-1587.9893
-1666.9352
-1734.8571
-1789.6816
-1829.1472
-1850.7729
-1851.9892
-1830.4108
-1784.0058
-1711.7096
-1614.2147
-1494.4637
-1357.4979
-1209.6436
-1057.4499
-906.79931
-762.38362
-627.54472
-504.371
-393.92852
-296.53081
-211.99198
-139.84131
-79.481853
-30.25367
8.5651696
37.489669
56.043305
63.248061
-37.653456
-77.930957
-123.79691
-171.03291
-220.89031
-273.97561
-330.98887
-392.62124
-459.54182
-532.35672
-611.55217
-697.41848
-789.95131
-888.73206
-992.81718
-1100.6986
-1210.3877
-1319.6105
-1426.0332
-1527.4233
-1621.7037
-1706.9075
-1781.069
-1842.0774
-1887.5235
-1914.6054
-1920.2268
-1901.3238
-1855.0125
-1779.3766
-1674.646
-1544.0585
-1393.7398
-1231.5247
-1065.4185
-902.39172
-747.74753
-605.01129
-476.147
-361.91708
-262.25705
-176.5999
-104.13092
-43.963695
4.7908592
43.023185
71.374293
89.493618
96.516431
-35.748822
-74.004848
-117.69211
-162.83159
-210.68192
-261.90433
-317.27087
-377.56976
-443.59427
-516.10057
-595.74499
-682.99691
-778.01814
-880.50132
-989.50024
-1103.3492
-1219.7674
-1336.14
-1449.8474
-1558.4925
-1659.9573
-1752.3189
-1833.6808
-1901.9531
-1954.6116
-1988.5134
-1999.9357
-1984.9557
-1939.5407
-1860.5131
-1747.2978
-1603.4223
-1436.508
-1256.5014
-1073.3834
-895.5193
-728.91405
-577.21832
-442.13839
-323.98146
-222.16778
-135.64001
-63.16004
-3.4985546
44.496058
81.903889
109.507
127.08841
133.89211
-33.798642
-69.806261
-111.02792
-153.76797
-199.29489
-248.32742
-301.71466
-360.35265
-425.17756
-497.12428
-577.05846
-665.67884
-763.37443
-870.00886
-984.66049
-1105.4665
-1229.7466
-1354.414
-1476.4677
-1593.3176
-1702.8405
-1803.2316
-1892.7566
-1969.4405
-2030.708
-2073.0759
-2092.1042
-2082.7933
-2039.5862
-1957.4492
-1834.4247
-1674.2479
-1486.6348
-1284.5448
-1080.658
-885.11659
-704.69116
-543.02798
-401.36557
-279.34273
-175.68639
-88.717076
-16.684343
42.038974
88.897966
125.17828
151.81077
168.71669
175.24945
-31.322736
-64.748375
-103.16401
-143.16716
-186.018
-232.49055
-283.51357
-340.10059
-403.35043
-474.40931
-554.39884
-644.30993
-744.84125
-856.11883
-977.29943
-1106.278
-1239.82
-1374.1698
-1505.8018
-1631.8968
-1750.3829
-1859.6805
-1958.3494
-2044.6717
-2116.1361
-2168.9577
-2197.9203
-2196.6913
-2157.7331
-2073.3259
-1939.1488
-1758.8901
-1545.2556
-1315.6022
-1086.3282
-869.81906
-673.60737
-501.08747
-352.70839
-227.14648
-122.2091
-35.440269
35.517794
92.742457
137.99688
172.78032
198.17253
214.23453
220.43206
-28.93536
-59.575037
-94.898106
-131.84693
-171.67532
-215.21031
-263.45983
-317.56086
-378.79224
-448.54503
-528.24849
-619.25877
-722.68974
-839.0646
-967.71708
-1106.2535
-1250.6599
-1396.2157
-1538.6639
-1674.9223
-1803.0782
-1921.9456
-2030.5698
-2127.7002
-2211.0805
-2276.711
-2318.537
-2328.671
-2297.0942
-2212.1927
-2065.6525
-1860.4858
-1613.7499
-1349.4075
-1089.0117
-847.73894
-633.73525
-449.70567
-294.82783
-166.4175
-61.081982
24.585444
93.645269
148.6688
191.75053
224.60008
248.43686
263.45851
269.2457
-25.834192
-53.293436
-85.133362
-118.63363
-155.00892
-195.12773
-240.07125
-291.10206
-349.69485
-417.52262
-496.38372
-588.08866
-694.30559
-816.16101
-953.35376
-1103.179
-1260.5223
-1419.2475
-1574.0536
-1721.5577
-1860.1749
-1989.3366
-2108.7973
-2218.0403
-2315.3465
-2396.6705
-2455.0974
-2481.0204
-2461.4981
-2379.4195
-2219.7587
-1983.413
-1693.8853
-1385.4105
-1086.7051
-816.3331
-582.61667
-386.83388
-226.18417
-96.09636
8.3581131
91.722176
157.84418
209.8156
250.05785
280.47254
302.39801
316.15908
321.45187
-22.98828
-47.105632
-75.194283
-104.93112
-137.49266
-173.78011
-214.93922
-262.35467
-317.70651
-382.98395
-460.41882
-552.37033
-661.22114
-788.98825
-936.05568
-1099.4245
-1272.3865
-1446.6592
-1615.398
-1774.8825
-1924.1585
-2063.6289
-2194.075
-2316.1137
-2429.0552
-2529.1512
-2608.669
-2656.1737
-2655.5159
-2582.094
-2409.678
-2133.8916
-1787.8788
-1422.5334
-1076.4508
-772.13892
-517.10699
-310.00287
-145.03332
-15.065102
86.748404
166.26511
228.17946
276.09948
312.74338
340.16671
359.7923
372.05468
376.76252
-19.234011
-39.566152
-63.484018
-89.028727
-117.2856
-149.16107
-185.84193
-228.81622
-279.96355
-341.61516
-416.50516
-507.64562
-618.31859
-751.84319
-909.87018
-1089.2878
-1281.1055
-1473.773
-1658.1742
-1830.2921
-1990.3743
-2140.3279
-2282.2802
-2418.3716
-2549.5402
-2672.7619
-2779.4827
-2856.4152
-2884.4367
-2829.5608
-2647.2466
-2321.0876
-1898.5231
-1458.8323
-1053.8862
-710.45852
-433.22585
-216.29749
-49.467459
77.789134
174.63767
248.39123
304.59688
347.32968
379.53981
403.3746
420.29117
430.80704
434.83609
-15.909567
-32.367268
-51.889486
-72.94621
-96.528173
-123.53008
-155.16126
-192.99636
-239.10697
-296.19305
-367.5742
-457.03034
-568.92205
-708.39624
-879.34053
-1079.0101
-1295.0594
-1510.744
-1713.4131
-1898.7629
-2069.1474
-2228.699
-2381.122
-2530.4778
-2680.386
-2829.6042
-2969.1771
-3084.3385
-3154.0993
-3134.0116
-2949.9605
-2559.1612
-2029.2982
-1490.906
-1012.535
-624.92511
-325.9921
-102.36389
62.502067
183.47609
272.40129
338.09551
386.87919
423.17987
450.07087
469.70135
483.4958
492.01826
495.27555
-11.48394
-23.591286
-38.294737
-54.438725
-72.848211
-94.363334
-120.17011
-151.87531
-191.68088
-242.61967
-308.63712
-394.36287
-505.3334
-649.10839
-833.41874
-1057.1184
-1303.0129
-1546.0302
-1768.1212
-1964.9812
-2142.9746
-2309.8851
-2471.3084
-2633.6121
-2804.7358
-2986.7705
-3170.3484
-3338.4987
-3469.9071
-3511.2595
-3344.1372
-2870.7989
-2184.1437
-1512.8706
-942.74562
-506.96225
-189.29519
35.4981
192.78302
302.75006
380.12518
435.11244
474.59715
503.15958
523.83587
538.65777
548.93426
555.23038
557.6287
-7.5459612
-15.399289
-25.214409
-36.272697
-49.208391
-64.768216
-84.069109
-108.69907
-140.93314
-184.11107
-242.90358
-322.98277
-431.14945
-577.96596
-777.58759
-1033.2901
-1320.8806
-1601.2878
-1847.8982
-2056.6841
-2241.3075
-2415.2345
-2585.4245
-2759.5253
-2951.4778
-3168.7942
-3401.8418
-3630.6657
-3839.9345
-3979.451
-3868.0224
-3294.1308
-2367.8703
-1515.454
-830.29386
-345.16023
-15.872546
201.0946
342.92589
435.88982
497.45769
538.82613
567.05936
586.58862
600.19831
609.6568
616.06207
619.92792
621.39151
-2.4940682
-5.6554449
-10.105358
-15.573915
-22.445105
-31.342533
-43.274038
-59.7496
-83.013265
-116.56782
-165.75646
-237.36457
-339.18073
-484.64202
-697.71938
-992.03984
-1333.7677
-1659.6118
-1930.1033
-2142.1469
-2323.1202
-2495.6062
-2666.7933
-2843.1725
-3048.9952
-3303.1743
-3599.088
-3914.198
-4241.4075
-4553.218
-4583.0239
-3903.4789
-2589.3117
-1483.2208
-653.43144
-124.34886
202.50683
397.84662
513.68296
582.39833
623.43273
648.17681
663.26801
672.57946
678.38185
682.01585
684.26743
685.54427
686.01483
2.9587779
3.9729533
4.546198
4.3726798
3.3872121
1.1545259
-3.1203414
-10.724257
-23.652577
-45.261462
-81.374705
-140.13123
-230.27376
-367.38878
-589.87807
-934.91088
-1357.8541
-1750.6937
-2054.8904
-2266.9254
-2439.881
-2611.5593
-2788.5991
-2969.4142
-3193.9266
-3500.0131
-3883.2977
-4313.0926
-4763.9038
-5291.5206
-5573.8108
-4825.3582
-2837.3025
-1376.2424
-376.92628
174.90794
474.14862
627.83391
704.33957
740.62079
756.27984
761.57869
761.89069
760.03379
757.47687
754.9668
752.88179
751.47207
750.91455
8.2851038
13.265293
19.323474
25.157896
31.020553
36.677751
41.594973
44.762914
44.510211
37.799584
18.45182
-23.539514
-98.147132
-220.10682
-443.9424
-853.46464
-1397.2824
-1876.4152
-2210.7434
-2392.8798
-2530.4289
-2685.6839
-2862.7831
-3027.8155
-3238.6406
-3573.5321
-4023.7144
-4561.7465
-5089.7123
-5960.3615
-6823.7186
-6299.515
-3074.0134
-1170.952
36.506213
572.65443
805.01156
890.17315
911.79861
907.31674
893.25876
876.87487
861.26329
847.66072
836.46128
827.67499
821.19631
817.07773
815.48541
17.841134
25.85968
36.761701
47.719689
59.416556
71.801277
84.631415
97.258331
108.52212
116.23556
114.96622
93.715042
41.619635
-49.538744
-244.67582
-715.15171
-1441.8805
-2033.6104
-2413.3734
-2545.7127
-2643.0186
-2787.1995
-2982.1465
-3113.6803
-3276.6779
-3677.6993
-4224.3719
-4961.7038
-5679.3061
-7242.8545
-8882.0931
-9068.3533
-3578.1303
-1038.2199
635.19274
1099.0916
1197.3505
1178.979
1129.5269
1077.288
1030.5871
991.36615
959.44074
934.02391
914.23811
899.26815
888.48433
881.71981
879.11784
22.150577
30.895226
46.136714
62.238184
80.171487
100.1082
122.29203
146.74772
173.26274
201.23826
227.4148
240.71425
225.96284
180.34515
45.408274
-483.28478
-1555.1592
-2311.4997
-2773.6628
-2771.0094
-2749.6661
-2813.1455
-3022.6414
-3099.9062
-3207.1642
-3763.264
-4232.9952
-5185.2225
-6470.8437
-7863.4482
-9589.1447
-12103.541
-4823.2663
-72.515478
1722.8302
1811.9822
1641.1417
1478.7597
1346.2291
1243.2029
1163.5567
1101.9561
1054.3109
1017.6213
989.68992
968.87396
954.02836
944.77017
941.21688
36.937085
46.533228
66.460079
87.313975
110.74801
137.07735
166.9065
200.72073
238.86195
281.66246
327.57434
365.35464
371.82617
347.26586
293.74122
-191.10997
-1818.0787
-2617.1356
-3115.4967
-2772.7582
-2626.8088
-2732.5433
-3131.7562
-3271.1281
-3302.4344
0
0
0
0
0
0
0
0
6202.3747
3402.4557
2582.4949
2068.238
1755.859
1545.1248
1396.0879
1287.0009
1205.4545
1143.7773
1096.9946
1061.7464
1035.6636
1017.15
1005.6364
1001.222
35.366745
42.182729
64.028391
87.075048
113.20487
142.73966
176.57921
215.67649
261.07464
314.4244
377.58993
445.98899
502.7992
560.82539
710.68039
552.80381
-1996.7859
-2776.9631
-3646.906
-2968.638
-3044.3366
-3012.325
0
0
0
0
0
0
0
0
0
0
10129.574
6286.2532
4123.9543
3000.3238
2361.3124
1969.1776
1709.0488
1527.5627
1396.2854
1299.0422
1225.9919
1170.8549
1129.4565
1098.8962
1077.2392
1063.7835
1058.626
44.263796
54.950246
80.950027
106.97756
136.15435
169.03596
206.87563
251.10408
303.50601
367.08023
447.11634
546.08818
653.28837
754.39081
842.19533
568.47253
-3108.2262
-3581.5994
-3205.2815
0
0
0
0
0
0
0
0
0
0
0
1780.6712
3364.5938
5756.1159
5236.0891
3961.3818
3100.1679
2507.1425
2107.7396
1830.6538
1632.9916
1488.4293
1380.7304
1299.5692
1238.1931
1192.0509
1157.9571
1133.7802
1118.7531
1112.992
22.191612
42.16632
66.370987
91.284882
118.75234
149.5472
184.74317
225.50523
273.13231
329.82963
399.49967
478.02696
537.52987
536.24735
558.10672
702.38601
0
0
0
0
0
0
-1132.068
-1103.5237
-1011.306
-917.55674
-790.08561
-495.29947
-94.947878
697.08329
2026.4392
3361.9101
4750.9868
4489.8571
3714.8016
3058.6861
2552.665
2182.2198
1911.4451
1711.661
1562.3542
1449.5315
1363.6919
1298.3445
1248.9829
1212.3849
1186.3699
1170.1774
1163.9657
19.953996
50.022169
74.970464
100.54378
127.96153
158.05669
191.47956
228.6648
269.57185
313.4178
357.89951
396.562
406.14878
338.09163
142.01762
-338.13572
-1284.417
-1227.4744
-1147.1014
-1100.4781
-1051.0812
-1021.6128
-1010.3644
-803.28955
-838.68256
-583.18218
-362.34556
-204.61789
259.08226
904.85404
1960.2921
3049.3228
3956.5649
3851.8961
3404.2976
2933.5966
2528.4612
2206.0151
1956.7035
1765.4219
1618.5283
1505.3804
1418.1049
1351.0008
1299.9418
1261.8828
1234.7279
1217.788
1211.2834
20.663323
46.485398
72.120234
97.971735
125.28632
154.81506
187.13903
222.62484
261.25897
302.13397
342.03485
373.73544
384.8186
353.1583
205.21567
-227.92233
-792.30501
-920.95885
-962.54789
-966.15065
-887.80282
-842.32035
-818.54967
-691.80038
-620.94405
-417.54077
-179.1438
77.742398
510.88641
1096.4657
1896.1863
2721.5877
3334.885
3356.8262
3105.6563
2777.1426
2463.3569
2193.8096
1973.597
1797.6781
1658.5133
1548.9426
1463.0383
1396.1799
1344.843
1306.3172
1278.6974
1261.418
1254.7752
14.996588
36.230583
58.796961
81.290972
104.29076
128.03539
152.53036
177.41582
201.78984
223.689
238.89673
240.18098
218.24884
159.21437
15.07503
-283.91214
-606.90318
-732.46456
-784.51839
-794.28636
-753.12523
-703.47426
-642.23516
-537.76239
-423.88672
-238.24355
-11.499035
269.88333
668.60794
1187.7217
1823.2418
2450.8959
2889.52
2967.0581
2834.9716
2613.0006
2376.181
2157.6757
1969.188
1812.3851
1684.4717
1581.3757
1499.0905
1434.1692
1383.7995
1345.7034
1318.2389
1300.999
1294.3622
23.838359
46.44487
70.189836
93.656095
117.54415
141.96089
166.72584
191.21032
214.0956
232.81498
242.68418
236.6698
205.9886
135.39746
-7.2594703
-236.55111
-460.15476
-579.80578
-635.38318
-644.5409
-615.83468
-568.29285
-497.28125
-394.46025
-264.34943
-82.933274
139.16058
416.113
777.02612
1223.7716
1735.5097
2221.7449
2557.2295
2658.5597
2599.6222
2454.8458
2280.1774
2107.1223
1949.7492
1813.4685
1698.7937
1604.1104
1527.1057
1465.4571
1417.0846
1380.1841
1353.4174
1336.5529
1330.0507
12.024197
29.927684
50.032156
70.035693
90.04095
109.92715
129.38605
147.74679
163.76063
175.18258
178.31554
168.06141
137.63839
74.65418
-40.055273
-203.50779
-358.80727
-456.74757
-506.07909
-514.23369
-488.9302
-440.00577
-365.68947
-262.60114
-128.53886
46.963813
261.85407
525.19052
849.67384
1232.3369
1648.6358
2032.8053
2301.9484
2411.5827
2398.1272
2308.535
2183.159
2048.9505
1920.3864
1804.4649
1703.8306
1618.6746
1548.0636
1490.6657
1445.0899
1410.0046
1384.3864
1368.1809
1361.9228
21.407251
40.632402
60.854054
80.367668
99.453512
117.84336
135.02353
150.10159
161.62883
167.3235
163.94526
147.54838
113.08091
52.273465
-43.557098
-165.61546
-279.00349
-356.12489
-395.69013
-400.45685
-375.18761
-324.7258
-248.67432
-145.28299
-11.774537
156.79206
361.05871
606.02152
895.95131
1224.4155
1567.8659
1878.5071
2101.9966
2212.1871
2227.1461
2176.7602
2089.8432
1988.0672
1885.0994
1788.3893
1701.7407
1626.5692
1562.9904
1510.4905
1468.2861
1435.4854
1411.3694
1396.0503
1390.1244
11.86413
27.968627
45.959708
63.611562
80.820442
97.231837
112.31655
125.22193
134.61699
138.5095
134.22469
118.5589
87.502106
35.679486
-40.002433
-130.43191
-213.52495
-271.83087
-300.8492
-300.62668
-273.46224
-221.63412
-145.03221
-42.511436
87.993864
248.90823
441.01331
666.30001
924.5737
1207.7339
1495.1764
1752.1618
1942.6277
2049.7634
2082.4748
2059.9377
2002.6777
1927.6331
1846.8489
1767.6911
1694.4088
1629.1878
1572.8934
1525.6519
1487.188
1456.9983
1434.6426
1420.3801
1414.8533
17.140346
33.23729
50.219957
66.364709
81.71424
95.886627
108.32914
118.22201
124.38312
125.18546
118.61209
102.36226
73.690857
29.625245
-29.989057
-97.382338
-158.13667
-200.46231
-219.38511
-213.53463
-183.55798
-130.34345
-53.764602
46.96
173.10518
325.77623
505.17454
711.24593
941.41785
1187.1577
1431.2308
1648.3109
1813.9317
1916.4934
1960.2182
1957.4974
1922.9606
1869.6947
1807.8362
1744.31
1683.4261
1627.7746
1578.7186
1536.8588
1502.3252
1474.9434
1454.517
1441.4273
1436.3459
11.965863
26.365684
42.104143
57.216534
71.535669
84.633644
95.955379
104.72767
109.89829
110.11332
103.80184
89.276475
64.758093
28.907134
-17.019839
-66.703862
-110.25026
-139.22906
-148.99474
-137.55156
-104.54808
-50.079877
26.067641
124.3985
245.54552
389.78509
556.6469
744.78721
950.46824
1165.4729
1375.703
1562.5371
1708.9268
1806.4494
1856.8886
1868.2986
1851.1306
1815.443
1769.5681
1719.7244
1670.0955
1623.4064
1581.3245
1544.7826
1514.2205
1489.731
1471.3234
1459.4737
1454.8654
13.672507
27.359547
41.871615
55.550688
68.315636
79.771078
89.415319
96.581002
100.40702
99.8488
93.763409
81.006998
60.559358
32.098257
-2.5895961
-38.476796
-68.50191
-86.407893
-88.110263
-71.431498
-35.489861
20.053767
95.479064
191.07345
307.00093
442.97315
597.96259
769.8653
954.48529
1144.3014
1327.8965
1491.4041
1622.6057
1715.1562
1769.5573
1791.0632
1787.166
1765.5767
1733.0728
1695.0575
1655.463
1616.994
1581.4705
1550.0417
1523.3729
1501.7669
1485.3995
1474.8146
1470.6908
11.353734
24.027804
37.645069
50.500493
62.432283
73.046675
81.879915
88.35188
91.760541
91.312484
86.205914
75.732551
59.445826
37.650856
12.275823
-12.652612
-31.897105
-40.645374
-35.405321
-14.03811
24.575172
80.98806
155.49816
248.21822
358.97813
487.09982
631.16218
788.66162
955.34855
1124.537
1286.9994
1432.2477
1551.2799
1639.1805
1695.7792
1724.5048
1730.7496
1720.4238
1699.0129
1671.1264
1640.351
1609.2932
1579.8151
1553.1928
1530.2474
1511.4409
1497.0794
1487.7488
1484.1072
11.407401
23.295966
35.92342
47.75427
58.666093
68.30491
76.268328
82.076578
85.182409
85.01021
81.03308
72.876158
60.488901
44.521855
26.847033
10.720911
0.16221687
-1.0285568
10.105127
35.553643
76.498476
133.57319
207.05473
296.91449
402.74636
523.60875
657.835
802.75867
954.29671
1106.6001
1252.184
1382.975
1492.164
1575.8542
1633.531
1667.4209
1681.4219
1680.0716
1667.7998
1648.5059
1625.3917
1600.918
1576.9173
1554.7265
1535.2674
1519.1182
1506.6841
1498.5699
1495.3981
10.343685
21.515181
33.418421
44.560458
54.805564
63.829304
71.285593
76.786867
79.922686
80.301473
77.620441
71.762502
62.950885
52.019308
40.711514
31.704583
28.181814
33.206171
49.281004
78.204104
121.12184
178.6676
251.07227
338.19292
439.45864
553.75777
679.29277
813.3821
952.21498
1090.711
1222.751
1342.0027
1443.1846
1523.143
1581.1967
1618.7734
1638.7033
1644.4824
1639.6899
1627.6162
1611.0824
1592.3708
1573.251
1555.0717
1538.8125
1525.1345
1514.516
1507.5605
1504.8389
9.9405946
20.476328
31.670248
42.129929
51.739956
60.213172
67.259564
72.575011
75.865092
76.886546
75.510227
71.80729
66.178103
59.538008
53.481286
50.24978
52.43156
62.543777
82.714953
114.54268
159.08925
216.94367
288.2778
372.85651
469.99572
578.48182
696.46733
821.34136
949.60171
1076.8381
1197.9922
1307.9978
1402.658
1479.3695
1537.3811
1577.5848
1602.0454
1613.4712
1614.7637
1608.7012
1597.7592
1584.0279
1569.1938
1554.5861
1541.2119
1529.7892
1520.8521
1514.9868
1512.693
9.3564766
19.364652
30.008259
39.956244
49.101758
57.191721
63.988124
69.261334
72.815783
74.529109
74.407809
72.660998
69.801488
66.769524
65.017834
66.459368
73.249281
87.495299
111.02092
145.23549
191.09805
249.13257
319.44819
401.73626
495.23674
598.68173
710.22608
827.3727
946.92335
1065.0315
1177.4567
1280.06
1369.4248
1443.3596
1501.0937
1543.1578
1571.0662
1586.9341
1593.1289
1592.0065
1585.7413
1576.2379
1565.0915
1553.5955
1542.7631
1533.3519
1525.9431
1521.0955
1519.21
8.9349141
18.485905
28.650018
38.160381
46.92272
54.715538
61.346395
66.648379
70.506145
72.89209
73.915002
73.881562
73.372729
73.32347
75.061898
80.251836
90.729692
108.29424
134.52441
170.66313
217.56491
275.68292
345.06637
425.34874
515.72058
614.89137
721.04829
831.82291
944.29336
1055.0741
1160.5501
1257.2636
1342.3646
1413.9702
1471.316
1514.688
1545.2053
1564.5392
1574.6422
1577.5286
1575.1196
1569.1522
1561.1293
1552.3021
1543.6747
1536.0292
1529.9951
1526.107
1524.6257
8.549079
17.743405
27.539617
36.720521
45.201024
52.787976
59.328623
64.708526
68.876926
71.879779
73.902038
75.31814
76.748546
79.109461
83.625385
91.772738
105.153
125.33285
153.699
191.35439
239.05826
297.19668
365.76581
444.35465
532.12291
627.77678
729.54933
835.1971
942.03485
1047.0431
1147.0787
1239.1822
1320.9143
1390.6221
1447.5578
1491.8422
1524.3114
1546.3081
1559.4676
1565.534
1566.2217
1563.124
1557.6587
1551.0348
1544.2384
1538.066
1533.2125
1530.2275
1529.1727
8.1797857
17.102047
26.616316
35.54929
43.821573
51.264731
57.758786
63.230975
67.680211
71.207404
74.052452
76.635644
79.599253
83.837219
90.492159
100.90211
116.49767
138.67423
168.67184
207.48157
255.78245
313.90271
381.79451
459.01368
544.70149
637.57073
735.90221
837.56184
940.05559
1040.6442
1136.5321
1225.1184
1304.2579
1372.4655
1429.0134
1473.9117
1507.7978
1531.7769
1547.2486
1555.7515
1558.8382
1557.987
1554.5453
1549.6884
1544.3856
1539.4362
1535.6164
1533.5678
1533.0772
7.8074563
16.603225
25.940215
34.712385
42.84687
50.199201
56.67642
62.237832
66.919088
70.860604
74.340359
77.808453
81.918082
87.542154
95.761437
107.81578
125.01712
148.64043
179.81989
219.46312
268.18733
326.27549
393.64622
469.83197
553.96375
644.76459
740.55707
839.294
938.62524
1036.0143
1128.9106
1214.9609
1292.2225
1359.3282
1415.5679
1460.8796
1495.7664
1521.1685
1538.3188
1548.6073
1553.4676
1554.2914
1552.3717
1548.8584
1544.7049
1540.6817
1537.6135
1536.3931
1536.6783
7.3041511
16.167657
25.424113
34.111305
42.165084
49.465437
55.940188
61.570814
66.417068
70.64441
74.554149
78.613463
83.47978
90.010275
99.245811
112.36627
130.61002
155.1734
187.12031
227.30292
276.29662
334.35355
401.36982
476.86296
559.95868
649.38892
743.50641
840.32348
937.58549
1032.8874
1123.8342
1208.2288
1284.2558
1350.6229
1406.633
1452.1809
1487.6865
1513.9856
1532.2043
1543.6362
1549.6366
1551.5377
1550.5921
1547.9355
1544.515
1541.0466
1538.3501
1537.9194
1540.1126
6.0814506
15.835439
25.143111
33.822717
41.845809
49.124408
55.600556
61.267928
66.198585
70.570512
74.696769
79.053279
84.300346
91.289972
101.0478
114.71757
133.48997
158.52448
190.85506
231.307
280.43482
338.47498
405.3121
480.45617
563.03035
651.7714
745.04778
840.90239
937.12891
1031.3881
1121.362
1204.9308
1280.3419
1346.3402
1402.236
1447.9039
1483.7234
1510.4793
1529.246
1541.2698
1547.8629
1550.3266
1549.9016
1547.7269
1544.7599
1541.6755
1539.2598
1539.7828
1545.625
-2227.7589
-2483.6255
-2699.5396
-2881.4844
-3023.9682
-3106.2153
-3108.2262
-3029.222
-2857.2793
-2664.004
-3205.3895
-3205.2815
-3198.436
-3187.4491
-3173.3348
-3160.582
-3148.7463
-3158.213
-3158.8151
-3131.4107
-3183.0318
-3181.9074
-3167.153
-3150.1898
-3133.2746
-3124.2838
-3105.9913
-3113.2083
-3100.0767
-3046.5506
-3137.8424
-3135.1803
-3126.5771
-3117.8814
-3109.0879
-3112.1001
-3101.0045
-3098.9718
-3085.5706
-3048.7087
-3078.1503
-3076.7157
-3072.1702
-3066.2528
-3057.7473
-3058.1473
-3057.813
-3057.1428
-3055.6643
-3059.4012
-3030.1696
-3029.3772
-3023.6164
-3013.4552
-2998.2003
-2968.638
-2990.802
-3003.1028
-3009.7485
-3023.0973
-3013.4133
-3015.1074
-3018.3591
-3021.7463
-3032.663
-3008.5371
-3008.2151
-3004.5879
-2989.6697
-2966.6816
-3027.9236
-3029.5544
-3035.6402
-3044.3366
-3068.3866
-3076.1031
-3056.7219
-3030.7045
-3000.8676
-2965.4637
-3848.4533
-3860.7656
-3831.7268
-3787.3172
-3749.7574
-3717.6922
-3696.1889
-3682.4627
-3673.5228
-3675.2649
-2986.9819
-2985.7898
-2977.9088
-2960.9538
-2921.5856
-2946.9465
-2958.9513
-2961.144
-2950.6581
-2923.5512
-3009.2485
-3012.325
-3018.6883
-3037.9316
-3013.9716
-3005.2511
-3001.2994
-2993.8839
-2979.8937
-2964.752
-3048.5071
-3050.9596
-3056.1376
-3080.7268
-3093.4965
-3069.4242
-3042.6923
-3022.4077
-3003.5389
-2987.0532
-2999.6599
-2995.8312
-2976.9423
-2951.6614
-2974.5984
-2992.0794
-3003.3184
-3010.7383
-3013.0015
-3020.0189
-3033.2656
-3035.726
-3034.8624
-2997.9712
-3007.1046
-3020.7174
-3031.5176
-3038.7507
-3041.8001
-3051.3648
-3156.8906
-3164.6846
-3188.9179
-3187.4471
-3159.5473
-3131.7562
-3111.0628
-3095.6699
-3080.2525
-3063.0197
-3141.9785
-3137.1437
-3129.6601
-3149.8312
-3150.4251
-3144.6323
-3138.4098
-3132.9748
-3126.9767
-3128.879
-3162.756
-3162.0354
-3137.7509
-3147.905
-3159.3507
-3167.4868
-3171.9069
-3173.7107
-3173.0012
-3177.7026
-3277.1167
-3289.52
-3285.4693
-3271.1281
-3255.8063
-3243.7654
-3235.0339
-3229.2402
-3222.4249
-3213.8645
-3282.4893
-3286.5608
-3294.0154
-3285.9375
-3276.2944
-3270.7944
-3270.5593
-3275.0004
-3280.0411
-3292.3436
-3186.3253
-3172.2153
-3189.5517
-3215.4286
-3244.902
-3273.599
-3300.5729
-3325.1457
-3345.2985
-3370.2637
-3326.0536
-3302.4344
-3312.0419
-3332.3495
-3359.113
-3384.3608
-3406.8263
-3425.2576
-3437.776
-3453.4909
-3701.6754
-3692.656
-3661.9572
-3627.8862
-3602.8073
-3583.322
-3571.2319
-3564.074
-3557.959
-3555.093
-3016.6791
-3015.1535
-3009.7384
-2998.1201
-2992.6341
-2999.8929
-2999.5301
-2994.1796
-2984.9473
-2983.9236
-3540.5387
-3549.1355
-3563.5698
-3610.8537
-3667.0293
-3718.8608
-3739.9431
-3721.804
-3638.1033
-3466.2537
-3268.7591
-3268.9939
-3271.9434
-3276.8115
-3277.9223
-3277.0262
-3275.0649
-3269.9202
-3265.7626
-3219.2854
-3179.5265
-3227.5527
-3289.6671
-3394.3703
-3505.6957
-3592.5213
-3635.0771
-3595.2077
-3447.0644
-3214.6356
-3480.2775
-3490.321
-3511.2518
-3547.951
-3581.5994
-3610.2589
-3618.83
-3618.3252
-3582.5472
-3470.158
-3367.3459
-3371.7358
-3385.9154
-3409.8736
-3430.8345
-3448.4905
-3456.616
-3446.1971
-3433.5794
-3381.8279
11318.721
10715.546
10129.574
9489.9386
8832.8455
8179.5385
7545.1797
6936.7832
6347.3435
5770.3035
8301.8478
8224.5309
8101.259
7839.6069
7501.7186
7111.2843
6689.606
6254.5656
5816.3984
5360.0005
-3709.5012
-3727.9368
-3745.3445
-3751.3109
-3759.9996
-3763.264
-3768.0594
-3771.4952
-3772.8204
-3776.3121
-3705.8524
-3709.7036
-3745.0499
-3776.2807
-3815.3396
-3842.5113
-3866.4377
-3882.4677
-3891.1152
-3895.303
-3946.516
-3939.2805
-3955.5094
-3963.0865
-3991.4664
-4009.8461
-4029.673
-4042.6493
-4048.0686
-4043.6187
-4222.4237
-4212.0687
-4226.3376
-4216.924
-4232.9952
-4234.8771
-4241.3997
-4242.4483
-4238.8763
-4234.5152
-4544.8772
-4526.7375
-4538.4827
-4511.4475
-4515.2333
-4497.3864
-4484.9283
-4464.9013
-4437.2338
-4404.8731
-4901.106
-4873.8838
-4883.4909
-4837.0696
-4828.6377
-4790.1487
-4757.3178
-4713.8957
-4659.2262
-4599.0152
-5281.8501
-5243.3997
-5252.0398
-5185.2225
-5165.6724
-5107.5837
-5056.1882
-4992.7193
-4916.4639
-4831.152
-5682.8607
-5630.7856
-5639.6103
-5550.5892
-5519.7723
-5441.5443
-5370.878
-5288.4431
-5198.4691
-5115.9187
-6105.0445
-6035.922
-6045.7711
-5931.7768
-5888.3061
-5787.8973
-5693.5298
-5583.5013
-5458.1881
-5322.5876
-6548.5008
-6458.413
-6470.8437
-6329.1988
-6271.9446
-6149.0599
-6030.8969
-5896.7847
-5747.1786
-5585.4193
-7019.3419
-6902.2109
-6917.9749
-6744.4921
-6670.3459
-6522.755
-6376.8537
-6214.6288
-6036.1373
-5850.2667
-7516.4407
-7366.2093
-7388.3268
-7179.8874
-7085.7244
-6911.6639
-6733.869
-6537.7866
-6319.1654
-6081.8853
-8058.1152
-7863.4482
-7892.3981