/*--------------------------------*- C++ -*----------------------------------*\
| =========                 |                                                 |
| \\      /  F ield         | foam-extend: Open Source CFD                    |
|  \\    /   O peration     | Version:     4.1                                |
|   \\  /    A nd           | Web:         http://www.foam-extend.org         |
|    \\/     M anipulation  |                                                 |
\*---------------------------------------------------------------------------*/
FoamFile
{
    version     2.0;
    format      ascii;
    class       volScalarField;
    location    "0.5";
    object      p;
}
// * * * * * * * * * * * * * * * * * * * * * * * * * * * * * * * * * * * * * //

dimensions      [0 2 -2 0 0 0 0];

internalField   nonuniform List<scalar> 
16796
(
-12.322934
-19.766512
-28.432449
-37.103965
-45.709006
-54.203055
-62.562148
-70.769098
-78.809257
-86.668898
-94.334668
-101.79342
-109.03235
-116.03921
-122.80273
-129.31305
-135.56231
-141.54524
-147.25985
-152.70815
-157.89682
-162.83796
-167.54971
-172.05685
-176.39131
-180.5925
-184.70756
-188.79139
-192.90646
-197.1225
-201.51586
-206.16872
-211.16795
-216.60388
-222.56888
-229.15579
-236.45616
-244.55855
-253.54726
-263.49997
-274.48531
-286.56179
-299.77601
-314.16114
-329.73572
-346.50245
-364.44656
-383.53477
-403.71463
-424.91368
-447.03888
-469.97609
-493.58988
-517.72344
-542.19882
-566.81725
-591.3598
-615.58835
-639.24678
-662.06262
-683.74898
-704.00699
-722.52862
-738.99988
-753.10458
-764.52831
-772.96286
-778.1109
-779.69082
-777.44165
-771.128
-760.54477
-745.52156
-725.92677
-701.67085
-672.70931
-639.04515
-600.72788
-557.85149
-510.55563
-459.04425
-403.58283
-344.45113
-281.94632
-216.40581
-148.19528
-77.700676
-5.3217604
68.534235
143.45869
219.04741
294.90592
370.65434
445.9315
520.39854
593.74162
665.67398
735.93735
804.30252
870.56943
934.56665
996.15046
1055.2034
1111.6328
1165.3685
1216.3612
1264.5802
1310.0112
1352.6542
1392.5218
1429.6369
1464.0318
1495.7463
1524.8273
1551.3264
1575.3009
1596.8205
1615.9903
1632.9179
1647.5781
1659.8116
1670.655
1683.8602
1701.6402
-10.675289
-19.546193
-28.418695
-37.158658
-45.789414
-54.297035
-62.665471
-70.879995
-78.926774
-86.792334
-94.463339
-101.92656
-109.16903
-116.17835
-122.94301
-129.45294
-135.70006
-141.67887
-147.38717
-152.82675
-158.0041
-162.93119
-167.626
-172.11326
-176.42485
-180.6002
-184.68653
-188.73887
-192.81991
-196.99966
-201.35484
-205.96804
-210.92659
-216.32133
-222.24531
-228.79208
-236.05392
-244.12021
-253.07635
-263.00044
-273.9614
-286.01845
-299.2189
-313.59661
-329.17099
-345.9456
-363.90611
-383.01958
-403.23399
-424.47724
-446.65651
-469.6578
-493.34566
-517.56318
-542.13211
-566.85329
-591.50722
-615.85505
-639.63975
-662.58779
-684.41103
-704.80921
-723.47273
-740.08593
-754.33078
-765.89099
-774.4564
-779.72769
-781.42133
-779.27447
-773.04999
-762.5412
-747.57637
-728.02286
-703.79045
-674.8344
-641.15815
-602.81478
-559.90844
-512.58983
-461.04576
-405.50056
-346.23568
-283.57573
-217.86686
-149.47862
-78.79993
-6.2331929
67.811848
142.92418
218.69735
294.73481
370.65478
446.0945
520.71371
594.19748
666.25825
736.63715
805.10471
871.46079
935.53412
997.18129
1056.2854
1112.7541
1166.5183
1217.5291
1265.7567
1311.1873
1353.8218
1393.6731
1430.7646
1465.1283
1496.8038
1525.8364
1552.2753
1576.1769
1597.6117
1616.6682
1633.4164
1647.8281
1659.8584
1670.4224
1681.3147
1691.2965
-10.07123
-19.032017
-28.055453
-36.894055
-45.597996
-54.169978
-62.601286
-70.879862
-78.992502
-86.925461
-94.664685
-102.19599
-109.50533
-116.5791
-123.4046
-129.97052
-136.26755
-142.28904
-148.03164
-153.49615
-158.68815
-163.61879
-168.30545
-172.77238
-177.05115
-181.18111
-185.20957
-189.1919
-193.19131
-197.27861
-201.53154
-206.03381
-210.8743
-216.1458
-221.94361
-228.36302
-235.49821
-243.44077
-252.27698
-262.08692
-272.94318
-284.90778
-298.03074
-312.3488
-327.88323
-344.63856
-362.60202
-381.74245
-402.00914
-423.33104
-445.61597
-468.75017
-492.59804
-517.00209
-541.78309
-566.74042
-591.65273
-616.27883
-640.35898
-663.61649
-685.75973
-706.48456
-725.47724
-742.41773
-756.98346
-768.85347
-777.71295
-783.25799
-785.20059
-783.2737
-777.23629
-766.87817
-752.02456
-732.5404
-708.33334
-679.35725
-645.61546
-607.16262
-564.10416
-516.59331
-464.82694
-409.04014
-349.51273
-286.56463
-220.54491
-151.82771
-80.806742
-7.8892576
66.510249
141.97618
218.09774
294.47441
370.72084
446.47116
521.38254
595.13803
667.44855
738.05432
806.72538
873.26163
937.49223
999.27457
1058.4928
1115.0561
1168.8968
1219.9677
1268.2408
1313.7043
1356.3607
1396.2248
1433.3218
1467.6855
1499.3569
1528.3824
1554.8121
1578.7033
1600.1246
1619.1518
1635.832
1650.1663
1662.2501
1672.7907
1681.954
1687.484
-9.9803254
-18.881972
-27.954468
-36.846063
-45.597249
-54.212925
-62.687184
-71.009487
-79.167108
-87.146134
-94.931938
-102.50952
-109.86381
-116.98012
-123.84456
-130.4446
-136.76971
-142.81204
-148.56715
-154.03477
-159.21956
-164.13191
-168.78858
-173.21337
-177.43762
-181.50066
-185.45
-189.34143
-193.23884
-197.21395
-201.34561
-205.71906
-210.4255
-215.55999
-221.21888
-227.49921
-234.4975
-242.3076
-251.01851
-260.71313
-271.46633
-283.34279
-296.39521
-310.66286
-326.16968
-342.92295
-360.91221
-380.10832
-400.4621
-421.90377
-444.3421
-467.66389
-491.73362
-516.39341
-541.46309
-566.74058
-592.00246
-617.00491
-641.48496
-665.16213
-687.74043
-708.91089
-728.35444
-745.74537
-760.75511
-773.05656
-782.32861
-788.26113
-790.56004
-788.95248
-783.19203
-773.06361
-758.3882
-739.02735
-714.8855
-685.91467
-652.11858
-613.55365
-570.32323
-522.57921
-470.521
-414.3916
-354.47727
-291.10257
-224.62296
-155.41944
-83.892817
-10.457503
64.46491
140.45195
217.0863
293.96145
370.68665
446.89136
522.22886
596.37907
669.05066
739.98233
808.94336
875.73359
940.18274
1002.1492
1061.5188
1118.2024
1172.1343
1223.2698
1271.5831
1317.0647
1359.7194
1399.5641
1436.6259
1470.94
1502.5487
1531.4991
1557.8417
1581.6339
1602.9403
1621.8225
1638.3143
1652.4508
1664.3895
1674.6067
1682.5887
1686.5124
-9.857327
-18.707727
-27.814533
-36.764885
-45.581626
-54.265665
-62.810606
-71.205864
-79.438379
-87.493532
-95.355691
-103.0086
-110.4358
-117.62102
-124.54875
-131.2048
-137.57695
-143.65573
-149.43512
-154.9134
-160.09394
-164.986
-169.60541
-173.97531
-178.12665
-182.09863
-185.93898
-189.70402
-193.4585
-197.27536
-201.23516
-205.42597
-209.94204
-214.87962
-220.33731
-226.41569
-233.21469
-240.83171
-249.35974
-258.88559
-269.48792
-281.23528
-294.18415
-308.37735
-323.8423
-340.58964
-358.61175
-377.88202
-398.35349
-419.958
-442.60546
-466.18318
-490.55553
-515.56384
-541.02642
-566.73896
-592.47503
-617.98705
-643.00754
-667.25073
-690.41467
-712.18374
-732.23167
-750.22504
-765.82722
-778.70274
-788.52207
-794.96669
-797.73434
-796.54436
-791.14309
-781.30887
-766.85709
-747.64465
-723.57186
-694.5888
-660.7003
-621.9645
-578.48619
-530.42
-477.96894
-421.38178
-360.95081
-297.00698
-229.91371
-160.06086
-87.858583
-13.730787
61.891472
138.57654
215.89843
293.4426
370.81115
447.62732
523.53922
598.22271
671.38348
742.75831
812.11562
879.25524
944.00774
1006.2331
1065.8192
1122.6795
1176.7514
1227.9933
1276.3824
1321.9127
1364.5921
1404.4404
1441.4873
1475.7702
1507.3326
1536.2223
1562.4899
1586.1913
1607.3841
1626.1162
1642.4129
1656.324
1667.9802
1677.635
1684.5976
1687.7085
-9.8829674
-18.712908
-27.839203
-36.830003
-45.697067
-54.436802
-63.041178
-71.498875
-79.796193
-87.917704
-95.846734
-103.56577
-111.05689
-118.30224
-125.28459
-131.98795
-138.39831
-144.50437
-150.29838
-155.77699
-160.94204
-165.80147
-170.37003
-174.67002
-178.73183
-182.59446
-186.30576
-189.9226
-193.51052
-197.14381
-200.9055
-204.88716
-209.18413
-213.89474
-219.12167
-224.96892
-231.54018
-238.93707
-247.25695
-256.59111
-267.02272
-278.62488
-291.45861
-305.57117
-320.99414
-337.74225
-355.81146
-375.17824
-395.79853
-417.60624
-440.51291
-464.40662
-489.15181
-514.58902
-540.53496
-566.78281
-593.1027
-619.24268
-644.92992
-669.87238
-693.76095
-716.272
-737.07048
-755.81357
-772.15469
-785.7481
-796.25381
-803.34284
-806.70267
-806.04284
-801.10051
-791.64561
-777.48633
-758.47335
-734.50156
-705.51817
-671.52825
-632.59007
-588.81025
-540.3469
-487.4085
-430.25109
-369.17507
-304.52039
-236.66064
-165.99684
-92.950875
-17.958677
58.536749
136.09213
214.27049
292.64714
370.81513
448.38985
525.01291
600.35505
674.11825
746.03694
815.87844
883.44268
948.56136
1011.0965
1070.9387
1128.0048
1182.2359
1233.5946
1282.0623
1327.6372
1370.3314
1410.1688
1447.1827
1481.414
1512.9091
1541.718
1567.893
1591.4902
1612.5634
1631.154
1647.2885
1661.0245
1672.4438
1681.6495
1687.9529
1690.6404
-9.8846481
-18.715564
-27.875155
-36.919687
-45.85211
-54.664549
-63.346788
-71.886188
-80.267944
-88.475447
-96.490662
-104.29451
-111.86731
-119.18929
-126.24115
-133.0048
-139.46401
-145.60535
-151.41895
-156.89946
-162.04689
-166.86756
-171.37485
-175.59002
-179.54275
-183.27174
-186.82499
-190.25991
-193.643
-197.05059
-200.56904
-204.29237
-208.31756
-212.74743
-217.68866
-223.24958
-229.53879
-236.66296
-244.72485
-253.82124
-264.04089
-275.46248
-288.15252
-302.16363
-317.53243
-334.27848
-352.40209
-371.88342
-392.68168
-414.733
-437.95103
-462.22469
-487.41838
-513.37168
-539.89931
-566.79136
-593.8138
-620.70938
-647.19884
-672.98258
-697.74286
-721.1464
-742.84761
-762.49232
-779.72199
-794.17848
-805.50917
-813.37247
-817.44353
-817.42
-813.02804
-804.02738
-790.21767
-771.44208
-747.58921
-718.60281
-684.48793
-645.30346
-601.15812
-552.21402
-498.68577
-440.83757
-378.97952
-313.46266
-244.67305
-173.02527
-98.955485
-22.914229
54.640915
133.25252
212.47021
291.85697
370.9948
449.48961
526.97514
603.11597
677.60962
750.18774
820.61641
888.69576
954.25892
1017.1704
1077.3242
1134.6412
1189.067
1240.569
1289.1338
1334.7643
1377.4776
1417.3022
1454.2755
1488.442
1519.8512
1548.5554
1574.6087
1598.0669
1618.9811
1637.3897
1653.3232
1666.8409
1677.986
1686.7946
1692.6459
1695.0857
-9.9598696
-18.810655
-28.006136
-37.10152
-46.095638
-54.977745
-63.735719
-72.35556
-80.821244
-89.114869
-97.21692
-105.10662
-112.76236
-120.16227
-127.28478
-134.1094
-140.61748
-146.79313
-152.62407
-158.10266
-163.22677
-168.00082
-172.43656
-176.55396
-180.38182
-183.95837
-187.33171
-190.55967
-193.70991
-196.8612
-200.10326
-203.53195
-207.24768
-211.35758
-215.97283
-221.20681
-227.17362
-233.9858
-241.75227
-250.57619
-260.55281
-271.7673
-284.2926
-298.18759
-313.49486
-330.23954
-348.42721
-368.04232
-389.04798
-411.38345
-434.96458
-459.68146
-485.39861
-511.95463
-539.16205
-566.80751
-594.65229
-622.43305
-649.86314
-676.63424
-702.41858
-726.87164
-749.6355
-770.34269
-788.6206
-804.09648
-816.40279
-825.18298
-830.09753
-830.82999
-827.09334
-818.63513
-805.24469
-786.75613
-763.05053
-734.06724
-699.81074
-660.34066
-615.76852
-566.26125
-512.04074
-453.38072
-390.60277
-324.07122
-254.18698
-181.38077
-106.10575
-28.829851
49.971991
129.8255
210.26435
290.83688
371.11203
450.68447
529.1787
606.25212
681.59713
754.94224
826.05229
894.72782
960.8039
1024.1482
1084.659
1142.2622
1196.909
1248.5727
1297.2462
1342.9385
1385.6728
1425.4831
1462.4122
1496.5094
1527.828
1556.4238
1582.353
1605.6721
1626.4305
1644.6658
1660.4104
1673.7196
1684.6085
1693.0933
1698.6281
1700.9103
-10.032741
-18.919493
-28.16614
-37.325948
-46.394744
-55.35974
-64.207177
-72.921668
-81.485834
-89.880286
-98.083811
-106.07369
-113.82614
-121.31687
-128.52173
-135.41752
-141.98279
-148.19881
-154.05054
-159.52767
-164.6256
-169.34648
-173.70017
-177.70509
-181.38895
-184.78939
-187.95457
-190.94263
-193.82274
-196.67666
-199.59733
-202.68284
-206.03799
-209.77477
-214.00956
-218.86164
-224.45154
-230.89861
-238.31891
-246.82301
-256.51366
-267.48358
-279.81315
-293.5685
-308.79914
-325.53657
-343.79248
-363.55634
-384.7958
-407.45374
-431.44821
-456.6709
-482.98651
-510.2326
-538.21921
-566.72912
-595.51822
-624.31631
-652.82827
-680.7358
-707.69965
-733.3624
-757.35192
-779.28541
-798.77401
-815.42806
-828.86271
-838.7041
-844.59564
-846.2045
-843.22829
-835.40041
-822.49809
-804.34489
-780.81321
-751.837
-717.41951
-677.62127
-632.55691
-582.39884
-527.37727
-467.77687
-403.93258
-336.22424
-265.07017
-190.91998
-114.24671
-35.5387
44.708785
126.00171
207.85507
289.80008
371.39041
452.20769
531.86567
610.0135
686.33771
760.56333
832.45385
901.81049
968.47068
1032.306
1093.2196
1151.1434
1206.0352
1257.8753
1306.6636
1352.4164
1395.1638
1434.9466
1471.8137
1505.82
1537.0238
1565.4853
1591.264
1614.4183
1634.9988
1653.0444
1668.5901
1681.6871
1692.3354
1700.5526
1705.8547
1708.028
-10.14733
-19.083033
-28.387827
-37.616226
-46.763061
-55.814501
-64.755604
-73.569765
-82.238259
-90.740134
-99.052345
-107.15005
-115.00705
-122.59639
-129.89105
-136.86475
-143.49291
-149.75362
-155.62866
-161.10468
-166.17421
-170.83684
-175.10015
-178.98075
-182.505
-185.70983
-188.64323
-191.36364
-193.94203
-196.46355
-199.0236
-201.72344
-204.67299
-207.98932
-211.7947
-216.21514
-221.37835
-227.41138
-234.43843
-242.57847
-251.94282
-262.63279
-274.73725
-288.33061
-303.47034
-320.19522
-338.52392
-358.45177
-379.9516
-402.97066
-427.42956
-453.22195
-480.21289
-508.23886
-537.10726
-566.59663
-596.45694
-626.41028
-656.15208
-685.35281
-713.66022
-740.70227
-766.09069
-789.42516
-810.29827
-828.30096
-843.02853
-854.08718
-861.10068
-863.71726
-861.61678
-854.51626
-842.17889
-824.41596
-801.08986
-772.12801
-737.53183
-697.36296
-651.73975
-600.84083
-544.90583
-484.23192
-419.16937
-350.11591
-277.50996
-201.82296
-123.55098
-43.205971
38.693247
121.62978
205.09704
288.60647
371.69422
453.92694
534.90621
614.27182
691.70387
766.92361
839.69333
909.81532
977.13005
1041.5138
1102.8758
1161.155
1216.3169
1268.3501
1317.2628
1363.0797
1405.8389
1445.5887
1482.3854
1516.2903
1547.3675
1575.682
1601.2974
1624.2751
1644.6676
1662.517
1677.8604
1690.7475
1701.1725
1709.1645
1714.2862
1716.3787
-10.269652
-19.266494
-28.642016
-37.950772
-47.186944
-56.336207
-65.382773
-74.308953
-83.094675
-91.717327
-100.15187
-108.37112
-116.3462
-124.04719
-131.44382
-138.50642
-145.20683
-151.51954
-157.42275
-162.89965
-167.93949
-172.53886
-176.70274
-180.44562
-183.79221
-186.77858
-189.45243
-191.87251
-194.11176
-196.25858
-198.41132
-200.67536
-203.16582
-206.00559
-209.32366
-213.25354
-217.93107
-223.49203
-230.06981
-237.79287
-246.78222
-257.14891
-268.99144
-282.39357
-297.42182
-314.12323
-332.52436
-352.62734
-374.41089
-397.82724
-422.79987
-449.22481
-476.96763
-505.8637
-535.71764
-566.30336
-597.36431
-628.61412
-659.7377
-690.39298
-720.2132
-748.80991
-775.77665
-800.69338
-823.13166
-842.66047
-858.85256
-871.29143
-879.57848
-883.34035
-882.23661
-875.96558
-864.27431
-846.96008
-823.87386
-794.93526
-760.14313
-719.56026
-673.30919
-621.57543
-564.6092
-502.72179
-436.28088
-365.70463
-291.45446
-214.02682
-133.94426
-51.74582
32.022598
116.81784
202.10856
287.38356
372.15899
455.98448
538.44785
619.17847
697.84929
774.17759
847.92459
918.89413
986.93046
1051.9155
1113.7657
1172.4283
1227.8777
1280.1121
1329.1493
1375.0237
1417.7825
1457.4832
1494.1901
1527.9721
1558.9003
1587.0455
1612.4765
1635.2585
1655.4478
1673.0898
1688.2251
1700.9033
1711.1188
1718.915
1723.8892
1725.9175
-10.419853
-19.488005
-28.942215
-38.338304
-47.670659
-56.925038
-66.085148
-75.132393
-84.045394
-92.799819
-101.36849
-109.72166
-117.82752
-125.65284
-133.16377
-140.32681
-147.10983
-153.48324
-159.42122
-164.90301
-169.91414
-174.44777
-178.50586
-182.10042
-185.25416
-188.00215
-190.39153
-192.48133
-194.34653
-196.07876
-197.77998
-199.55987
-201.53918
-203.84731
-206.6207
-210.00121
-214.13377
-219.16391
-225.23531
-232.48708
-241.05112
-251.0494
-262.59126
-275.77101
-290.6653
-307.33057
-325.80218
-346.09013
-368.17965
-392.02881
-417.56444
-444.68547
-473.25814
-503.1168
-534.06317
-565.86624
-598.26243
-630.95608
-663.62058
-695.90002
-727.41155
-757.74842
-786.48386
-813.17572
-837.37193
-858.61671
-876.45734
-890.45164
-900.17565
-905.23149
-905.25567
-899.92524
-888.96875
-872.16756
-849.35962
-820.45528
-785.45004
-744.40807
-697.45671
-644.78906
-586.66714
-523.41806
-455.42918
-383.14176
-307.04334
-227.65888
-145.54106
-61.259901
24.607817
111.48897
198.82403
286.07606
372.73858
458.34208
542.45899
624.70717
704.75187
782.30629
857.13088
929.03165
997.85759
1063.4974
1125.876
1184.9501
1240.7048
1293.1491
1342.3118
1388.2381
1430.9859
1470.6227
1507.222
1540.8615
1571.6198
1599.5749
1624.8012
1647.3692
1667.3398
1684.7631
1699.683
1712.152
1722.1677
1729.7876
1734.6345
1736.6085
-10.581184
-19.729853
-29.272695
-38.766109
-48.204809
-57.574983
-66.860103
-76.040807
-85.094434
-93.99486
-102.71261
-111.21515
-119.46744
-127.4326
-135.07279
-142.35025
-149.2284
-155.6731
-161.65397
-167.14582
-172.12995
-176.5956
-180.54128
-183.9761
-186.92045
-189.4081
-191.48546
-193.21179
-194.66408
-195.9374
-197.1378
-198.37961
-199.78973
-201.5048
-203.66945
-206.43483
-209.95599
-214.38931
-219.88994
-226.60888
-234.69017
-244.26802
-255.46387
-268.38382
-283.1159
-299.72715
-318.26269
-338.74159
-361.1563
-385.47145
-411.61818
-439.49852
-468.9795
-499.89462
-532.04265
-565.18737
-599.05763
-633.34775
-667.71855
-701.79896
-735.18838
-767.45987
-798.1641
-826.83429
-852.992
-876.15369
-895.83808
-911.57411
-922.90925
-929.41798
-930.71075
-926.44059
-916.31506
-900.09754
-877.61125
-848.7557
-813.52204
-771.97586
-724.24982
-670.5453
-611.13735
-546.37075
-476.65484
-402.45693
-324.29408
-242.72355
-158.33225
-71.725375
16.485146
105.69215
195.30412
284.75502
373.51286
461.08668
547.03186
630.95363
712.509
791.40708
867.40798
940.32072
1010.0001
1076.343
1139.2841
1198.7915
1254.8623
1307.5178
1356.7996
1402.7652
1445.4844
1485.0359
1521.504
1554.9759
1585.5389
1613.2789
1638.2772
1660.6103
1680.3445
1697.5352
1712.231
1724.4879
1734.3089
1741.764
1746.4956
1748.4212
-10.763904
-20.001235
-29.64021
-39.238588
-48.791864
-58.287024
-67.707559
-77.033481
-86.240876
-95.301756
-104.18418
-112.85259
-121.26837
-129.39064
-137.17712
-144.58532
-151.57368
-158.10299
-164.13775
-169.64776
-174.60953
-179.00787
-182.8373
-186.10359
-188.82435
-191.0318
-192.77131
-194.10224
-195.10362
-195.87409
-196.52411
-197.17304
-197.95451
-199.01305
-200.50235
-202.5838
-205.42362
-209.19026
-214.05157
-220.17177
-227.70841
-236.8093
-247.60934
-260.2278
-274.76535
-291.30094
-309.89048
-330.56332
-353.31997
-378.13253
-404.93756
-433.64013
-464.10859
-496.17577
-529.63752
-564.25218
-599.74059
-635.78631
-672.03656
-708.10377
-743.56796
-777.97991
-810.86543
-841.73042
-870.06707
-895.36091
-917.0987
-934.777
-947.91119
-956.04467
-958.75851
-955.67873
-946.4891
-930.93271
-908.81614
-880.02628
-844.54883
-802.45106
-753.87151
-699.02058
-638.18762
-571.73692
-500.10238
-423.78048
-343.32148
-259.31911
-172.39898
-83.206191
7.6075348
99.396479
191.53295
283.41814
374.49144
464.238
552.19436
637.95209
721.1595
801.5217
878.79912
952.80477
1023.4006
1090.4931
1154.0286
1213.9882
1270.3827
1323.2477
1372.6389
1418.6278
1461.2975
1500.7394
1537.0495
1570.3257
1600.6654
1628.1628
1652.9074
1674.9823
1694.4604
1711.4026
1725.8629
1737.9022
1747.5294
1754.8253
1759.4481
1761.3284
-10.9583
-20.291042
-30.033852
-39.745683
-49.422912
-59.053612
-68.621506
-78.106103
-87.482255
-96.720017
-105.7848
-114.63776
-123.23638
-131.53532
-139.48744
-147.04495
-154.16079
-160.79006
-166.89155
-172.42943
-177.3748
-181.70744
-185.41734
-188.5064
-190.98904
-192.89549
-194.26981
-195.17133
-195.68115
-195.90163
-195.94784
-195.9447
-196.0331
-196.36621
-197.10766
-198.43007
-200.512
-203.5352
-207.68158
-213.12999
-220.05293
-228.6133
-238.96095
-251.22975
-265.53442
-281.96723
-300.59605
-321.4617
-344.57387
-369.91317
-397.42246
-427.01
-458.54602
-491.86291
-526.75364
-562.97092
-600.22718
-638.19454
-676.50559
-714.75493
-752.50144
-789.27161
-824.56383
-857.85388
-888.60142
-916.25761
-940.27355
-960.10965
-975.24542
-985.18938
-989.4897
-987.74205
-979.60341
-964.79411
-943.10199
-914.39928
-878.66506
-835.96833
-786.45396
-730.34208
-667.93758
-599.62628
-525.86933
-447.19575
-364.19307
-277.49606
-187.77406
-95.717252
-2.0224026
92.621182
187.54502
282.11342
375.73379
467.86478
558.02225
645.78302
730.78637
812.73373
891.38666
966.56343
1038.1347
1106.0185
1170.1747
1230.5992
1287.3186
1340.3847
1389.8692
1435.8592
1478.4528
1517.7552
1553.8756
1586.9238
1617.0079
1644.232
1668.6939
1690.4846
1709.684
1726.3594
1740.5705
1752.3839
1761.814
1768.952
1773.4683
1775.3046
-11.170136
-20.604294
-30.457105
-40.289522
-50.099149
-59.875463
-69.602639
-79.259798
-88.820565
-98.25294
-107.51949
-116.57777
-125.38099
-133.87892
-142.019
-149.74761
-157.01155
-163.75958
-169.94411
-175.523
-180.46126
-184.73298
-188.32296
-191.22865
-193.46073
-195.04704
-196.02985
-196.46831
-196.44573
-196.06825
-195.45541
-194.73843
-194.0661
-193.60093
-193.51742
-194.00051
-195.24233
-197.43924
-200.78871
-205.48571
-211.71928
-219.66898
-229.50121
-241.36602
-255.39364
-271.69112
-290.33968
-311.3928
-334.87054
-360.76312
-389.02075
-419.55523
-452.23921
-486.90496
-523.34275
-561.29959
-600.47914
-640.54142
-681.10348
-721.74068
-761.98905
-801.34854
-839.28759
-875.24878
-908.65585
-938.92181
-965.45813
-987.68492
-1005.0416
-1016.9976
-1023.0644
-1022.8035
-1015.8419
-1001.8743
-980.66768
-952.07725
-916.07413
-872.72899
-822.19362
-764.69876
-700.56602
-630.2048
-554.10631
-472.83584
-387.02255
-297.34736
-204.52889
-109.30825
-12.433103
85.358021
183.35068
280.86782
377.28114
472.01997
564.57761
654.51509
741.46246
825.11799
905.24542
981.66985
1054.2726
1122.9852
1187.7832
1248.6799
1305.7198
1358.9728
1408.5286
1454.4917
1496.9769
1536.1048
1571.9989
1604.7822
1634.5744
1661.4905
1685.6375
1707.1151
1726.0104
1742.3979
1756.3435
1767.9196
1777.1462
1784.1235
1788.5328
1790.3251
-11.392983
-20.932891
-30.901197
-40.861176
-50.811838
-60.744362
-70.643589
-80.488361
-90.251073
-99.897554
-109.3873
-118.67395
-127.706
-136.42786
-144.78097
-152.70528
-160.14074
-167.02909
-173.31562
-178.95111
-183.89376
-188.11121
-191.58239
-194.29963
-196.26933
-197.51634
-198.08072
-198.02131
-197.42395
-196.3977
-195.06693
-193.57032
-192.06484
-190.7231
-189.73148
-189.28833
-189.6007
-190.88102
-193.34381
-197.20184
-202.66238
-209.92337
-219.16946
-230.56854
-244.26803
-260.39134
-279.03448
-300.26496
-324.11453
-350.5841
-379.63255
-411.17557
-445.08876
-481.20479
-519.31137
-559.14977
-600.41464
-642.75337
-685.76646
-729.00878
-771.99166
-814.1863
-855.02841
-893.92416
-930.25768
-963.39979
-992.71798
-1017.5875
-1037.403
-1051.5905
-1059.6201
-1061.0155
-1055.3698
-1042.3493
-1021.6974
-993.24992
-956.96818
-912.92488
-861.27911
-802.27273
-736.24533
-663.632
-584.9571
-500.82605
-411.91458
-318.95536
-222.72255
-124.01474
-23.637129
77.616214
178.97908
279.72806
379.19507
476.77708
571.94287
664.23674
753.27948
838.76693
920.46645
998.21189
1071.8974
1141.4705
1206.9252
1268.2942
1325.6427
1379.0609
1428.6588
1474.5603
1516.8982
1555.8105
1591.4362
1623.9125
1653.3721
1679.9414
1703.7377
1724.8696
1743.4326
1759.5082
1773.1691
1784.4937
1793.5073
1800.3183
1804.6177
1806.365
-11.629966
-21.278992
-31.366895
-41.460287
-51.559937
-61.659077
-71.74344
-81.791702
-91.775013
-101.65689
-111.39352
-120.93424
-130.22241
-139.1965
-147.79135
-155.93977
-163.57417
-170.62846
-177.03998
-182.75163
-187.71396
-191.88733
-195.24404
-197.77051
-199.46822
-200.35841
-200.47852
-199.88665
-198.67056
-196.94269
-194.83303
-192.48752
-190.072
-187.77008
-185.78108
-184.31802
-183.60422
-183.86976
-185.34793
-188.27105
-192.86642
-199.35223
-207.93324
-218.79701
-232.10988
-248.01328
-266.61966
-288.01191
-312.23501
-339.30164
-369.1809
-401.7928
-437.01661
-474.68585
-514.58596
-556.45261
-599.97131
-644.77631
-690.45073
-736.52759
-782.49177
-827.78337
-871.80244
-913.91532
-953.46256
-989.76835
-1022.1514
-1049.9371
-1072.4703
-1089.1284
-1099.3355
-1102.573
-1098.3959
-1086.4392
-1066.4197
-1038.1511
-1001.5829
-956.79017
-903.93972
-843.28499
-775.18475
-700.10195
-618.59718
-531.32033
-438.99898
-342.42389
-242.43176
-139.88609
-35.657097
69.398429
174.456
278.74023
381.53878
482.21305
580.20524
675.04207
766.33527
853.77936
937.14709
1016.2833
1091.0978
1161.5569
1227.6756
1289.5095
1347.1467
1400.7007
1450.3037
1496.1012
1538.2461
1576.895
1612.2041
1644.326
1673.4073
1699.5867
1722.9924
1743.7427
1761.9416
1777.6784
1791.0326
1802.0887
1810.8771
1817.5136
1821.6984
1823.3988
-11.876519
-21.636114
-31.846506
-42.078442
-52.334744
-62.611062
-72.894264
-83.162974
-93.387071
-103.52761
-113.53716
-123.36039
-132.935
-142.19292
-151.06173
-159.46634
-167.3308
-174.58034
-181.14349
-186.95436
-191.9549
-196.09733
-199.34642
-201.68184
-203.09941
-203.61612
-203.26625
-202.1066
-200.22641
-197.74191
-194.78901
-191.52106
-188.11354
-184.76192
-181.67952
-179.09534
-177.25049
-176.39441
-176.78094
-178.66388
-182.29256
-187.90742
-195.73532
-205.98545
-218.84497
-234.47516
-253.00673
-274.53931
-299.13293
-326.8131
-357.56071
-391.30077
-427.91721
-467.24468
-509.06676
-553.11382
-599.06215
-646.53251
-695.0899
-744.24421
-793.45205
-842.12002
-889.60949
-935.24327
-978.31402
-1018.0945
-1053.8494
-1084.8487
-1110.3817
-1129.7719
-1142.3917
-1147.6753
-1145.1357
-1134.3724
-1115.0732
-1087.0262
-1050.1671
-1004.5733
-950.41974
-887.97181
-817.60854
-739.8228
-655.21477
-564.48337
-468.41394
-367.86231
-263.73567
-156.97092
-48.511799
60.713999
169.81632
277.96154
384.38814
488.4184
589.46593
687.03916
780.74126
870.26688
955.39643
1035.9886
1111.9718
1183.3346
1250.1165
1312.3988
1370.2958
1423.9469
1473.5094
1519.1522
1561.0505
1599.3813
1634.319
1666.0332
1694.6851
1720.4266
1743.3976
1763.7266
1781.5264
1796.8945
1809.9172
1820.6851
1829.2336
1835.6853
1839.7491
1841.4002
-12.133841
-22.003975
-32.338101
-42.712439
-53.132293
-63.596155
-74.092304
-84.599424
-95.086093
-105.51072
-115.82194
-125.9593
-135.85428
-145.43163
-154.6109
-163.3083
-171.43864
-178.91754
-185.66373
-191.60152
-196.66329
-200.79208
-203.94415
-206.09152
-207.22345
-207.3519
-206.50734
-204.74464
-202.15407
-198.85594
-194.99224
-190.72411
-186.23729
-181.74005
-177.46086
-173.64612
-170.55642
-168.46234
-167.64027
-168.36756
-170.91774
-175.55565
-182.53242
-192.08099
-204.41141
-219.70668
-238.11781
-259.76258
-284.71827
-313.02401
-344.67378
-379.5994
-417.69057
-458.7828
-502.65854
-549.04327
-597.60424
-647.94852
-699.62229
-752.11118
-804.84172
-857.18452
-908.45909
-957.94078
-1004.8697
-1048.462
-1087.9224
-1122.4593
-1151.3003
-1173.7084
-1188.999
-1196.5535
-1195.8375
-1186.4117
-1167.9316
-1140.1562
-1103.0048
-1056.5574
-1000.9975
-936.60239
-863.77234
-783.03215
-695.02497
-600.50362
-500.31767
-395.39594
-286.72512
-175.32516
-62.223108
51.573085
165.09921
277.45632
387.82828
495.4945
599.83793
700.34823
796.62085
888.35256
975.33424
1057.4418
1134.6259
1206.9013
1274.3357
1337.0399
1395.1576
1448.8573
1498.3239
1543.7524
1585.3421
1623.292
1657.7967
1689.0433
1717.2091
1742.4598
1764.9476
1784.8115
1802.1738
1817.14
1829.8036
1840.2612
1848.5526
1854.8072
1858.7425
1860.3412
-12.398447
-22.376813
-32.834194
-43.353595
-53.943244
-64.604947
-75.328686
-86.093336
-96.866124
-107.6026
-118.24711
-128.73356
-138.98663
-148.92313
-158.4538
-167.48524
-175.92205
-183.66923
-190.63465
-196.73174
-201.88217
-206.01872
-209.08805
-211.05347
-211.89671
-211.62386
-210.26082
-207.85971
-204.51144
-200.34042
-195.49501
-190.14441
-184.48531
-178.73971
-173.15248
-167.989
-163.53103
-160.07232
-157.91395
-157.35909
-158.70778
-162.25165
-168.26843
-177.01711
-188.73283
-203.6224
-221.85926
-243.58091
-268.88415
-297.82257
-330.40447
-366.5719
-406.22013
-449.18536
-495.24999
-544.13523
-595.49966
-648.93661
-703.97295
-760.06896
-816.61939
-872.95632
-928.35408
-982.03633
-1033.1857
-1080.9556
-1124.4848
-1162.9131
-1195.3992
-1221.1391
-1239.384
-1249.4567
-1250.7703
-1242.8422
-1225.2924
-1197.8474
-1160.4066
-1113.0532
-1055.9791
-989.47365
-913.9588
-829.9932
-738.26633
-639.59012
-534.88547
-425.1631
-311.49946
-195.00868
-76.812419
41.990393
160.35188
277.29982
391.95736
503.55708
611.44923
715.10449
814.11195
908.17306
997.09265
1080.7679
1159.1762
1232.3627
1300.4279
1363.5159
1421.8038
1475.4923
1524.797
1569.9415
1611.1514
1648.6495
1682.6518
1713.3644
1740.9814
1765.6831
1787.6344
1806.9855
1823.8681
1838.3961
1850.6702
1860.7928
1868.808
1874.8515
1878.6495
1880.1923
-12.670106
-22.75217
-33.33019
-43.99568
-54.760352
-65.629873
-76.596261
-87.638715
-98.723045
-109.8017
-120.81431
-131.68863
-142.34178
-152.68192
-162.61004
-172.02216
-180.81164
-188.87175
-196.09832
-202.3927
-207.66465
-211.83544
-214.84094
-216.63458
-217.18945
-216.50478
-214.60101
-211.5266
-207.37254
-202.26731
-196.36584
-189.84574
-182.91526
-175.81121
-168.79615
-162.15605
-156.19586
-151.23461
-147.60042
-145.62475
-145.6367
-147.95725
-152.89327
-160.73228
-171.73691
-186.13999
-204.13957
-225.89481
-251.52374
-281.09624
-314.63735
-352.10093
-393.38701
-438.33445
-486.7263
-538.28025
-592.64675
-649.40557
-708.06398
-768.05601
-828.74293
-889.41582
-949.30029
-1007.5639
-1063.3262
-1115.6717
-1163.6659
-1206.3724
-1242.8733
-1272.2893
-1293.8004
-1306.6643
-1310.2351
-1303.983
-1287.4881
-1260.4416
-1222.7194
-1174.4078
-1115.707
-1046.9181
-968.48511
-881.00187
-785.20747
-681.97846
-572.31486
-457.31932
-338.16987
-216.08769
-92.302105
31.984523
155.62964
277.5787
396.88744
512.73731
624.44397
731.45931
833.368
929.87952
1020.8169
1106.1035
1185.7485
1259.8327
1328.494
1391.9148
1450.3096
1503.9149
1552.9801
1597.7601
1638.509
1675.4753
1708.8978
1739.0027
1766.0019
1790.0908
1811.4477
1830.2339
1846.5912
1860.6415
1872.4929
1882.2534
1889.9712
1895.788
1899.4388
1900.9217
-12.945874
-23.124238
-33.817912
-44.628769
-55.572632
-66.659645
-77.884235
-89.226058
-100.64942
-112.10338
-123.52241
-134.82743
-145.92732
-156.72065
-167.09774
-176.94297
-186.1373
-194.56104
-202.09676
-208.63241