/*--------------------------------*- C++ -*----------------------------------*\
| =========                 |                                                 |
| \\      /  F ield         | foam-extend: Open Source CFD                    |
|  \\    /   O peration     | Version:     4.1                                |
|   \\  /    A nd           | Web:         http://www.foam-extend.org         |
|    \\/     M anipulation  |                                                 |
\*---------------------------------------------------------------------------*/
FoamFile
{
    version     2.0;
    format      ascii;
    class       volScalarField;
    location    "0.5";
    object      p;
}
// * * * * * * * * * * * * * * * * * * * * * * * * * * * * * * * * * * * * * //

dimensions      [0 2 -2 0 0 0 0];

internalField   nonuniform List<scalar> 
16796
(
-18.473526
24.715143
43.550313
68.447696
91.222826
114.35226
137.20917
159.98837
182.6223
205.09313
227.34916
249.32988
270.96182
292.16296
312.8465
332.93869
352.32151
370.77661
388.14656
404.34563
419.25887
432.77968
444.8162
455.29168
464.14661
471.3394
476.84663
480.66291
482.80037
483.28845
482.17351
479.52344
475.44529
470.03337
463.22289
455.00206
445.49096
434.76282
422.88815
409.94024
395.99403
381.12726
365.42152
348.96337
331.84527
314.16678
296.03544
277.56752
258.88851
240.13317
221.44547
202.978
184.89111
167.35179
150.5323
134.6085
119.75824
106.15962
93.989162
83.420359
74.622146
67.757583
62.982838
60.446267
60.287711
62.637853
67.617697
75.338057
85.899021
99.389485
115.88709
135.46417
158.18573
184.01992
212.93716
244.96184
280.06563
318.19266
359.26025
403.15802
449.74852
498.86774
550.32631
603.91129
659.38857
716.50586
774.99616
834.58155
894.97729
955.89594
1017.0515
1078.1634
1138.9599
1199.1818
1258.5848
1316.9422
1374.0463
1429.7101
1483.7675
1536.0741
1586.5067
1634.9627
1681.3596
1725.6334
1767.7378
1807.6424
1845.331
1880.8008
1914.0603
1945.1293
1974.0343
2000.803
2025.4749
2048.1009
2068.7338
2087.4331
2104.267
2119.3108
2132.661
2144.5215
2155.0796
2163.7517
2172.604
2195.0054
-14.493037
24.714842
44.030946
68.575019
91.367413
114.47159
137.34169
160.13757
182.79536
205.29309
227.578
249.58801
271.24814
292.47229
313.14509
333.12903
352.33097
370.70297
388.11937
404.40447
419.42307
433.05999
445.2171
455.81414
464.78902
472.09804
477.71561
481.63378
483.86096
484.42059
483.34828
480.68676
476.47318
470.77535
463.75282
455.47454
445.92646
435.16494
423.25726
410.27405
396.29008
381.38309
365.63466
349.1313
331.96545
314.2367
296.05264
277.52966
258.79345
239.97904
221.2307
202.70138
184.55181
166.94936
150.06669
134.08003
119.16755
105.50761
93.276974
82.649271
73.793529
66.872847
62.043384
59.453463
59.242865
61.542201
66.472334
74.143746
84.655758
98.095419
114.53326
134.01953
156.59078
182.31636
211.22242
243.26456
278.40318
316.57887
357.70722
401.67765
448.35259
497.56781
549.13341
602.83559
658.4391
715.69018
774.32013
834.04912
894.5904
955.65448
1016.9533
1078.2044
1139.1343
1199.4821
1259.0023
1317.4669
1374.6677
1430.4169
1484.5482
1536.9173
1587.4009
1635.8972
1682.3238
1726.6176
1768.7329
1808.6398
1846.3231
1881.7801
1915.0195
1946.0589
1974.9259
2001.6595
2026.3004
2048.8906
2069.4806
2088.1266
2104.891
2119.8404
2133.0568
2144.6829
2154.802
2163.1999
2171.1646
2180.9424
-10.545635
24.764279
43.953244
67.962613
90.550294
113.4899
136.26358
159.0045
181.64749
204.16718
226.50978
248.61171
270.39126
291.75107
312.59877
332.83343
352.33083
370.95445
388.55633
404.99813
420.16124
433.93625
446.22748
456.95542
466.05777
473.49036
479.22722
483.26039
485.59886
486.26767
485.30589
482.76399
478.69388
473.14373
466.1662
457.82261
448.17738
437.29538
425.24507
412.09893
397.93273
382.82557
366.86082
350.12722
332.71971
314.74054
296.30009
277.5176
258.52152
239.44957
220.44856
201.67377
183.28799
165.46043
148.36521
132.1797
117.08289
103.25358
90.868675
80.10163
71.121044
64.089399
59.162121
56.486775
56.202465
58.439327
63.318085
70.949595
81.434037
94.858362
111.29606
130.81007
153.43972
179.21212
208.13806
240.20616
275.3875
313.6266
354.84155
398.92299
445.73371
495.10911
546.85826
600.76564
656.59364
714.08566
772.96965
832.96218
893.77265
955.10769
1016.6755
1078.1897
1139.3738
1199.9639
1259.7118
1318.3877
1375.7816
1431.7048
1485.9906
1538.4943
1589.0932
1637.686
1684.1914
1728.5474
1770.7098
1810.6504
1848.3557
1883.8248
1917.0684
1948.1064
1976.9664
2003.6844
2028.3029
2050.8692
2071.4355
2090.059
2106.8022
2121.7321
2134.931
2146.5076
2156.4991
2164.9673
2172.7627
2178.3391
-8.3673266
25.03614
44.204739
67.885128
90.363053
113.2258
135.97798
158.73135
181.41757
204.00644
226.44066
248.64881
270.54153
292.02456
312.99665
333.34243
352.94201
371.677
389.41642
406.02095
421.36058
435.31787
447.79057
458.69371
467.96046
475.54272
481.41085
485.55325
487.97486
488.69594
487.74977
485.18113
481.04337
475.39989
468.32488
459.88701
450.1415
439.14643
426.9686
413.67909
399.35321
384.07039
367.9148
350.97637
333.35156
315.14446
296.46747
277.44202
258.19884
238.87799
219.6285
200.6078
181.98062
163.91785
146.595
130.19052
114.8841
100.85487
88.279743
77.331836
68.179159
60.983408
55.899109
53.07291
52.64308
54.739104
59.481371
66.980833
77.337545
90.635516
106.95019
126.35019
148.88627
174.59847
203.50314
235.58853
270.82301
309.15149
350.4927
394.73789
441.74997
491.36361
543.3862
597.59961
653.76268
711.61439
770.87767
831.26352
892.47549
954.21428
1016.1822
1078.0875
1139.6484
1200.5964
1260.6796
1319.6651
1377.3405
1433.5154
1488.0222
1540.7161
1591.4747
1640.1974
1686.8044
1731.2353
1773.4477
1813.4152
1851.1265
1886.5827
1919.7964
1950.7896
1979.5928
2006.2431
2030.7825
2053.2569
2073.7162
2092.2139
2108.8059
2123.5502
2136.5133
2147.7629
2157.3043
2165.2538
2172.0418
2175.8451
-7.7264944
24.862122
43.854268
67.243125
89.556444
112.30172
134.99439
157.73539
180.45455
203.11906
225.66666
248.01858
270.09303
291.79777
313.02214
333.64586
353.53914
372.56602
390.58513
407.45619
423.04991
437.24921
449.95128
461.06991
470.53682
478.30246
484.33591
488.62455
491.17256
491.99951
491.1377
488.62973
484.52437
478.87543
471.74416
463.19673
453.2984
442.11563
429.71899
416.18231
401.58323
386.00346
369.52964
352.25441
334.2772
315.70525
296.6543
277.24916
257.62399
237.92217
218.29598
198.90584
179.91921
161.50938
143.85384
127.1326
111.52643
97.21509
84.375648
73.180976
63.798485
56.389023
51.106142
48.095531
47.494663
49.432569
54.029829
61.398284
71.637308
84.831247
101.0603
120.39309
142.88147
168.56435
197.46186
229.5719
264.87031
303.30726
344.80516
389.25746
436.5278
486.45017
538.82987
593.44527
650.05044
708.37849
768.14553
829.05513
890.803
953.08186
1015.5862
1078.0169
1140.0853
1201.517
1262.055
1321.462
1379.5227
1436.0447
1490.8591
1543.821
1594.8084
1643.7222
1690.4845
1735.0371
1777.3404
1817.3711
1855.1207
1890.5936
1923.8052
1954.7803
1983.5517
2010.1588
2034.6461
2057.0613
2077.4554
2095.8808
2112.3903
2127.0359
2139.8706
2150.9315
2160.2052
2167.7774
2173.6964
2176.2834
-7.6926049
24.846558
43.722764
66.980033
89.205894
111.90069
134.58401
157.35396
180.13957
202.90605
225.58372
248.09228
270.35078
292.25823
313.70077
334.55503
354.68923
373.96627
392.2449
409.38342
425.24723
439.71284
452.67112
464.02997
473.71579
481.67441
487.87089
492.28913
494.93039
495.8119
494.96447
492.43084
488.26234
482.51727
475.26013
466.56022
456.48503
445.10061
432.47731
418.68928
403.81483
387.93676
371.1432
353.52867
335.1948
316.25135
296.81681
277.01897
256.99508
236.89168
216.86415
197.07594
177.69731
158.90405
140.87582
123.79432
107.84156
93.198019
80.04097
68.543013
58.870876
51.184412
45.636014
42.37021
41.523497
43.224328
47.593546
54.744085
64.774573
77.772221
93.823126
113.00224
135.36968
160.97114
189.8326
221.95746
257.3258
295.89171
337.58085
382.28869
429.87955
480.18641
533.0118
588.12963
645.28783
704.21198
764.60949
826.17439
888.59231
951.54581
1014.7194
1077.8045
1140.5038
1202.5351
1263.635
1323.561
1382.0938
1439.0384
1494.2243
1547.5065
1598.7636
1647.8982
1694.8345
1739.5174
1781.9104
1821.9938
1859.7629
1895.2258
1928.4016
1959.3187
1988.0127
2014.5256
2038.9034
2061.1951
2081.4519
2099.7255
2116.0667
2130.5244
2143.1444
2153.952
2162.9399
2170.1877
2175.6097
2177.7897
-8.3794909
24.422619
43.086515
66.230704
88.345818
110.97389
133.63261
156.42456
179.27974
202.16116
224.99543
247.7084
270.21464
292.40844
314.17089
335.37125
355.8693
375.51856
394.16974
411.67524
427.89528
442.70177
455.98135
467.63796
477.59439
485.79327
492.19697
496.78709
499.56293
500.53991
499.74693
497.22455
493.02171
487.19419
479.80416
470.92226
460.62049
448.96875
436.04068
421.91348
406.66826
390.39064
373.17168
355.10899
336.30749
316.88046
296.95005
276.64787
256.11505
235.50205
214.96808
194.68025
174.81227
155.543
137.05476
119.5314
103.15647
88.111404
74.573797
62.715985
52.703912
44.69626
38.844019
35.290293
34.170329
35.611769
39.735525
46.655458
56.469464
69.266985
85.13837
104.16299
126.40694
151.92255
180.74391
212.88352
248.32972
287.04354
328.95589
373.9656
421.93827
472.7059
526.06782
581.79248
639.62036
699.26778
760.43146
822.79365
886.02769
949.80363
1013.7938
1077.6779
1141.1481
1203.913
1265.7012
1326.264
1385.3772
1442.8429
1498.489
1552.17
1603.7659
1653.1811
1700.343
1745.1999
1787.7195
1827.8866
1865.7011
1901.1756
1934.3337
1965.208
1993.8382
2020.2694
2044.5504
2066.7321
2086.8663
2105.0036
2121.1918
2135.474
2147.8862
2158.4405
2167.1243
2173.9945
2178.915
2180.7451
-9.2354831
24.108421
42.590013
65.707234
87.760304
110.36504
133.0324
155.87436
178.82315
201.84007
224.85076
247.78095
270.54132
293.02292
315.10271
336.64506
357.50447
377.52872
396.56279
414.45303
431.0527
446.22628
459.85309
471.83021
482.0743
490.52273
497.13354
501.885
504.77396
505.81441
505.03476
502.4761
498.18882
492.23066
484.66545
475.56692
465.01027
453.06701
439.81205
425.32417
409.68622
392.98578
375.31618
356.77766
337.47807
317.53393
297.07092
276.22444
255.13957
233.97081
212.88147
192.04261
171.6317
151.83105
132.82594
114.80267
97.946581
82.440198
68.461474
56.182412
45.768009
37.375521
31.154244
27.245562
25.783261
26.894107
30.699293
37.314201
46.836948
59.360746
74.983171
93.791204
115.8597
141.25
170.00538
202.14752
237.67322
276.55083
318.71709
364.07465
412.49052
463.79557
517.78525
574.22147
632.83571
693.33314
755.39756
818.69708
882.89017
947.63183
1012.5796
1077.3996
1141.771
1205.3916
1267.9804
1329.2814
1389.0649
1447.1292
1503.3007
1557.4337
1609.4095
1659.135
1706.5412
1751.581
1794.2271
1834.4695
1872.3137
1907.778
1940.8915
1971.6919
2000.2238
2026.5364
2050.6825
2072.7159
2092.6909
2110.6597
2126.6705
2140.7661
2152.9801
2163.322
2171.7823
2178.4055
2183.0442
2184.7329
-10.518661
23.469084
41.688561
64.774146
86.74589
109.31579
131.98346
154.87426
177.92379
201.09363
224.31198
247.50476
270.5791
293.42172
315.90353
337.88122
359.20049
379.69967
399.21437
417.58202
434.64734
450.26674
464.31219
476.67409
487.26329
496.01225
502.87496
507.82653
510.8614
511.99175
511.2447
508.66052
504.28925
498.18866
490.42307
481.06926
470.20688
457.9107
444.2587
429.3329
413.21929
396.0086
377.79752
358.68971
338.79677
318.23915
297.14673
275.6593
253.92652
232.10756
210.37041
188.89072
167.8503
147.43545
127.83497
109.23798
91.831967
75.800736
61.322664
48.569332
37.704543
28.883748
22.254048
17.954531
16.1169
16.866419
20.323968
26.605939
35.81036
48.033571
63.38016
81.94487
103.81224
129.0545
157.72666
189.86238
225.46961
264.52644
306.97724
352.72973
401.65301
453.57685
508.29227
565.55357
625.08161
686.56833
749.68225
814.07473
879.38658
945.25504
1011.3204
1077.2321
1142.655
1207.2734
1270.7958
1332.9574
1393.5225
1452.2851
1509.0698
1563.7309
1616.1514
1666.2416
1713.9366
1759.1946
1801.9941
1842.3317
1880.2189
1915.6808
1948.7524
1979.4776
2007.9062
2034.0923
2058.0925
2079.9641
2099.7632
2117.5431
2133.3522
2147.2321
2159.2146
2169.3087
2177.5096
2183.8607
2188.2317
2189.7927
-11.90042
22.886332
40.846509
63.941883
85.855219
108.4127
131.09881
154.05512
177.22175
200.56274
224.00615
247.47755
270.88229
294.1035
317.00683
339.44216
361.2472
382.2513
402.28052
421.1624
438.73161
454.83461
469.33392
482.11135
493.07025
502.13683
509.26018
514.41181
517.58385
518.78734
518.04927
515.41074
510.9233
504.64662
496.64696
487.005
475.80466
463.12321
449.04078
433.6419
417.01511
399.25388
380.45787
360.73407
340.19771
318.97321
297.19481
275.00692
252.56412
230.03068
207.57971
185.39199
163.65423
142.55724
122.29382
103.05637
85.034833
68.414479
53.374153
40.084889
28.709025
19.399799
12.301627
7.5507916
5.2764671
5.6021247
8.6482854
14.532659
23.353784
35.212558
50.222359
68.487647
90.104537
115.15805
143.71669
175.82769
211.5118
250.75834
293.52065
339.71248
389.20554
441.82841
497.36706
555.56689
616.13632
678.75182
743.06394
808.70435
875.29322
942.44695
1009.7855
1076.9396
1143.5565
1209.3058
1273.8835
1337.015
1398.4575
1458.0008
1515.4675
1570.7122
1623.6205
1674.1062
1722.1102
1767.5967
1810.5514
1850.9782
1888.8966
1924.339
1957.3484
1987.9753
2016.2765
2042.312
2066.1439
2087.8341
2107.4425
2125.0256
2140.6337
2154.3098
2166.0861
2175.9734
2183.9704
2190.1206
2194.311
2195.8005
-13.613252
22.038199
39.663839
62.752084
84.583299
107.11326
129.80766
152.82702
176.1172
199.64668
223.3454
247.13878
270.9297
294.59672
317.99857
340.97629
363.35716
384.959
405.59578
425.08285
443.24292
459.91104
474.93923
488.19995
499.58852
509.02455
516.45199
521.83858
525.17396
526.46778
525.7466
523.05193
518.43644
511.96139
503.69481
493.72187
482.13202
469.00617
454.42768
438.48462
421.26901
402.87782
383.41437
362.98955
341.72273
319.74285
297.18895
274.21065
250.96798
227.63087
204.37825
181.39665
158.87835
137.01934
116.017
96.067551
77.363724
60.092509
44.433228
30.556175
18.621805
8.7805143
1.1732295
-4.0675085
-6.8160413
-6.9516519
-4.3550703
1.0919829
9.4883128
20.939336
35.567882
53.48937
74.813437
99.640414
128.05517
160.12142
195.87556
235.32071
278.42125
325.09847
375.2275
428.63587
485.10385
544.36661
606.11817
670.01695
735.69262
802.75389
870.7969
939.41386
1008.2013
1076.7679
1144.7412
1211.7737
1277.5472
1341.7761
1404.2099
1464.6336
1522.8679
1578.7682
1632.2229
1683.1506
1731.4984
1777.2379
1820.3629
1860.8858
1898.8348
1934.2511
1967.1857
1997.6973
2025.85
2051.7104
2075.3465
2096.8253
2116.211
2133.5636
2148.9365
2162.3752
2173.9147
2183.5701
2191.3469
2197.2935
2201.317
2202.7409
-15.44973
21.188056
38.457043
61.551641
83.301601
105.80771
128.51377
151.60156
175.02364
198.75456
222.72503
246.86042
271.06254
295.20588
319.14251
342.70451
365.70832
387.95939
409.25834
429.4067
448.21334
465.49997
481.10626
494.89362
506.74797
516.58132
524.33187
529.96341
533.46331
534.84043
534.12179
531.35039
526.58119
519.87816
511.31198
500.97291
488.9562
475.34611
460.22883
443.69565
425.84178
406.76752
386.57975
365.39324
343.33165
320.5286
297.12831
273.28596
249.16755
224.94931
200.81662
176.9625
153.58554
130.88765
109.07149
88.33766
68.882177
50.893993
34.552967
20.028466
7.4786334
-2.9496173
-11.119666
-16.903619
-20.180228
-20.832271
-18.74227
-13.791962
-5.8819216
5.0991717
19.284496
36.802131
57.777363
82.328268
110.5587
142.55161
178.36171
218.00841
261.46923
308.67456
359.50386
413.78367
471.28788
531.73994
594.81724
660.15731
727.36557
796.02415
865.7014
935.9616
1006.3743
1076.5229
1146.0125
1214.476
1281.5796
1347.0253
1410.5543
1471.9465
1531.0213
1587.6351
1641.6801
1693.081
1741.7922
1787.7943
1831.0904
1871.7031
1909.6706
1945.0442
1977.8848
2008.2601
2036.2428
2061.9074
2085.3289
2106.5804
2125.7315
2142.8467
2157.983
2171.1894
2182.5038
2191.9458
2199.5263
2205.2989
2209.1871
2210.5619
-17.587252
20.104023
36.938232
60.013137
81.649458
104.10823
126.80842
149.95582
173.51105
197.45716
221.72672
246.24459
270.91114
295.59586
320.14268
344.37296
368.09011
391.08484
413.14198
434.0468
453.59214
471.5844
487.84923
502.23566
514.61923
524.90362
533.02084
538.93051
542.61764
544.09035
543.37624
540.52001
535.57912
528.62056
519.71807
508.9677
496.47173
482.31897
466.59913
449.40737
430.84272
411.00924
390.01779
367.98742
345.0464
321.33345
296.99837
272.20242
247.11817
221.92877
196.82684
172.01268
147.69205
124.0736
101.36606
79.775103
59.500531
40.733555
23.654593
8.4317928
-4.7796243
-15.837155
-24.609681
-30.975352
-34.818797
-36.027642
-34.487395
-30.081925
-22.710497
-12.255111
1.4278576
18.481296
39.048745
63.269172
91.268914
123.15378
159.00037
198.84759
242.68885
290.46563
342.06286
397.30638
455.96297
517.74269
582.3038
649.25974
718.18789
788.63967
860.15136
932.25506
1004.4893
1076.4089
1147.5931
1217.653
1286.2369
1353.0336
1417.7748
1480.2357
1540.2339
1597.6281
1652.3152
1704.2268
1753.3261
1799.6038
1843.074
1883.7705
1921.7433
1957.0545
1989.7761
2019.9861
2047.7666
2073.2009
2096.3719
2117.3596
2136.2401
2153.0831
2167.9507
2180.8966
2191.9635
2201.1764
2208.5528
2214.1521
2217.9118
2219.2402
-19.896897
18.957416
35.31013
58.356951
79.859822
102.25643
124.93836
148.1379
171.82499
195.99294
220.57627
245.49944
270.66239
295.9299
321.13755
346.09517
370.59194
394.40209
417.29259
439.03016
459.3892
478.15852
495.14758
510.1913
523.15337
533.92823
542.44115
548.64751
552.53027
554.09743
553.378
550.41933
545.28235
538.03807
528.7645
517.56375
504.54541
489.80332
473.43043
455.52565
436.19166
415.53622
393.67418
370.72891
346.83349
322.132
296.78022
270.946
244.8091
218.56038
192.40052
166.53806
141.1869
116.56346
92.88346
70.358488
49.192783
29.580223
11.701882
-4.2755597
-18.200424
-29.935594
-39.356742
-46.349553
-50.806119
-52.620446
-51.682366
-47.878413
-41.10716
-31.243858
-18.132692
-1.614233
18.475983
42.301102
70.013665
101.74628
137.60133
177.64084
221.87717
270.26522
322.69677
378.99728
438.92562
502.17665
568.38665
637.14128
707.98562
780.43572
853.99092
928.14647
1002.4055
1076.2899
1149.3503
1221.173
1291.3867
1359.6655
1425.7314
1489.3546
1550.3519
1608.585
1663.9566
1716.4072
1765.9104
1812.4686
1856.1086
1896.8773
1934.8377
1970.0649
2002.643
2032.6616
2060.2135
2085.3917
2108.288
2128.9901
2147.5809
2164.1363
2178.7238
2191.402
2202.2183
2211.2035
2218.3812
2223.8159
2227.4569
2228.7435
-22.507208
17.58419
33.367261
56.348688
77.672736
99.97083
122.60482
145.83679
169.64781
194.04442
218.96386
244.32948
270.04064
295.9567
321.90345
347.67731
373.05087
397.77926
421.60874
444.28461
465.56008
485.20378
503.00686
518.78828
532.39859
543.72204
552.6767
559.21353
563.3136
564.98516
564.25911
561.18608
555.8311
548.26977
538.58555
526.88701
513.29219
497.90156
480.81159
462.12541
441.94965
420.39604
397.58359
373.64022
348.70405
322.92484
296.46472
269.49869
242.21435
214.81105
187.49848
160.49445
134.02212
108.30679
83.572296
60.037075
37.91057
17.38979
-1.3434529
-18.124296
-32.805433
-45.256434
-55.361483
-63.015851
-68.121311
-70.580466
-70.289466
-67.13878
-61.027588
-51.824283
-39.358999
-23.453519
-3.919199
19.435304
46.793285
78.318959
114.14523
154.36166
199.00327
248.0412
301.37578
358.83257
420.16171
485.04075
553.08076
623.83543
696.81263
771.48762
847.31733
923.75471
1000.2624
1076.3254
1151.4612
1225.229
1297.2355
1367.1389
1434.6512
1499.5374
1561.6144
1620.7478
1676.848
1729.8655
1779.7861
1826.6259
1870.4262
1911.2488
1949.1713
1984.2832
2016.6822
2046.4708
2073.7536
2098.6346
2121.2151
2141.5919
2159.8556
2176.089
2190.366
2202.7509
2213.2969
2222.0406
2229.0116
2234.2792
2237.8024
2239.0475
-25.344244
16.086825
31.227122
54.113178
75.216484
97.380714
119.93587
143.17705
167.0982
191.72176
216.98839
242.82024
269.11706
295.73292
322.48314
349.14941
375.48571
401.22554
426.09153
449.80445
472.09315
492.70319
511.40477
527.99877
542.32097
554.24441
563.67946
570.57276
574.9039
576.68215
575.94138
572.73658
567.13804
559.22708
549.09317
536.8526
522.63295
506.5412
488.67731
469.14853
448.06539
425.54345
401.7059
376.68521
350.6247
323.68007
296.02022
267.82785
239.29915
210.64288
182.0788
153.8352
126.1458
99.246164
73.369518
48.742381
25.580364
4.0842516
-15.56318
-33.199173
-48.681634
-61.888229
-72.71357
-81.064836
-86.856025
-90.000863
-90.404068
-87.961912
-82.57538
-74.105932
-62.368385
-47.163384
-28.274598
-5.4780318
21.445513
52.697363
88.446461
128.81501
173.86509
223.58744
277.89302
336.60808
399.47316
466.14614
536.2092
609.17923
684.52122
761.66355
840.01439
918.97832
997.97194
1076.438
1153.8575
1229.7589
1303.725
1375.3971
1444.4764
1510.7237
1573.9568
1634.0467
1690.9132
1744.5191
1794.8646
1841.9817
1885.9283
1926.7828
1964.6396
1999.6041
2031.7893
2061.3119
2088.2895
2112.8378
2135.0688
2155.0888
2172.9968
2188.883
2202.828
2214.9022
2225.1646
2233.6576
2240.4168
2245.5155
2248.9211
2250.1253
-28.50044
14.349186
28.740993
51.478235
72.296965
94.272716
116.70185
139.91651
163.92609
188.77265
214.4014
240.73244
267.66597
295.05028
322.68872
350.34604
377.75486
404.62375
430.64816
455.52059
478.94203
500.63161
520.33578
537.83501
552.94867
565.53753
575.50382
582.78983
587.3742
589.26795
588.50883
585.15726
579.28982
570.99456
560.36766
547.53438
532.63366
515.77973
497.07629
476.63496
454.5703
431.00173
406.0566
379.87202
352.59658
324.39214
295.43479
265.91544
236.03965
206.02657
176.10717
146.5216
117.51565
89.336646
62.228793
36.428087
12.157475
-10.377702
-30.993439
-49.529433
-65.849852
-79.84222
-91.41401
-100.48729
-106.9916
-110.85512
-111.99414
-110.31365
-105.7182
-98.061992
-87.143031
-72.737967
-54.598577
-32.462911
-6.0697431
24.825925
60.435623
100.92031
146.37437
196.81214
252.15773
312.23889
376.7856
445.43339
517.73123
593.15368
671.11628
750.99341
832.13725
913.89696
995.63664
1076.7514
1156.681
1234.9199
1311.0248
1384.6187
1455.3922
1523.1021
1587.5685
1648.6698
1706.3372
1760.548
1811.3195
1858.7016
1902.7712
1943.6259
1981.3784
2016.1523
2048.0771
2077.2853
2103.9086
2128.076
2149.9111
2169.5303
2187.042
2202.5444
2216.1255
2227.8622
2237.8193
2246.0455
2252.5817
2257.5048
2260.7895
2261.9515
-31.94087
12.423414
25.963352
48.497075
68.963188
90.690205
112.9392
136.08363
160.15099
185.20688
211.2022
238.05476
265.66631
293.87958
322.48483
351.22789
379.8172
407.93287
435.23917
461.3962
486.07286
508.95807
529.77116
548.26956
564.2543
577.57275
588.1186
595.83007
600.68554
602.699
601.9134
598.39607
592.23138
583.51536
572.35199
558.87683
543.24143
525.56764
505.96264
484.54231
461.42501
436.73383
410.60011
383.1655
354.58392
325.02358
294.6681
263.71725
232.38677
200.90726
169.52228
138.48538
108.05613
78.495536
50.060604
22.998561
-2.4588182
-26.100571
-47.74097
-67.222409
-84.416375
-99.222178
-111.56292
-121.379
-128.61942
-133.23075
-135.14456
-134.27861
-130.54258
-123.78346
-113.78189
-100.28738
-83.015177
-61.659312
-35.909416
-5.469137
29.923372
70.475054
116.31886
167.49753
223.95137
285.51067
351.89384
422.71095
497.4729
575.60539
656.46699
739.36981
823.60171
908.44843
993.2143
1077.2406
1159.9208
1240.7118
1319.142
1394.8152
1467.4112
1536.6842
1602.4581
1664.6211
1723.1183
1777.9445
1829.1366
1876.7655
1920.9296
1961.7479
1999.3539
2033.891
2065.5072
2094.352
2120.5727
2144.3122
2165.7066
2184.8834
2201.9606
2217.0451
2230.2323
2241.606
2251.2373
2259.1804
2265.4819
2270.2217
2273.3808
2274.4993
-35.733947
10.224585
22.781076
45.034969
65.059104
86.457536
108.45486
131.47095
155.5548
180.79978
207.16557
234.56703
262.90671
292.02209
321.68866
351.63064
381.52879
411.03051
439.76418
467.3526
493.42788
517.64435
539.6905
559.29781
576.24691
590.37062
601.55374
609.73077
614.88078
617.02193
616.20392
612.50253
606.01138
596.83586
585.08883
570.91765
554.4884
535.93132
515.35701
492.88563
468.63918
442.74421
415.33583
386.56006
356.57608
325.55858
293.69903
261.20661
228.30811
195.24676
162.28017
129.67705
97.712778
66.664146
36.803201
8.3904945
-18.331561
-43.145042
-65.861856
-86.327306
-104.42143
-120.05765
-133.17806
-143.7457
-151.73391
-157.11276
-159.83395
-159.83275
-157.02687
-151.25636
-142.283
-129.82575
-113.55785
-93.122161
-68.150773
-38.286882
-3.2091651
37.343904
83.551255
135.48982
193.11973
256.27519
324.66187
397.86086
475.33921
556.46627
640.53473
726.78493
814.43066
902.685
990.7842
1078.0087
1163.7001
1247.274
1328.2281
1406.1459
1480.6971
1551.6344
1618.788
1682.0583
1741.4077
1796.8515
1848.4493
1896.2964
1940.5154
1981.2494
2018.6552
2052.8978
2084.1457
2112.5671
2138.3261
2161.5807
2182.4803
2201.1643
2217.7609
2232.3862
2245.1435
2256.1235
2265.4035
2273.0437
2279.0955
2283.6415
2286.6685
2287.7412
-39.872198
7.7684433
19.201966
41.09079
60.572225
81.550066
103.21144
126.02809
150.07421
175.47682
202.20611
230.17385
259.28496
289.37175
320.19359
351.45037
382.79128
413.82624
444.14233
473.31936
500.94711
526.64023
550.05207
570.88477
588.89627
603.90362
615.78248
624.46428
629.93001
632.20376
631.3439
627.43668
620.58689
610.91091
598.53187
583.61073
566.32969
546.82766
525.21825
501.62558
476.17488
448.99571
420.22653
390.01744
358.53275
325.95363
292.47972
258.3302
223.74382
188.97772
154.30523
120.01223
86.392212
53.740335
22.346319
-7.5133789
-35.583402
-61.637091
-85.482972
-106.96926
-125.98578
-142.46256
-156.36457
-167.68251
-176.41994
-182.57658
-186.13038
-187.0397
-185.23437
-180.54859
-172.72393
-161.44538
-146.33794
-126.98503
-102.95131
-73.808772
-39.165738
1.3041345
47.834635
100.54377
159.41599
224.29108
294.86073
370.67298
451.14438
535.57909
623.19362
713.14531
804.5627
896.57555
988.34253
1079.0753
1168.0577
1254.6598
1338.3463
1418.6798
1495.3209
1568.0226
1636.6241
1701.0416
1761.2583
1817.3137
1869.2942
1917.3225
1961.5489
2002.1434
2039.2885
2073.1734
2103.9888
2131.9228
2157.1579
2179.8679
2200.2166
2218.3558
2234.4245
2248.5481
2260.8382
2271.3925
2280.2946
2287.6104
2293.3962
2297.7365
2300.6239
2301.6482
-44.409641
4.9880299
15.131664
36.547559
55.362248
75.805206
97.025606
119.5535
143.49261
169.01018
196.09081
224.64252
254.57293
285.70964
317.79408
350.49841
383.43567
416.17262
448.24873
479.19424
508.55019
535.88575
560.8142
583.00461
602.18973
618.16963
630.81074
640.04227
645.84871
648.26209
647.35169
643.21646
635.97445
625.7548
612.69231
596.96353
578.76896
558.25666
535.54286
510.75529
484.02198
455.47489
425.25537
393.51712
360.42928
326.17945
290.97561
255.04749
218.64675
182.04582
145.53558
109.42135
74.017429
39.640317
6.600562
-24.80635
-54.309284
-81.670577
-106.69401
-129.23054
-149.18105
-166.49515
-181.16524
-193.21579
-202.68782
-209.61844
-214.01951
-215.88006
-215.14711
-211.65007
-205.10916
-195.17126
-181.40594
-163.32737
-140.42115
-112.1753
-78.114869
-37.836538
8.9589104
62.438819
122.61731
189.34183
262.28877
340.96837
424.73886
512.82886
604.36652
698.41316
793.99888
890.15778
985.96012
1080.5399
1173.1164
1263.0097
1349.6493
1432.5769
1511.4448
1586.0094
1656.1222
1721.7191
1782.8083
1839.4585
1891.7864
1939.9463
1984.1198
2024.5071
2061.3191
2094.7713
2125.0787
2152.4512
2177.0907
2199.1882
2218.9223
2236.458
2251.9455
2265.5199
2277.3011
2287.394
2295.8883
2302.8556
2308.3568
2312.4778
2315.2167
2316.1895
-49.357779
1.8726651
10.542564
31.361207
49.366333
69.14091
89.795973
111.9269
135.67216
161.24566
188.65192
217.79531
248.58704
280.85101
314.30896
348.60162
383.3007
417.92329
451.95387
484.86541
516.14271
545.30264
571.91274
595.6047
616.08332
633.13044
646.60338
656.43035
662.60141
665.1591
664.18637
659.79767
652.12685
641.31788
627.51887
610.92454
591.75565
570.16925
546.28349
520.22906
492.13599
462.13789
430.37819
397.01363
362.21772
326.18427
289.12976
251.29501
212.94555
174.37059
135.88058
97.802875
60.475675
24.240322
-10.568029
-43.631048
-74.658252
-103.39801
-129.64739
-153.25953
-174.14753
-192.28372
-207.69319
-220.44138
-230.61545
-238.29933
-243.54829
-246.39171
-246.80007
-244.60015
-239.49036
-231.07502
-218.85991
-202.27859
-180.72372
-153.5842
-120.28644
-80.335617
-33.35446
20.8836
82.428849
151.13904
226.67378
308.50004
395.90854
488.04019
583.9205
682.49935
782.69308
883.42584
983.66697
1082.4627
1178.9606
1272.4261
1362.2514
1447.9574
1529.1904
1605.7132
1677.3942
1744.1939
1806.1509
1863.3674
1915.9958
1964.2262
2008.2756
2048.3774
2084.7741
2117.7103
2147.4268
2174.157
2198.1235
2219.5354
2238.587
2255.4569
2270.3067
2283.2815
2294.5097
2304.1032
2312.158
2318.7508
2323.9472
2327.8341
2330.4147
2331.3326
-54.763053
-1.6365865
5.346111
25.416932
42.441886
61.387361
81.326838
102.92932
126.37375
151.92387
179.61676
209.35659
241.05229
274.52736
309.48179
345.52054
382.16794
418.88379
455.08895
490.19015
523.60721
554.79686
583.27437
608.62924
630.53537
648.7551
663.13707
673.61013
680.17245
682.88016
681.83317
677.16453
669.0267
657.58078
642.98992
625.46989
605.264
582.5381
557.41143
530.01687
500.48559
468.95181
435.56015
400.46952
363.85716
325.92278
286.89131
247.0151
206.57453
165.8772
125.25533
85.06125
45.660581
7.4236297
-29.285352
-64.120566
-96.76777
-126.95759
-154.47772
-179.18244
-200.99813
-219.92337
-236.02204
-249.40913
-260.2286
-268.62287
-274.70233
-278.54907
-280.16571
-279.37882
-275.86462
-269.17979
-258.75672
-243.93483
-223.99748
-198.2164
-165.90103
-126.44781
-79.386327
-24.418971
38.548526
109.38746
187.73908
273.02068
364.4447
461.04993
561.74229
665.34209
770.6339
876.4152
981.54013
1084.9558
1185.7299
1283.0685
1376.3247
1464.9995
1548.7359
1627.3077
1700.6054
1768.6202
1831.4266
1889.1664
1942.0332
1990.2579
2034.0967
2073.8208
2109.707
2142.0313
2171.0628
2197.06
2220.2672
2240.9126
2259.207
2275.3427
2289.4933
2301.814
2312.4413
2321.4944
2329.0751
2335.2656
2340.1352
2343.7717
2346.1834
2347.0428
-60.649651
-5.5700251
-0.51361352
18.634076
34.480948
52.408929
71.455124
92.370972
115.38133
140.80917
168.73196
199.05715
231.69315
266.46287
303.04313
340.99827
379.79828
418.8368
457.46098
495.00072
530.80063
564.24809
594.7986
621.99397
645.47386
664.98004
680.35313
691.52487
698.50478
701.36636
700.23039
695.25235
686.60665
674.47407
659.03481
640.52906
619.22532
595.29712
568.86333
540.05809
509.01234
475.85966
440.74467
403.82739
365.28797
325.33144
284.19108
242.1311
199.44774
156.4686
113.55017
71.072967
29.434144
-10.962248
-49.717507
-86.452742
-120.82444
-152.54062
-181.37594
-207.18402
-229.90522
-249.56801
-266.28196
-280.22173
-291.60087
-300.63455
-307.50309
-312.35764
-315.24239