/*--------------------------------*- C++ -*----------------------------------*\
| =========                 |                                                 |
| \\      /  F ield         | foam-extend: Open Source CFD                    |
|  \\    /   O peration     | Version:     4.1                                |
|   \\  /    A nd           | Web:         http://www.foam-extend.org         |
|    \\/     M anipulation  |                                                 |
\*---------------------------------------------------------------------------*/
FoamFile
{
    version     2.0;
    format      ascii;
    class       surfaceScalarField;
    location    "0.5";
    object      phi;
}
// * * * * * * * * * * * * * * * * * * * * * * * * * * * * * * * * * * * * * //

dimensions      [0 3 -1 0 0 0 0];

internalField   nonuniform List<scalar> 
32976
(
-0.22441645
0.00066698041
-0.22515179
0.00073533892
-0.22587321
0.000721418
-0.22657959
0.00070638339
-0.22725533
0.00067573863
-0.22789191
0.00063657768
-0.2284808
0.00058889476
-0.22901507
0.00053426801
-0.22948889
0.00047381295
-0.22989776
0.00040887668
-0.23023862
0.00034085602
-0.23050988
0.00027126302
-0.23071154
0.00020165858
-0.23084517
0.00013362784
-0.23091391
6.8743921e-05
-0.23092232
8.4117905e-06
-0.23087502
-4.7299219e-05
-0.23077481
-0.00010021516
-0.23062375
-0.00015105919
-0.23042526
-0.00019849267
-0.23018425
-0.00024100277
-0.22990708
-0.00027717256
-0.22960137
-0.00030571208
-0.22927583
-0.00032553984
-0.22894005
-0.00033577682
-0.22860429
-0.00033576086
-0.22827928
-0.00032501167
-0.22797604
-0.00030323721
-0.22770575
-0.00027029861
-0.22747952
-0.00022622959
-0.22730828
-0.00017123772
-0.22720251
-0.00010576944
-0.22717187
-3.0639517e-05
-0.2272237
5.1829609e-05
-0.22736017
0.00013646746
-0.22758006
0.00021989345
-0.22788232
0.00030226082
-0.2282659
0.00038358459
-0.22872939
0.00046348598
-0.22927074
0.00054134972
-0.22988716
0.00061641823
-0.23057502
0.00068785875
-0.23132987
0.00075485575
-0.2321465
0.00081662778
-0.23301896
0.00087246398
-0.2339407
0.0009217366
-0.23490461
0.00096391151
-0.23590317
0.00099855756
-0.23692852
0.0010253473
-0.23797258
0.0010440635
-0.23902718
0.0010545984
-0.24008413
0.0010569525
-0.24113536
0.0010512317
-0.24217301
0.0010376445
-0.2431895
0.0010164918
-0.24417766
0.00098816288
-0.24513079
0.00095312458
-0.2460427
0.00091191104
-0.24690781
0.00086511196
-0.24772117
0.00081336242
-0.2484785
0.00075732648
-0.24917619
0.00069768795
-0.24981132
0.00063513594
-0.25038168
0.0005703528
-0.25088568
0.00050400267
-0.2513224
0.00043672065
-0.2516915
0.00036910467
-0.25199321
0.00030170556
-0.25222823
0.0002350219
-0.25239772
0.00016948859
-0.25250319
0.00010546757
-0.25254644
4.3252681e-05
-0.25252932
-1.7117129e-05
-0.25245274
-7.6580586e-05
-0.25231764
-0.00013510349
-0.25212646
-0.00019117729
-0.25188258
-0.00024387855
-0.25158986
-0.00029272701
-0.25125244
-0.0003374205
-0.25087467
-0.00037776231
-0.25046106
-0.00041361319
-0.25001619
-0.0004448731
-0.24954471
-0.00047147521
-0.24905133
-0.00049338466
-0.24854073
-0.00051059937
-0.24801758
-0.0005231521
-0.24748646
-0.00053111227
-0.24695188
-0.00053458741
-0.24641815
-0.00053372392
-0.24588945
-0.00052870663
-0.24536969
-0.0005197583
-0.24486255
-0.0005071349
-0.24437143
-0.0004911242
-0.24389939
-0.00047203986
-0.24344917
-0.00045021632
-0.24302317
-0.00042600282
-0.24262341
-0.00039975704
-0.24225157
-0.00037183954
-0.24190897
-0.00034260611
-0.24159656
-0.00031240377
-0.241315
-0.00028156463
-0.2410646
-0.00025040147
-0.24084539
-0.00021920369
-0.24065716
-0.00018823425
-0.24049943
-0.00015772599
-0.24037155
-0.00012788049
-0.24027269
-9.8866214e-05
-0.24020187
-7.0818442e-05
-0.24015803
-4.3839195e-05
-0.24014003
-1.7999329e-05
-0.24014665
6.6224624e-06
-0.24017659
2.9940182e-05
-0.24022863
5.2043908e-05
-0.24030172
7.3085901e-05
-0.24039484
9.3117271e-05
-0.24050701
0.00011217632
-0.24063729
0.0001302718
-0.24078464
0.00014735297
-0.24094792
0.00016328113
-0.24112575
0.00017783476
-0.24131569
0.00018993361
-0.24151175
0.00019606265
-0.24171284
0.00020108889
0.00022261015
-0.25603158
0.0011426099
-0.25650428
0.0012080327
-0.25696945
0.001186592
-0.25741384
0.0011507749
-0.25782835
0.001090244
-0.25820367
0.0010118979
-0.25853173
0.00091695631
-0.25880529
0.00080783014
-0.25901812
0.00068664448
-0.25916505
0.0005558075
-0.25924205
0.0004178527
-0.25924628
0.00027548982
-0.25917614
0.0001315154
-0.25903128
-1.1229994e-05
-0.25881241
-0.00015012712
-0.2585212
-0.00028279857
-0.25816185
-0.00040664403
-0.257743
-0.00051906336
-0.25727591
-0.00061815361
-0.25677185
-0.000702553
-0.25624183
-0.00077101982
-0.25569647
-0.00082253764
-0.25514589
-0.00085629233
-0.25459968
-0.00087174725
-0.25406685
-0.00086860436
-0.25355575
-0.00084686434
-0.253074
-0.00080676226
-0.25262842
-0.00074880889
-0.25222501
-0.00067371471
-0.25186881
-0.00058242383
-0.251564
-0.00047605514
-0.25131381
-0.00035595977
-0.25112068
-0.00022376347
-0.25098753
-8.1320269e-05
-0.25092046
6.9392507e-05
-0.25092618
0.00022561226
-0.25100829
0.00038437755
-0.25116815
0.00054344431
-0.25140548
0.00070080846
-0.25171866
0.00085453658
-0.25210503
0.0010027888
-0.25256095
0.0011437757
-0.25308192
0.0012758265
-0.25366267
0.0013973783
-0.25429723
0.0015070206
-0.254979
0.0016035107
-0.25570088
0.0016857912
-0.25645533
0.0017530065
-0.25723449
0.0018045059
-0.25803028
0.0018398552
-0.25883452
0.0018588358
-0.25963901
0.0018614435
-0.26043566
0.0018478821
-0.26121657
0.0018185594
-0.26197415
0.0017740663
-0.26270116
0.0017151707
-0.26339083
0.0016427947
-0.26403691
0.0015579963
-0.26463375
0.0014619455
-0.26517629
0.0013559048
-0.26566016
0.0012411974
-0.26608166
0.0011191894
-0.26643779
0.00099126183
-0.26672622
0.0008587879
-0.26694533
0.00072311131
-0.26709414
0.00058552663
-0.2671723
0.00044726421
-0.26718006
0.00030947436
-0.26711826
0.00017322124
-0.26698825
3.9471141e-05
-0.26679184
-9.093602e-05
-0.2665313
-0.00021728985
-0.26620947
-0.00033894996
-0.26583088
-0.00045517176
-0.26540059
-0.00056539392
-0.26492253
-0.00066923335
-0.26440018
-0.00076622698
-0.26383695
-0.0008559537
-0.26323632
-0.00093805445
-0.26260186
-0.0010122263
-0.26193725
-0.0010782225
-0.26124627
-0.0011358472
-0.26053279
-0.0011849568
-0.25980071
-0.001225464
-0.25905397
-0.0012573405
-0.2582965
-0.001280623
-0.25753219
-0.0012954171
-0.25676488
-0.0013018999
-0.25599828
-0.0013003227
-0.25523598
-0.0012910093
-0.25448138
-0.0012743567
-0.25373769
-0.0012508243
-0.25300788
-0.0012209331
-0.25229467
-0.0011852539
-0.25160049
-0.0011443979
-0.25092749
-0.0010990053
-0.25027751
-0.0010497338
-0.2496521
-0.00099724841
-0.2490525
-0.00094220618
-0.24847965
-0.00088524973
-0.24793422
-0.00082699528
-0.2474166
-0.00076802444
-0.24692693
-0.00070887642
-0.24646512
-0.00065004307
-0.24603088
-0.00059196073
-0.24562375
-0.00053500919
-0.24524311
-0.00047950731
-0.24488822
-0.0004257119
-0.24455824
-0.0003738177
-0.24425228
-0.00032396123
-0.24396944
-0.00027621653
-0.24370891
-0.00023059348
-0.24346979
-0.0001870743
-0.24325109
-0.00014561487
-0.24305183
-0.00010614096
-0.24287107
-6.8579768e-05
-0.24270791
-3.288901e-05
-0.24256145
8.9102905e-07
-0.24243077
3.259831e-05
-0.24231481
6.1877068e-05
-0.2422122
8.7325314e-05
-0.24212216
0.00010602389
-0.24204173
0.00012065145
0.00011633427
-0.26096236
0.0014921912
-0.26125251
0.0014981809
-0.26150849
0.0014425714
-0.26172236
0.0013646506
-0.26189074
0.0012586227
-0.2620087
0.0011298559
-0.26207223
0.00098049192
-0.26207804
0.00081363314
-0.26202374
0.00063234649
-0.26190796
0.0004400317
-0.26173039
0.0002402753
-0.26149175
3.6858134e-05
-0.26119388
-0.00016636269
-0.26083956
-0.0003655439
-0.26043286
-0.00055682553
-0.2599792
-0.00073645887
-0.25948489
-0.00090095927
-0.25895677
-0.001047176
-0.25840239
-0.0011725398
-0.2578298
-0.0012751449
-0.25724739
-0.0013534231
-0.25666375
-0.0014061832
-0.25608749
-0.0014325472
-0.25552717
-0.0014320663
-0.25499113
-0.001404651
-0.25448732
-0.0013506694
-0.25402324
-0.0012708445
-0.25360573
-0.0011663227
-0.25324089
-0.0010385549
-0.25293396
-0.0008893457
-0.25268927
-0.00072074487
-0.25251015
-0.00053508681
-0.25239899
-0.00033492068
-0.25235737
-0.00012294023
-0.25238607
9.8090487e-05
-0.25248554
0.00032508371
-0.25265581
0.00055464603
-0.2528959
0.00078353904
-0.25320389
0.0010088004
-0.253577
0.0012276381
-0.25401165
0.0014374472
-0.25450362
0.0016357409
-0.25504803
0.0018202329
-0.25563946
0.0019888087
-0.25627201
0.0021395787
-0.2569394
0.002270893
-0.25763497
0.0023813622
-0.25835184
0.0024698779
-0.25908295
0.0025356156
-0.25982114
0.0025780506
-0.26055927
0.0025969568
-0.26129023
0.0025924047
-0.2620071
0.0025647537
-0.26270318
0.0025146455
-0.26337209
0.0024429767
-0.26400781
0.002350889
-0.26460476
0.0022397386
-0.26515783
0.0021110693
-0.26566246
0.0019665797
-0.26611465
0.0018080944
-0.26651098
0.0016375204
-0.26684861
0.0014568198
-0.26712532
0.0012679711
-0.26733946
0.0010729362
-0.26748998
0.00087363004
-0.26757635
0.00067189286
-0.26759855
0.00046946872
-0.26755707
0.00026798558
-0.26745279
6.8948773e-05
-0.26728705
-0.00012627336
-0.26706153
-0.00031644963
-0.26677832
-0.00050050062
-0.26643981
-0.00067746309
-0.26604857
-0.00084640882
-0.26560738
-0.0010065918
-0.26511917
-0.0011574358
-0.26458706
-0.0012983405
-0.26401429
-0.0014287263
-0.26340426
-0.0015480803
-0.26276053
-0.0016559576
-0.26208676
-0.0017519884
-0.26138674
-0.001835873
-0.26066431
-0.0019073859
-0.25992339
-0.0019663819
-0.25916793
-0.0020128025
-0.25840187
-0.0020466839
-0.25762912
-0.0020681638
-0.25685353
-0.0020774864
-0.25607885
-0.0020750051
-0.25530868
-0.0020611818
-0.25454645
-0.0020365869
-0.25379539
-0.0020018841
-0.25305849
-0.0019578289
-0.2523385
-0.0019052513
-0.25163785
-0.0018450422
-0.25095872
-0.0017781362
-0.25030296
-0.0017054945
-0.24967212
-0.0016280908
-0.24906744
-0.0015468873
-0.24848986
-0.0014628263
-0.24794004
-0.0013768124
-0.24741837
-0.0012896999
-0.24692496
-0.0012022816
-0.24645972
-0.0011152818
-0.24602234
-0.0010293434
-0.24561232
-0.00094502691
-0.24522903
-0.00086280386
-0.24487168
-0.00078305434
-0.24453944
-0.00070606646
-0.24423136
-0.0006320396
-0.24394649
-0.00056108333
-0.24368385
-0.00049322971
-0.24344247
-0.00042845916
-0.24322138
-0.00036670184
-0.24301968
-0.0003078465
-0.24283648
-0.00025177969
-0.24267094
-0.00019842288
-0.24252226
-0.00014779114
-0.24238962
-0.000100043
-0.24227212
-5.5622211e-05
-0.24216891
-1.5887062e-05
-0.24208009
1.7206285e-05
-0.24200308
4.3637804e-05
4.8858405e-05
-0.26174906
0.0018010575
-0.26199732
0.0017464398
-0.26220464
0.0016498873
-0.26236533
0.0015253445
-0.26247769
0.001370985
-0.26253854
0.0011907026
-0.26254534
0.00098729277
-0.26249605
0.00076433876
-0.26238933
0.00052562936
-0.26222464
0.00027534193
-0.26200228
1.7911467e-05
-0.26172341
-0.00024201104
-0.26139011
-0.00049965896
-0.2610054
-0.00075025228
-0.26057317
-0.00098906155
-0.26009806
-0.0012115633
-0.25958549
-0.0014135292
-0.25904149
-0.0015911814
-0.25847276
-0.001741267
-0.25788672
-0.0018611791
-0.25729139
-0.0019487575
-0.25669516
-0.0020024151
-0.25610665
-0.0020210505
-0.25553452
-0.0020041964
-0.25498728
-0.0019518991
-0.2544731
-0.001864845
-0.25399974
-0.0017442066
-0.25357433
-0.0015917337
-0.2532033
-0.0014095851
-0.25289225
-0.0012003904
-0.2526459
-0.00096709504
-0.25246799
-0.00071300217
-0.25236124
-0.0004416651
-0.25232736
-0.00015682676
-0.25236693
0.0001376638
-0.25247968
0.00043783657
-0.25266466
0.00073962612
-0.25292019
0.0010390655
-0.25324379
0.0013324028
-0.25363222
0.0016160636
-0.2540815
0.0018867299
-0.25458703
0.0021412668
-0.25514362
0.0023768307
-0.25574564
0.0025908223
-0.256387
0.0027809463
-0.25706133
0.002945222
-0.25776197
0.0030820023
-0.25848209
0.0031899952
-0.25921474
0.0032682627
-0.25995293
0.0033162398
-0.2606897
0.0033337301
-0.2614182
0.0033209034
-0.26213173
0.0032782862
-0.26282384
0.0032067537
-0.26348836
0.0031074967
-0.26411948
0.0029820107
-0.2647118
0.0028320589
-0.26526037
0.0026596393
-0.26576074
0.0024669453
-0.26620897
0.0022563295
-0.2666017
0.0020302498
-0.26693612
0.0017912353
-0.26720998
0.0015418367
-0.26742163
0.0012845851
-0.26756995
0.0010219524
-0.26765438
0.00075631546
-0.26767484
0.00048992849
-0.26763175
0.00022489862
-0.26752598
-3.6819612e-05
-0.26735879
-0.00029346265
-0.2671318
-0.00054344482
-0.26684693
-0.0007853699
-0.26650641
-0.001017982
-0.26611269
-0.0012401314
-0.26566846
-0.0014508185
-0.26517671
-0.0016491846
-0.26464062
-0.0018344303
-0.26406352
-0.002005827
-0.26344887
-0.0021627294
-0.26280026
-0.0023045658
-0.2621214
-0.0024308516
-0.26141609
-0.0025411854
-0.26068821
-0.0026352587
-0.25994173
-0.0027128657
-0.25918062
-0.0027739136
-0.25840887
-0.0028184346
-0.25763044
-0.0028465954
-0.25684922
-0.0028587045
-0.25606901
-0.0028552167
-0.25529346
-0.002836732
-0.25452605
-0.0028039961
-0.25377005
-0.0027578802
-0.2530285
-0.0026993785
-0.25230417
-0.0026295861
-0.25159953
-0.0025496793
-0.25091677
-0.0024608942
-0.25025776
-0.0023645026
-0.24962406
-0.0022617935
-0.24901691
-0.0021540411
-0.24843724
-0.0020424937
-0.2478857
-0.0019283496
-0.24736266
-0.0018127406
-0.24686823
-0.0016967172
-0.24640227
-0.0015812389
-0.24596445
-0.0014671574
-0.24555427
-0.0013552151
-0.24517103
-0.0012460365
-0.24481396
-0.0011401249
-0.24448217
-0.0010378615
-0.2441747
-0.00093951025
-0.24389056
-0.00084521656
-0.24362877
-0.0007550227
-0.24338834
-0.00066888806
-0.24316834
-0.00058670383
-0.24296787
-0.00050831187
-0.24278611
-0.00043354059
-0.24262229
-0.00036224597
-0.24247571
-0.00029437114
-0.24234575
-0.00023000386
-0.24223183
-0.00016953793
-0.24213365
-0.00011407063
-0.24205148
-6.4964592e-05
-0.24198428
-2.3563527e-05
3.0288174e-08
-0.26189334
0.0021050675
-0.26214578
0.001998878
-0.2623562
0.0018603117
-0.26251949
0.0016886353
-0.26263367
0.0014851665
-0.26269576
0.0012527926
-0.26270332
0.00099485164
-0.26265433
0.0007153462
-0.2625474
0.00041870289
-0.26238187
0.00010981224
-0.26215787
-0.00020609504
-0.26187635
-0.00052352442
-0.26153917
-0.00083684254
-0.26114905
-0.001140369
-0.26070965
-0.0014284659
-0.26022549
-0.0016957233
-0.25970199
-0.0019370236
-0.25914542
-0.00214776
-0.25856281
-0.0023238718
-0.25796194
-0.0024620486
-0.25735112
-0.0025595794
-0.25673901
-0.0026145236
-0.25613448
-0.0026255808
-0.2555464
-0.002592279
-0.25498349
-0.0025148107
-0.25445414
-0.0023941924
-0.25396628
-0.0022320628
-0.25352722
-0.0020307971
-0.25314352
-0.0017932865
-0.2528209
-0.0015230107
-0.25256417
-0.001223827
-0.25237716
-0.00090000559
-0.25226276
-0.00055607278
-0.25222284
-0.00019674571
-0.2522583
0.00017313095
-0.2523691
0.00054863233
-0.25255427
0.00092480021
-0.252812
0.0012967898
-0.25313961
0.0016600131
-0.25353365
0.0020101101
-0.25398998
0.0023430554
-0.25450379
0.0026550728
-0.25506972
0.0029427664
-0.25568196
0.0032030577
-0.25633426
0.0034332529
-0.25702009
0.003631049
-0.25773264
0.0037945511
-0.25846494
0.0039222942
-0.25920991
0.004013237
-0.25996046
0.0040667829
-0.2607095
0.0040827727
-0.26145008
0.0040614814
-0.2621754
0.0040036067
-0.2628789
0.0039102606
-0.26355434
0.003782931
-0.2641958
0.0036234704
-0.26479779
0.003434053
-0.26535529
0.0032171369
-0.26586376
0.0029754177
-0.26631922
0.0027117863
-0.26671823
0.0024292632
-0.26705795
0.0021309582
-0.26733613
0.0018200096
-0.26755108
0.001499533
-0.2677017
0.0011725725
-0.26778744
0.00084205633
-0.26780827
0.00051076167
-0.26776466
0.00018128597
-0.26765751
-0.00014396354
-0.26748817
-0.00046280902
-0.26725831
-0.00077330014
-0.26696998
-0.0010737002
-0.2666255
-0.0013624585
-0.26622745
-0.0016381866
-0.2657786
-0.0018996692
-0.26528194
-0.0021458415
-0.26474064
-0.0023757311
-0.26415802
-0.0025884507
-0.26353754
-0.0027832081
-0.26288281
-0.0029592944
-0.26219756
-0.003116102
-0.26148562
-0.0032531214
-0.26075093
-0.0033699548
-0.25999746
-0.0034663296
-0.25922926
-0.0035421127
-0.25845037
-0.0035973268
-0.2576648
-0.0036321632
-0.25687652
-0.003646992
-0.25608936
-0.0036423679
-0.25530707
-0.0036190295
-0.25453316
-0.0035779007
-0.25377098
-0.003520064
-0.2530236
-0.0034467589
-0.25229383
-0.0033593523
-0.2515842
-0.0032593149
-0.2508969
-0.0031481929
-0.25023382
-0.0030275777
-0.24959653
-0.0028990831
-0.24898627
-0.0027643038
-0.24840396
-0.0026248021
-0.24785023
-0.002482077
-0.24732543
-0.002337544
-0.24682963
-0.0021925161
-0.24636268
-0.0020481919
-0.2459242
-0.0019056343
-0.24551365
-0.0017657696
-0.24513031
-0.0016293753
-0.24477336
-0.0014970772
-0.24444187
-0.0013693481
-0.24413487
-0.0012465133
-0.24385133
-0.0011287512
-0.24359024
-0.0010161123
-0.24335059
-0.00090853611
-0.24313143
-0.00080587029
-0.24293184
-0.00070789573
-0.24275102
-0.00061436405
-0.24258823
-0.00052503791
-0.24244285
-0.00043974576
-0.24231442
-0.00035843681
-0.24220264
-0.00028131579
-0.24210768
-0.00020903812
-0.24203027
-0.00014236923
-0.24197113
-8.2702594e-05
-3.5651455e-05
-0.26198332
0.0024150192
-0.26224804
0.0022635991
-0.26247076
0.0020830271
-0.26264612
0.0018639966
-0.26277141
0.0016104547
-0.2628434
0.0013247818
-0.26285941
0.0010108643
-0.26281723
0.00067316464
-0.26271528
0.00031675982
-0.26255275
-5.2720623e-05
-0.26232961
-0.00042923849
-0.26204673
-0.00080640267
-0.26170591
-0.0011776583
-0.26130992
-0.0015363652
-0.26086247
-0.0018759173
-0.26036822
-0.0021899658
-0.25983277
-0.0024724743
-0.25926254
-0.0027179908
-0.25866476
-0.0029216482
-0.25804739
-0.0030794272
-0.25741894
-0.0031880261
-0.25678836
-0.0032451012
-0.25616483
-0.0032491123
-0.25555755
-0.0031995566
-0.2549756
-0.0030967613
-0.25442772
-0.0029420756
-0.25392217
-0.0027376163
-0.25346656
-0.0024864043
-0.25306776
-0.0021920889
-0.25273173
-0.0018590319
-0.25246352
-0.0014920433
-0.25226711
-0.0010964159
-0.25214546
-0.00067772475
-0.25210046
-0.00024174472
-0.25213295
0.0002056284
-0.25224281
0.00065848539
-0.25242897
0.0011109661
-0.25268954
0.0015573584
-0.25302177
0.001992241
-0.25342212
0.0024104585
-0.25388633
0.0028072645
-0.25440948
0.0031782254
-0.25498609
0.003519379
-0.25561019
0.003827155
-0.25627539
0.0040984509
-0.25697497
0.0043306335
-0.25770198
0.004521554
-0.25844925
0.0046695699
-0.25920955
0.0047735342
-0.25997558
0.0048328177
-0.26074011
0.0048472996
-0.26149599
0.0048173628
-0.26223627
0.0047438814
-0.26295422
0.0046282119
-0.26364344
0.0044721494
-0.26429788
0.004277916
-0.26491194
0.0040481125
-0.26548048
0.0037856748
-0.26599888
0.0034938213
-0.2664631
0.0031760026
-0.26686966
0.0028358252
-0.26721571
0.0024770028
-0.26749898
0.0021032838
-0.26771784
0.0017183894
-0.26787122
0.0013259545
-0.26795864
0.00092947391
-0.26798013
0.00053225881
-0.26793625
0.00013740198
-0.26782797
-0.00025223968
-0.2676567
-0.00063408334
-0.26742417
-0.0010058238
-0.26713247
-0.0013654
-0.26678395
-0.0017109798
-0.26638121
-0.0020409312
-0.26592706
-0.0023538138
-0.26542455
-0.0026483518
-0.26487689
-0.0029233947
-0.26428744
-0.0031778996
-0.26365972
-0.0034109326
-0.26299736
-0.0036216508
-0.26230414
-0.0038093237
-0.26158393
-0.0039733306
-0.26084071
-0.0041131785
-0.26007851
-0.0042285214
-0.25930145
-0.0043191783
-0.25851362
-0.0043851554
-0.25771912
-0.0044266627
-0.25692198
-0.0044441275
-0.25612615
-0.0044382027
-0.25533541
-0.0044097662
-0.25455339
-0.0043599227
-0.25378348
-0.0042899718
-0.25302884
-0.0042014056
-0.25229232
-0.0040958723
-0.25157648
-0.0039751473
-0.25088358
-0.0038410984
-0.25021551
-0.0036956487
-0.24957384
-0.0035407478
-0.24895982
-0.0033783222
-0.24837437
-0.0032102582
-0.24781808
-0.0030383647
-0.24729128
-0.0028643485
-0.246794
-0.0026897913
-0.24632606
-0.0025161358
-0.24588703
-0.0023446599
-0.24547633
-0.0021764752
-0.24509319
-0.0020125138
-0.24473674
-0.0018535235
-0.24440602
-0.0017000671
-0.24410001
-0.0015525285
-0.24381764
-0.0014111138
-0.24355788
-0.0012758733
-0.2433197
-0.0011467188
-0.24310212
-0.0010234472
-0.24290425
-0.00090576925
-0.24272527
-0.00079334824
-0.24256446
-0.00068583828
-0.24242128
-0.0005829353
-0.24229529
-0.00048442701
-0.24218631
-0.00039029195
-0.24209458
-0.00030077116
-0.24202081
-0.00021613518
-0.2419663
-0.00013721329
-6.6500682e-05
-0.26208107
0.0027396679
-0.26236386
0.0025463837
-0.26260439
0.0023235596
-0.26279721
0.0020568135
-0.26293886
0.0017521067
-0.26302574
0.0014116634
-0.26305482
0.0010399393
-0.26302356
0.00064191218
-0.26293014
0.00022333666
-0.26277347
-0.00020939024
-0.26255334
-0.00064936733
-0.26227046
-0.0010892893
-0.26192652
-0.0015215935
-0.26152427
-0.0019386196
-0.26106747
-0.0023327168
-0.26056092
-0.0026965122
-0.26001043
-0.0030229635
-0.25942273
-0.0033056869
-0.25880544
-0.0035389456
-0.25816688
-0.0037179805
-0.25751602
-0.0038388848
-0.25686222
-0.0038989095
-0.25621505
-0.0038962774
-0.25558414
-0.003830465
-0.25497895
-0.0037019497
-0.25440859
-0.0035124369
-0.25388166
-0.0032645516
-0.25340607
-0.0029619966
-0.25298894
-0.0026092184
-0.25263647
-0.0022115001
-0.25235387
-0.0017746387
-0.25214531
-0.0013049778
-0.25201387
-0.00080916353
-0.25196157
-0.00029404682
-0.25198935
0.00023340533
-0.25209711
0.0007662509
-0.2522838
0.0012976501
-0.25254739
0.0018209563
-0.25288503
0.0023298735
-0.253293
0.0028184293
-0.25376688
0.0032811432
-0.25430157
0.0037129153
-0.2548914
0.0041092092
-0.2555302
0.0044659554
-0.25621138
0.0047796359
-0.25692803
0.0050472808
-0.25767296
0.0052664828
-0.25843881
0.0054354181
-0.2592181
0.0055528316
-0.26000335
0.0056180612
-0.26078707
0.0056310258
-0.26156193
0.0055922205
-0.26232075
0.0055027017
-0.26305662
0.0053640796
-0.26376294
0.0051784683
-0.2644335
0.0049484749
-0.26506253
0.0046771444
-0.26564476
0.0043679118
-0.26617548
0.0040245412
-0.26665055
0.0036510684
-0.26706644
0.0032517125
-0.26742025
0.0028308183
-0.26770974
0.0023927709
-0.26793327
0.0019419228
-0.26808984
0.0014825229
-0.26817902
0.0010186526
-0.26820094
0.00055417391
-0.26815622
9.2686996e-05
-0.26804597
-0.00036249088
-0.26787169
-0.00080836219
-0.26763525
-0.0012422626
-0.26733883
-0.0016618177
-0.26698489
-0.0020649268
-0.26657609
-0.0024497282
-0.26611533
-0.0028145781
-0.26560566
-0.0031580149
-0.26505034
-0.0034787216
-0.26445273
-0.0037755022
-0.26381639
-0.0040472783
-0.26314497
-0.0042930683
-0.26244228
-0.0045120119
-0.26171224
-0.0047033689
-0.26095888
-0.004866542
-0.2601863
-0.0050011012
-0.25939867
-0.0051068078
-0.25860018
-0.0051836419
-0.25779502
-0.0052318248
-0.25698731
-0.0052518357
-0.25618109
-0.0052444232
-0.25538025
-0.005210605
-0.25458851
-0.0051516705
-0.25380934
-0.0050691431
-0.25304596
-0.0049647766
-0.25230132
-0.0048405123
-0.25157803
-0.0046984431
-0.25087835
-0.0045407726
-0.25020423
-0.0043697694
-0.24955725
-0.0041877334
-0.24893863
-0.003996936
-0.24834929
-0.0037995996
-0.2477898
-0.0035978536
-0.24726045
-0.0033937052
-0.24676123
-0.0031890122
-0.24629189
-0.0029854669
-0.24585199
-0.0027845656
-0.24544086
-0.0025876078
-0.24505769
-0.0023956804
-0.24470156
-0.0022096526
-0.24437145
-0.002030175
-0.24406629
-0.0018576871
-0.24378499
-0.0016924187
-0.24352645
-0.0015344141
-0.24328962
-0.0013835497
-0.2430735
-0.0012395615
-0.2428772
-0.0011020758
-0.2426999
-0.00097064879
-0.24254093
-0.00084480257
-0.24239979
-0.00072407209
-0.24227617
-0.00060804778
-0.24217002
-0.00049644273
-0.24208169
-0.00038910526
-0.24201194
-0.00028588254
-0.24196215
-0.00018700805
-9.3047333e-05
-0.26221329
0.003081751
-0.26251511
0.0028482046
-0.26277449
0.0025829412
-0.26298551
0.0022678314
-0.26314406
0.0019106536
-0.2632461
0.0015137039
-0.26328821
0.001082049
-0.26326754
0.00062124346
-0.26318197
0.00013776348
-0.26303017
-0.00036118415
-0.26281176
-0.00086777651
-0.26252732
-0.001373729
-0.2621785
-0.001870414
-0.26176804
-0.002349085
-0.26129978
-0.0028009758
-0.26077867
-0.0032176195
-0.26021073
-0.0035909007
-0.25960298
-0.0039134418
-0.25896334
-0.0041785835
-0.25830054
-0.0043807819
-0.25762394
-0.0045154819
-0.25694336
-0.0045794911
-0.25626887
-0.0045707671
-0.25561059
-0.004488752
-0.25497846
-0.0043340745
-0.25438208
-0.0041088128
-0.25383051
-0.0038161293
-0.25333205
-0.0034604506
-0.2528942
-0.0030470699
-0.25252345
-0.0025822496
-0.25222525
-0.0020728374
-0.25200393
-0.0015262968
-0.25186268
-0.00095041479
-0.25180354
-0.00035318496
-0.25182744
0.00025730021
-0.25193421
0.00087302442
-0.2521227
0.0014861373
-0.25239078
0.0020890349
-0.25273543
0.0026745282
-0.25315281
0.0032358099
-0.25363832
0.0037666495
-0.25418667
0.0042612652
-0.25479199
0.0047145328
-0.25544791
0.0051218719
-0.25614761
0.0054793385
-0.25688395
0.0057836179
-0.2576495
0.0060320368
-0.25843667
0.0062225851
-0.25923774
0.0063538961
-0.26004495
0.0064252736
-0.2608506
0.0064366771
-0.2616471
0.0063887173
-0.26242703
0.0062826404
-0.26318328
0.00612032
-0.26390901
0.0059042033
-0.26459784
0.0056372997
-0.26524381
0.0053231202
-0.26584152
0.0049656234
-0.26638613
0.0045691472
-0.2668734
0.0041383433
-0.26729977
0.0036780752
-0.2676623
0.0031933514
-0.26795875
0.0026892256
-0.26818754
0.002170711
-0.26834772
0.0016426969
-0.26843894
0.0011098728
-0.26846143
0.00057666697
-0.26841594
4.7196311e-05
-0.26830367
-0.00047476029
-0.26812623
-0.00098579892
-0.26788559
-0.0014829021
-0.26758402
-0.0019633897
-0.26722405
-0.0024249017
-0.26680842
-0.0028653539
-0.26634009
-0.0032829077
-0.26582218
-0.0036759259
-0.26525797
-0.0040429334
-0.26465088
-0.0043825864
-0.2640045
-0.0046936659
-0.26332251
-0.0049750503
-0.26260878
-0.0052257452
-0.26186727
-0.0054448829
-0.26110206
-0.0056317508
-0.26031734
-0.0057858229
-0.25951735
-0.0059067898
-0.2587064
-0.0059945946
-0.25788877
-0.0060494595
-0.25706869
-0.0060719094
-0.25625033
-0.0060627849
-0.25543769
-0.0060232442
-0.2546346
-0.005954766
-0.25384463
-0.0058591053
-0.25307112
-0.0057382894
-0.25231707
-0.0055945662
-0.25158515
-0.0054303623
-0.25087769
-0.0052482336
-0.25019664
-0.0050508117
-0.24954361
-0.0048407638
-0.24891983
-0.0046207221
-0.24832617
-0.0043932599
-0.24776318
-0.00416084
-0.24723111
-0.0039257809
-0.24672989
-0.0036902252
-0.24625924
-0.0034561218
-0.24581861
-0.00322519
-0.2454073
-0.0029989201
-0.24502443
-0.0027785544
-0.244669
-0.002565083
-0.24433993
-0.002359242
-0.24403609
-0.002161523
-0.24375634
-0.0019721738
-0.24349953
-0.0017912265
-0.24326456
-0.0016185162
-0.24305041
-0.0014537103
-0.24285614
-0.0012963421
-0.24268094
-0.0011458509
-0.24252413
-0.0010016155
-0.2423852
-0.00086299779
-0.24226387
-0.00072937688
-0.24216013
-0.00060019075
-0.24207431
-0.00047492087
-0.24200718
-0.00035301042
-0.24196009
-0.00023410528
-0.00011768272
-0.26236845
0.0034464716
-0.26269332
0.0031730834
-0.26297514
0.0028647594
-0.26320771
0.0025003993
-0.26338635
0.0020892891
-0.26350655
0.0016339062
-0.26356445
0.0011399476
-0.26355679
0.0006135895
-0.26348109
6.206505e-05
-0.26333572
-0.00050656194
-0.26312
-0.0010834949
-0.26283434
-0.0016593893
-0.26248027
-0.0022244793
-0.26206052
-0.0027688415
-0.26157899
-0.0032824983
-0.26104082
-0.0037557907
-0.26045229
-0.0041794331
-0.25982077
-0.0045449641
-0.25915463
-0.0048447235
-0.25846309
-0.0050723237
-0.25775605
-0.005222516
-0.25704391
-0.0052916355
-0.25633731
-0.0052773603
-0.25564697
-0.0051790998
-0.25498339
-0.0049976498
-0.25435671
-0.0047354926
-0.25377647
-0.0043963708
-0.25325143
-0.0039854878
-0.25278946
-0.0035090428
-0.25239737
-0.0029743409
-0.25208086
-0.0023893425
-0.25184447
-0.001762692
-0.25169151
-0.0011033753
-0.25162411
-0.00042058298
-0.25164322
0.00027641468
-0.25174867
0.00097846963
-0.25193919
0.0016766587
-0.25221252
0.002362368
-0.25256547
0.0030274765
-0.25299398
0.0036643154
-0.25349321
0.0042658854
-0.25405766
0.0048257099
-0.25468119
0.0053380668
-0.25535718
0.0057978565
-0.25607854
0.0062007025
-0.25683786
0.0065429394
-0.25762745
0.0068216239
-0.25843942
0.0070345556
-0.25926578
0.0071802545
-0.26009849
0.0072579894
-0.26092958
0.0072677624
-0.26175117
0.0072103039
-0.26255558
0.0070870565
-0.26333543
0.0069001683
-0.26408366
0.0066524339
-0.26479364
0.0063472836
-0.26545924
0.0059887173
-0.26607486
0.0055812444
-0.26663552
0.0051298077
-0.26713689
0.0046397088
-0.26757531
0.0041164923
-0.26794782
0.0035658678
-0.26825219
0.0029935952
-0.26848686
0.002405384
-0.26865096
0.0018067963
-0.26874425
0.0012031576
-0.26876707
0.0005994848
-0.2687203
4.2684328e-07
-0.26860529
-0.00058976562
-0.26842381
-0.0011672768
-0.26817797
-0.0017287444
-0.26787016
-0.0022711992
-0.26750302
-0.0027920398
-0.2670794
-0.00328898
-0.2666023
-0.0037600068
-0.2660749
-0.0042033266
-0.26550051
-0.004617319
-0.2648826
-0.0050004997
-0.26422475
-0.0053515098
-0.26353072
-0.0056690843
-0.26280438
-0.0059520866
-0.26204975
-0.0061995098
-0.26127099
-0.0064105116
-0.26047236
-0.006584454
-0.25965821
-0.0067209414
-0.25883294
-0.0068198646
-0.25800096
-0.0068814353
-0.25716666
-0.0069062151
-0.25633431
-0.0068951329
-0.25550807
-0.0068494877
-0.25469188
-0.0067709528
-0.25388946
-0.0066615248
-0.25310423
-0.0065235175
-0.2523393
-0.0063595023
-0.2515974
-0.0061722583
-0.25088092
-0.0059647136
-0.25019185
-0.0057398834
-0.24953179
-0.0055008216
-0.24890197
-0.0052505401
-0.24830325
-0.0049919797
-0.24773614
-0.0047279515
-0.24720082
-0.0044610974
-0.24669719
-0.0041938547
-0.24622488
-0.0039284358
-0.24578328
-0.0036667882
-0.24537161
-0.0034105953
-0.24498891
-0.0031612557
-0.24463411
-0.002919879
-0.24430607
-0.0026872839
-0.24400358
-0.0024640096
-0.24372544
-0.0022503165
-0.24347045
-0.0020462171
-0.24323747
-0.0018514962
-0.24302543
-0.0016657431
-0.24283339
-0.0014883865
-0.2426605
-0.0013187366
-0.2425061
-0.0011560169
-0.24236969
-0.00099940609
-0.24225101
-0.00084806643
-0.24215003
-0.00070117018
-0.24206707
-0.00055787707
-0.2420028
-0.00041728418
-0.24195833
-0.00027856897
-0.00014056462
-0.26255569
0.0038360212
-0.2629054
0.003522796
-0.26321145
0.003170805
-0.26346711
0.0027560581
-0.26366714
0.0022893181
-0.26380654
0.0017733062
-0.26388097
0.0012143765
-0.26388675
0.00061937004
-0.26382101
-3.6767681e-06
-0.26368178
-0.00064578563
-0.26346815
-0.0012971313
-0.2631803
-0.0019472379
-0.26281966
-0.0025851195
-0.26238891
-0.0031995882
-0.26189205
-0.0037793592
-0.26133436
-0.0043134799
-0.2607224
-0.0047913925
-0.26006391
-0.0052034539
-0.25936772
-0.0055409138
-0.25864358
-0.0057964644