/*--------------------------------*- C++ -*----------------------------------*\
| =========                 |                                                 |
| \\      /  F ield         | foam-extend: Open Source CFD                    |
|  \\    /   O peration     | Version:     4.1                                |
|   \\  /    A nd           | Web:         http://www.foam-extend.org         |
|    \\/     M anipulation  |                                                 |
\*---------------------------------------------------------------------------*/
FoamFile
{
    version     2.0;
    format      ascii;
    class       surfaceScalarField;
    location    "0.5";
    object      phi;
}
// * * * * * * * * * * * * * * * * * * * * * * * * * * * * * * * * * * * * * //

dimensions      [0 3 -1 0 0 0 0];

internalField   nonuniform List<scalar> 
32976
(
-0.2218741
0.0003613781
-0.22229442
0.00042031806
-0.222744
0.00044958387
-0.22321781
0.00047380889
-0.22371322
0.00049540708
-0.22422818
0.00051496404
-0.22476062
0.00053243838
-0.22530828
0.00054765743
-0.22586868
0.00056039972
-0.22643915
0.0005704684
-0.22701682
0.00057767099
-0.22759868
0.00058186456
-0.22818161
0.0005829237
-0.22876239
0.00058078241
-0.22933779
0.00057539883
-0.22990458
0.00056679568
-0.23045961
0.0005550234
-0.2309998
0.00054019858
-0.23152227
0.00052246648
-0.23202431
0.00050203659
-0.23250345
0.00047914532
-0.23295754
0.00045408806
-0.23338472
0.00042718282
-0.23378352
0.00039879813
-0.23415284
0.00036931853
-0.23449201
0.00033916781
-0.23480079
0.00030877705
-0.23507939
0.00027860299
-0.23532849
0.00024909894
-0.23554922
0.00022072892
-0.23574316
0.00019394286
-0.23591234
0.00016918446
-0.23605922
0.00014687435
-0.23618662
0.00012740348
-0.23629775
0.00011113276
-0.23639613
9.837658e-05
-0.23648554
8.9404724e-05
-0.23656996
8.4429176e-05
-0.23665358
8.3612402e-05
-0.23674063
8.7050221e-05
-0.23683539
9.4765764e-05
-0.23694211
0.00010671759
-0.23706491
0.00012279597
-0.23720773
0.00014281945
-0.23737427
0.00016653951
-0.23756791
0.00019364387
-0.23779166
0.00022375282
-0.23804809
0.00025642731
-0.23833927
0.00029117838
-0.23866674
0.00032747143
-0.23903147
0.00036473347
-0.23943383
0.00040236107
-0.23987356
0.00043972931
-0.24034977
0.00047620238
-0.24086091
0.0005111418
-0.24140483
0.00054391843
-0.24197875
0.00057392197
-0.24257932
0.00060057137
-0.24320264
0.00062332453
-0.24384433
0.00064168914
-0.24449956
0.00065522899
-0.24516314
0.00066357454
-0.24582957
0.00066642885
-0.24649314
0.00066357373
-0.24714801
0.00065487435
-0.2477883
0.0006402822
-0.24840813
0.0006198381
-0.2490018
0.00059366956
-0.2495638
0.00056199171
-0.2500889
0.00052510301
-0.25057228
0.0004833804
-0.25100955
0.00043727273
-0.25139685
0.00038729429
-0.25173086
0.00033401454
-0.2520089
0.00027803932
-0.2522289
0.00022000342
-0.25238949
0.00016058347
-0.25248996
0.00010047104
-0.25253032
4.0362237e-05
-0.2525112
-1.9123649e-05
-0.25243338
-7.7818574e-05
-0.25229769
-0.00013569226
-0.25210583
-0.00019185349
-0.25186072
-0.00024510761
-0.25156597
-0.00029475225
-0.25122567
-0.00034030295
-0.25084429
-0.000381381
-0.25042659
-0.00041769509
-0.24997756
-0.00044903445
-0.24950229
-0.00047526568
-0.24900596
-0.00049633045
-0.24849372
-0.00051223962
-0.24797065
-0.00052307001
-0.2474417
-0.00052895718
-0.24691161
-0.00053008868
-0.24638491
-0.00052669656
-0.24586586
-0.00051904935
-0.24535842
-0.00050744525
-0.24486621
-0.0004922024
-0.24439256
-0.00047365381
-0.24394042
-0.00045213954
-0.24351242
-0.00042800093
-0.24311084
-0.00040157524
-0.24273765
-0.00037319197
-0.24239448
-0.00034316758
-0.24208268
-0.00031180451
-0.24180329
-0.00027938818
-0.24155711
-0.00024618596
-0.24134466
-0.00021244658
-0.24116626
-0.00017840057
-0.241022
-0.00014426046
-0.24091178
-0.00011022285
-0.2408353
-7.647018e-05
-0.24079213
-4.3175098e-05
-0.24078162
-1.0511396e-05
-0.24080292
2.1306524e-05
-0.24085496
5.2033942e-05
-0.2409365
8.1539158e-05
-0.24104607
0.0001095682
-0.24118126
0.00013519761
-0.24133834
0.00015707837
-0.2415116
0.0001732572
-0.24171111
0.00019950856
0.00022434188
-0.25368813
0.00054181917
-0.25386109
0.00059327395
-0.25405277
0.00064126396
-0.25426418
0.0006852265
-0.25449454
0.00072575856
-0.25474247
0.00076290155
-0.25500639
0.0007963555
-0.25528445
0.0008257215
-0.2555746
0.00085054819
-0.25587456
0.00087042966
-0.25618187
0.00088497494
-0.25649388
0.00089387872
-0.25680783
0.00089687462
-0.25712085
0.0008938014
-0.25743
0.00088455061
-0.25773234
0.00086913035
-0.25802492
0.0008476098
-0.25830491
0.00082017936
-0.25856953
0.00078709375
-0.25881622
0.00074872669
-0.25904259
0.00070551419
-0.25924651
0.00065800232
-0.25942612
0.00060679211
-0.2595799
0.00055257923
-0.25970668
0.00049610204
-0.25980568
0.00043817223
-0.25987653
0.00037962743
-0.25991928
0.00032135229
-0.25993442
0.00026423609
-0.25992288
0.00020918576
-0.25988603
0.00015709184
-0.25982567
0.0001088299
-0.25974403
6.5234813e-05
-0.25964372
2.708978e-05
-0.2595277
-4.8851539e-06
-0.25939927
-3.0049664e-05
-0.25926201
-4.7857547e-05
-0.25911971
-5.787221e-05
-0.25897631
-5.9788609e-05
-0.25883586
-5.3400509e-05
-0.25870248
-3.8612222e-05
-0.25858029
-1.5478496e-05
-0.25847329
1.5803917e-05
-0.25838538
5.4901027e-05
-0.25832016
0.00010132314
-0.25828095
0.00015443453
-0.25827069
0.00021348879
-0.25829189
0.0002776345
-0.25834663
0.00034591198
-0.25843642
0.00041726543
-0.25856225
0.00049055936
-0.25872448
0.00056459526
-0.25892288
0.00063812988
-0.25915657
0.0007098957
-0.25942405
0.00077861858
-0.25972317
0.00084304093
-0.26005119
0.00090194122
-0.26040478
0.00095415493
-0.26078005
0.00099859416
-0.26117263
0.0010342689
-0.2615777
0.0010603011
-0.26199007
0.0010759446
-0.26240424
0.0010805979
-0.26281448
0.0010738165
-0.26321493
0.0010553222
-0.26359965
0.0010250094
-0.26396277
0.00098295094
-0.26429849
0.00092939378
-0.26460126
0.00086476041
-0.2648658
0.00078964084
-0.2650872
0.00070478315
-0.26526101
0.0006110807
-0.26538327
0.00050955927
-0.26545062
0.00040135908
-0.26546026
0.00028768421
-0.26541008
0.00016981983
-0.26529864
4.9145022e-05
-0.26512521
-7.2956205e-05
-0.26488973
-0.00019512478
-0.2645928
-0.00031604765
-0.26423626
-0.00043436013
-0.26382327
-0.00054868406
-0.26335723
-0.0006578928
-0.26284133
-0.00076100456
-0.26227904
-0.00085704721
-0.26167417
-0.00094517371
-0.26103087
-0.0010246835
-0.26035354
-0.0010950248
-0.25964678
-0.0011557943
-0.25891531
-0.0012067348
-0.2581639
-0.0012477328
-0.25739734
-0.0012788062
-0.25662031
-0.0013000993
-0.2558374
-0.0013118693
-0.25505301
-0.0013144728
-0.25427136
-0.0013083519
-0.25349639
-0.0012940185
-0.25273179
-0.0012720418
-0.25198096
-0.0012430288
-0.251247
-0.0012076152
-0.25053269
-0.00116645
-0.24984051
-0.0011201848
-0.24917262
-0.0010694631
-0.2485309
-0.0010149138
-0.24791693
-0.00095714046
-0.24733201
-0.00089671979
-0.2467772
-0.00083419601
-0.24625331
-0.00077007877
-0.24576092
-0.00070484181
-0.24530039
-0.00063892464
-0.24487192
-0.00057273104
-0.24447551
-0.00050663458
-0.244111
-0.00044098162
-0.24377807
-0.00037610113
-0.24347627
-0.00031231499
-0.24320502
-0.00024993841
-0.24296372
-0.00018926643
-0.24275152
-0.00013066417
-0.24256714
-7.4813505e-05
-0.24240886
-2.30761e-05
-0.24227518
2.3393216e-05
-0.24216205
6.0123613e-05
-0.24206345
0.00010091182
9.6343016e-05
-0.25754497
0.00071976143
-0.25772949
0.00077778912
-0.25792376
0.000835534
-0.25812841
0.00088988101
-0.25834271
0.00094005445
-0.25856532
0.00098551747
-0.25879465
0.0010256822
-0.2590289
0.0010599704
-0.25926613
0.0010877838
-0.2595043
0.0011086012
-0.25974126
0.0011219307
-0.25997478
0.0011273973
-0.26020259
0.0011246831
-0.2604224
0.0011136115
-0.26063193
0.0010940821
-0.26082895
0.0010661508
-0.2610113
0.0010299616
-0.26117694
0.00098582088
-0.26132398
0.00093412839
-0.26145069
0.00087544293
-0.26155559
0.00081041406
-0.26163743
0.00073983762
-0.26169523
0.00066459018
-0.26172832
0.00058567244
-0.26173637
0.00050414851
-0.26171937
0.0004211761
-0.2616777
0.00033795242
-0.26161207
0.00025573055
-0.26152361
0.00017577167
-0.26141377
9.9350751e-05
-0.2612844
2.7720881e-05
-0.26113768
-3.7894876e-05
-0.26097611
-9.6331797e-05
-0.26080252
-0.00014650267
-0.26061998
-0.00018742086
-0.26043181
-0.00021821984
-0.2602415
-0.00023816908
-0.26005269
-0.00024668524
-0.25986913
-0.00024335274
-0.25969459
-0.00022793503
-0.25953281
-0.0002003957
-0.25938741
-0.00016088017
-0.25926186
-0.00010973719
-0.25915945
-4.7512958e-05
-0.25908318
2.5055497e-05
-0.25903579
0.00010703818
-0.25901961
0.00019731474
-0.25903659
0.00029460893
-0.25908817
0.00039749725
-0.25917533
0.00050442654
-0.25929851
0.00061373337
-0.25945758
0.00072366817
-0.25965187
0.00083242077
-0.25988013
0.00093814972
-0.26014051
0.0010390078
-0.26043065
0.0011331749
-0.26074759
0.0012188857
-0.2610879
0.0012944602
-0.26144764
0.0013583312
-0.26182244
0.0014090754
-0.26220757
0.0014454331
-0.26259797
0.0014663374
-0.2629883
0.0014709324
-0.26337308
0.0014585911
-0.26374668
0.001428929
-0.26410349
0.0013818136
-0.26443791
0.0013173719
-0.2647445
0.0012359859
-0.26501803
0.001138293
-0.26525357
0.0010251759
-0.26544653
0.00089774784
-0.26559279
0.00075733419
-0.26568868
0.00060545612
-0.26573112
0.00044379711
-0.26571757
0.00027413176
-0.26564612
9.8373191e-05
-0.26551554
-8.1434393e-05
-0.26532524
-0.00026325399
-0.26507534
-0.00044503343
-0.2647666
-0.00062478283
-0.26440042
-0.00080054265
-0.26397868
-0.00097042544
-0.26350385
-0.0011327243
-0.26297896
-0.0012858924
-0.26240749
-0.0014285121
-0.26179332
-0.0015593474
-0.26114063
-0.0016773692
-0.26045389
-0.0017817636
-0.25973775
-0.0018719355
-0.25899698
-0.0019475051
-0.25823641
-0.0020083057
-0.25746085
-0.0020543655
-0.25667505
-0.0020859007
-0.25588362
-0.0021032944
-0.25509102
-0.0021070778
-0.25430146
-0.0020979085
-0.25351893
-0.0020765473
-0.25274714
-0.0020438402
-0.25198948
-0.002000688
-0.25124906
-0.0019480342
-0.25052867
-0.0018868412
-0.24983078
-0.0018180748
-0.24915755
-0.0017426879
-0.24851085
-0.001661612
-0.24789225
-0.0015757394
-0.24730305
-0.0014859231
-0.24674428
-0.0013929673
-0.24621673
-0.0012976245
-0.24572098
-0.0012005941
-0.24525738
-0.0011025244
-0.2448261
-0.0010040105
-0.24442713
-0.00090560238
-0.24406031
-0.00080780871
-0.2437253
-0.00071110924
-0.24342165
-0.00061596578
-0.24314876
-0.00052282715
-0.24290589
-0.00043213476
-0.24269213
-0.00034442321
-0.24250637
-0.00026057306
-0.24234756
-0.00018189149
-0.24221523
-0.00010893785
-0.24210422
-5.0884968e-05
-0.24200935
6.0440207e-06
2.2592821e-05
-0.25794795
0.00090061529
-0.25813909
0.00096892668
-0.25833952
0.0010359678
-0.25854877
0.0010991256
-0.25876578
0.0011570725
-0.25898917
0.0012089053
-0.25921729
0.0012537997
-0.25944834
0.0012910234
-0.25968042
0.0013198581
-0.25991151
0.0013396966
-0.26013956
0.0013499769
-0.26036245
0.0013502835
-0.26057804
0.0013402743
-0.26078421
0.0013197809
-0.26097885
0.0012887302
-0.26115994
0.0012472402
-0.26132552
0.0011955389
-0.26147375
0.0011340524
-0.26160295
0.0010633239
-0.26171159
0.0009840905
-0.26179839
0.00089720422
-0.26186224
0.00080369516
-0.26190235
0.00070469709
-0.26191817
0.00060149454
-0.26190948
0.00049545512
-0.26187636
0.00038805922
-0.26181925
0.00028084131
-0.26173892
0.00017540122
-0.2616365
7.3350673e-05
-0.26151346
-2.3686053e-05
-0.26137164
-0.00011410228
-0.2612132
-0.00019633709
-0.26104063
-0.00026890307
-0.26085671
-0.00033041423
-0.26066451
-0.00037962416
-0.2604673
-0.00041542701
-0.26026857
-0.00043690819
-0.26007191
-0.00044333646
-0.25988106
-0.00043420959
-0.25969974
-0.00040924926
-0.2595317
-0.00036843826
-0.25938058
-0.00031199882
-0.2592499
-0.00024042206
-0.25914296
-0.00015445438
-0.25906281
-5.5093353e-05
-0.25901218
5.6415829e-05
-0.25899345
0.00017857577
-0.25900852
0.00030968376
-0.25905888
0.00044785367
-0.25914548
0.00059103168
-0.25926877
0.00073701894
-0.25942861
0.0008835087
-0.2596243
0.0010281172
-0.25985458
0.001168423
-0.26011757
0.0013019999
-0.26041085
0.0014264598
-0.26073146
0.0015394891
-0.26107589
0.0016388876
-0.26144016
0.0017226053
-0.26181987
0.0017887815
-0.2622102
0.0018357715
-0.26260605
0.0018621844
-0.26300203
0.0018669063
-0.26339256
0.0018491244
-0.26377197
0.0018083448
-0.26413457
0.0017444048
-0.26447468
0.0016574833
-0.26478679
0.0015480951
-0.26506559
0.0014170923
-0.26530606
0.0012656498
-0.26550356
0.0010952482
-0.26565387
0.00090764759
-0.26575329
0.00070487301
-0.26579864
0.00048914998
-0.26578736
0.00026284752
-0.26571751
2.8522401e-05
-0.26558782
-0.00021112512
-0.26539767
-0.0004534008
-0.26514712
-0.00069558609
-0.26483689
-0.00093500834
-0.26446837
-0.0011690629
-0.26404353
-0.0013952695
-0.26356492
-0.0016113364
-0.26303563
-0.0018151745
-0.26245924
-0.0020049051
-0.26183969
-0.0021788951
-0.26118128
-0.0023357827
-0.26048855
-0.0024744909
-0.25976626
-0.0025942327
-0.25901925
-0.0026945086
-0.25825245
-0.0027751032
-0.25747076
-0.0028360608
-0.25667898
-0.0028776768
-0.25588181
-0.0029004691
-0.25508373
-0.0029051524
-0.25428903
-0.0028926096
-0.25350172
-0.0028638601
-0.25272552
-0.0028200364
-0.25196387
-0.0027623423
-0.25121987
-0.0026920371
-0.2504963
-0.0026104046
-0.24979565
-0.0025187312
-0.24912005
-0.002418285
-0.24847136
-0.0023103044
-0.24785112
-0.0021959743
-0.24726062
-0.0020764263
-0.24670086
-0.001952726
-0.24617261
-0.0018258697
-0.24567643
-0.0016967819
-0.24521263
-0.0015663189
-0.24478138
-0.0014352648
-0.24438264
-0.0013043433
-0.24401622
-0.0011742221
-0.24368181
-0.0010455265
-0.24337892
-0.00091885017
-0.24310698
-0.00079476495
-0.24286528
-0.00067384211
-0.24265293
-0.00055676699
-0.24246899
-0.0004445137
-0.2423127
-0.00033818651
-0.24218344
-0.00023819215
-0.24207548
-0.00015884539
-0.24198892
-8.0515604e-05
-3.0880762e-05
-0.2579726
0.0010806617
-0.258165
0.0011613279
-0.25836782
0.001238779
-0.25857986
0.0013111693
-0.25879986
0.0013770689
-0.25902632
0.0014353666
-0.25925757
0.0014850485
-0.25949178
0.0015252396
-0.25972703
0.0015551027
-0.25996128
0.0015739456
-0.26019243
0.0015811357
-0.26041837
0.0015762176
-0.26063692
0.0015588253
-0.26084594
0.0015287983
-0.2610433
0.0014860902
-0.26122694
0.0014308796
-0.26139487
0.0013634771
-0.26154525
0.0012844262
-0.26167634
0.001194411
-0.26178659
0.0010943444
-0.26187466
0.00098527832
-0.26193944
0.00086847535
-0.26198007
0.00074532528
-0.26199597
0.0006173963
-0.26198688
0.0004863607
-0.26195284
0.0003540241
-0.26189427
0.000222263
-0.26181189
9.302859e-05
-0.26170683
-3.1712421e-05
-0.26158054
-0.00014997192
-0.26143487
-0.00025977575
-0.26127199
-0.00035921886
-0.26109441
-0.00044647831
-0.26090497
-0.00051986172
-0.26070675
-0.00057784446
-0.2605031
-0.00061907298
-0.26029758
-0.00064243237
-0.26009388
-0.00064703272
-0.25989582
-0.00063227379
-0.25970724
-0.00059782619
-0.25953199
-0.00054368773
-0.25937384
-0.00047015281
-0.2592364
-0.00037785323
-0.25912312
-0.00026773496
-0.25903715
-0.00014106425
-0.25898133
5.9572513e-07
-0.25895812
0.00015536662
-0.25896955
0.00032110871
-0.25901715
0.00049545943
-0.25910197
0.00067584752
-0.25922448
0.0008595293
-0.2593846
0.0010436244
-0.25958164
0.0012251599
-0.25981433
0.0014011172
-0.26008081
0.0015684743
-0.26037861
0.0017242582
-0.26070471
0.0018655899
-0.26105555
0.0019897329
-0.26142709
0.0020941384
-0.2618148
0.0021764937
-0.26221378
0.0022347557
-0.26261879
0.0022671971
-0.26302432
0.0022724361
-0.26342467
0.0022494656
-0.263814
0.0021976762
-0.26418646
0.0021168714
-0.26453626
0.0020072812
-0.26485772
0.0018695549
-0.26514539
0.0017047634
-0.26539412
0.0015143817
-0.26559914
0.0013002674
-0.26575612
0.0010646276
-0.26586126
0.0008100062
-0.2659113
0.00053919303
-0.26590362
0.00025517248
-0.26583626
-3.8844245e-05
-0.26570789
-0.00033949444
-0.26551791
-0.00064338404
-0.26526639
-0.00094710342
-0.2649541
-0.0012472952
-0.26458247
-0.0015406981
-0.26415353
-0.0018242089
-0.26366992
-0.0020949411
-0.26313484
-0.0023502594
-0.26255193
-0.0025878077
-0.26192529
-0.0028055443
-0.2612593
-0.0030017683
-0.26055865
-0.0031751372
-0.25982821
-0.0033246727
-0.25907296
-0.0034497588
-0.25829793
-0.0035501374
-0.25750811
-0.0036258772
-0.25670843
-0.0036773628
-0.25590364
-0.0037052585
-0.25509831
-0.0037104751
-0.25429679
-0.0036941337
-0.25350312
-0.0036575259
-0.25272108
-0.0036020831
-0.2519541
-0.0035293245
-0.2512053
-0.0034408368
-0.25047747
-0.003338235
-0.24977306
-0.0032231351
-0.24909422
-0.0030971278
-0.24844276
-0.0029617644
-0.24782021
-0.002818527
-0.2472278
-0.0026688291
-0.24666653
-0.0025139999
-0.24613712
-0.0023552798
-0.24564008
-0.002193818
-0.24517573
-0.002030677
-0.24474416
-0.0018668267
-0.24434535
-0.0017031598
-0.24397907
-0.0015404964
-0.243645
-0.0013795973
-0.24334268
-0.0012211757
-0.24307153
-0.0010659108
-0.24283089
-0.00091447934
-0.24262
-0.00076766126
-0.2424381
-0.00062641709
-0.24228462
-0.0004916621
-0.24215886
-0.00036395268
-0.24205569
-0.00026201938
-0.2419784
-0.00015779887
-7.3833567e-05
-0.25797028
0.0012619823
-0.25816418
0.0013552369
-0.25836925
0.0014438483
-0.25858419
0.0015261026
-0.25880758
0.0016004654
-0.25903789
0.001665669
-0.25927337
0.0017205358
-0.25951219
0.001764054
-0.25975235
0.0017952655
-0.25999179
0.0018133869
-0.26022837
0.0018177092
-0.26045988
0.0018077312
-0.26068411
0.0017830569
-0.26089884
0.0017435292
-0.26110187
0.0016891238
-0.26129107
0.0016200769
-0.26146437
0.0015367786
-0.26161984
0.0014398884
-0.26175566
0.0013302312
-0.26187021
0.0012088962
-0.26196207
0.0010771378
-0.26203005
0.00093645452
-0.26207322
0.00078849716
-0.26209095
0.00063512419
-0.26208291
0.00047832049
-0.26204911
0.00032022617
-0.26198992
0.00016307196
-0.26190605
9.166146e-06
-0.26179862
-0.00013915176
-0.26166908
-0.00027950775
-0.2615193
-0.000409556
-0.26135149
-0.00052703172
-0.2611682
-0.00062976688
-0.26097232
-0.00071574087
-0.26076703
-0.00078313747
-0.26055576
-0.00083034168
-0.26034216
-0.00085602591
-0.26013007
-0.00085913
-0.2599234
-0.00083894478
-0.25972614
-0.00079508256
-0.25954228
-0.00072755103
-0.25937572
-0.00063671298
-0.25923023
-0.00052333949
-0.25910939
-0.00038857788
-0.25901649
-0.00023396452
-0.2589545
-6.1391758e-05
-0.258926
0.00012687303
-0.25893314
0.00032824463
-0.25897755
0.0005398691
-0.25906035
0.00075864385
-0.25918208
0.00098126122
-0.2593427
0.0012042495
-0.25954157
0.001424027
-0.25977741
0.0016369583
-0.26004834
0.0018394044
-0.26035187
0.002027786
-0.26068492
0.0021986378
-0.26104385
0.0023486661
-0.26142452
0.0024748033
-0.26182229
0.0025742662
-0.26223213
0.0026445957
-0.26264864
0.0026837129
-0.26306616
0.0026899547
-0.26347881
0.0026621092
-0.26388057
0.002599444
-0.26426543
0.0025017243
-0.26462738
0.0023692298
-0.26496057
0.0022027467
-0.26525938
0.0020035707
-0.26551848
0.001773486
-0.26573295
0.0015147395
-0.26589833
0.0012300013
-0.26601067
0.00092234934
-0.26606665
0.00059517291
-0.26606356
0.00025208567
-0.26599937
-0.00010303491
-0.26587273
-0.00046613281
-0.26568302
-0.00083309408
-0.26543034
-0.0011997878
-0.26511549
-0.0015621468
-0.26473996
-0.0019162288
-0.26430588
-0.0022582822
-0.26381601
-0.00258481
-0.26327365
-0.0028926194
-0.2626826
-0.0031788627
-0.26204707
-0.0034410776
-0.26137162
-0.0036772171
-0.26066108
-0.0038856693
-0.25992049
-0.0040652657
-0.25915497
-0.0042152778
-0.2583697
-0.0043354127
-0.2575698
-0.0044257737
-0.25676032
-0.0044868478
-0.25594611
-0.00451946
-0.25513186
-0.0045247336
-0.25432195
-0.0045040446
-0.2535205
-0.0044589732
-0.25273131
-0.0043912666
-0.25195786
-0.0043027744
-0.25120328
-0.0041954254
-0.25047033
-0.0040711785
-0.24976148
-0.0039319903
-0.24907882
-0.0037797838
-0.24842415
-0.0036164308
-0.24779897
-0.0034437167
-0.24720445
-0.0032633411
-0.24664155
-0.0030768993
-0.24611096
-0.0028858778
-0.24561312
-0.0026916502
-0.24514832
-0.002495484
-0.24471661
-0.002298533
-0.24431792
-0.0021018553
-0.24395199
-0.001906418
-0.24361848
-0.0017131105
-0.2433169
-0.0015227562
-0.24304668
-0.0013361311
-0.24280716
-0.001153996
-0.24259765
-0.00097717865
-0.24241749
-0.00080657722
-0.24226617
-0.00064298252
-0.24214301
-0.00048711031
-0.24204373
-0.00036129994
-0.24197284
-0.00022868373
-0.0001112258
-0.25797096
0.0014441237
-0.25816675
0.0015510199
-0.25837459
0.0016516915
-0.25859305
0.0017445598
-0.25882062
0.0018280374
-0.25905568
0.001900731
-0.25929646
0.0019613135
-0.25954104
0.0020086395
-0.2597874
0.0020416257
-0.26003341
0.0020593915
-0.26027684
0.0020611439
-0.26051544
0.0020463285
-0.2607469
0.0020145126
-0.2609689
0.0019655361
-0.26117917
0.0018993918
-0.26137546
0.0018163693
-0.26155562
0.0017169355
-0.2617176
0.0016018647
-0.26185949
0.0014721221
-0.26197957
0.0013289756
-0.26207631
0.0011738847
-0.26214845
0.001008589
-0.26219496
0.00083500692
-0.26221513
0.0006552956
-0.26220857
0.00047176243
-0.26217524
0.00028689401
-0.26211545
0.00010328773
-0.26202991
-7.6377413e-05
-0.2619197
-0.00024936746
-0.26178629
-0.00041290892
-0.26163157
-0.00056427961
-0.26145779
-0.00070081103
-0.26126757
-0.00081998722
-0.26106387
-0.00091943965
-0.26084997
-0.00099704014
-0.26062941
-0.0010508976
-0.26040598
-0.0010794556
-0.26018364
-0.0010814699
-0.25996648
-0.0010561105
-0.25975864
-0.0010029212
-0.25956428
-0.00092191356
-0.25938748
-0.00081351458
-0.25923218
-0.00067863365
-0.25910214
-0.00051862236
-0.25900081
-0.00033528889
-0.25893134
-0.00013086918
-0.25889643
9.1972005e-05
-0.25889838
0.000330191
-0.25893894
0.00058042339
-0.25901931
0.00083901661
-0.25914013
0.00110208
-0.2593014
0.0013655269
-0.25950252
0.001625143
-0.25974221
0.0018766513
-0.26001858
0.0021157708
-0.26032908
0.0023382901
-0.26067058
0.0025401323
-0.26103933
0.0027174215
-0.26143108
0.0028665475
-0.26184105
0.002984234
-0.26226404
0.0030675854
-0.26269448
0.0031141528
-0.2631265
0.003121976
-0.26355401
0.0030896259
-0.26397081
0.0030162377
-0.26437062
0.002901533
-0.26474723
0.0027458401
-0.26509456
0.0025500849
-0.26540679
0.0023157949
-0.26567838
0.0020450746
-0.26590421
0.0017405757
-0.26607966
0.0014054506
-0.26620065
0.0010433319
-0.26626372
0.00065824434
-0.26626608
0.00025445105
-0.26620563
-0.00016348337
-0.26608099
-0.00059077664
-0.26589152
-0.0010225636
-0.26563734
-0.0014539635
-0.26531932
-0.0018801728
-0.26493901
-0.0022965381
-0.26449866
-0.0026986317
-0.26400115
-0.003082324
-0.26344992
-0.0034438464
-0.26284894
-0.0037798429
-0.2622026
-0.0040874172
-0.26151565
-0.0043641674
-0.26079311
-0.0046082085
-0.26004019
-0.0048181826
-0.25926222
-0.0049932541
-0.25846452
-0.0051331045
-0.25765241
-0.005237885
-0.25683106
-0.0053082006
-0.25600546
-0.0053450556
-0.25518039
-0.005349805
-0.25436034
-0.0053241003
-0.25354948
-0.0052698311
-0.25275167
-0.0051890798
-0.2519704
-0.0050840458
-0.2512088
-0.0049570165
-0.25046967
-0.0048103105
-0.24975542
-0.0046462384
-0.24906814
-0.004467066
-0.24840958
-0.0042749949
-0.24778117
-0.0040721202
-0.24718408
-0.0038604324
-0.24661919
-0.0036417958
-0.24608712
-0.0034179435
-0.2455883
-0.0031904733
-0.24512293
-0.0029608554
-0.24469104
-0.0027304239
-0.24429249
-0.0025003976
-0.24392703
-0.0022718841
-0.24359424
-0.0020458937
-0.24329365
-0.0018233512
-0.24302466
-0.0016051187
-0.24278663
-0.0013920229
-0.2425789
-0.0011849107
-0.24240086
-0.00098461903
-0.24225197
-0.0007918753
-0.24213162
-0.00060746317
-0.242036
-0.0004569154
-0.2419697
-0.00029498573
-0.00014532348
-0.25798007
0.001628447
-0.25817851
0.0017494559
-0.25838974
0.0018629163
-0.25861232
0.0019671443
-0.25884472
0.0020604351
-0.25908525
0.0021412635
-0.25933209
0.0022081531
-0.25958327
0.0022598226
-0.25983671
0.0022950579
-0.26009019
0.0023128736
-0.26034143
0.0023123839
-0.26058807
0.0022929733
-0.26082772
0.0022541642
-0.26105797
0.0021957866
-0.26127643
0.0021178444
-0.26148073
0.0020206763
-0.26166862
0.0019048226
-0.26183793
0.0017711707
-0.26198663
0.0016208264
-0.26211289
0.0014552376
-0.26221508
0.0012760733
-0.26229181
0.0010853196
-0.26234198
0.00088517004
-0.26236477
0.00067809021
-0.26235973
0.0004667211
-0.26232675
0.00025391082
-0.26226609
4.2633487e-05
-0.26217843
-0.00016403699
-0.26206485
-0.00036295368
-0.26192682
-0.00055093233
-0.26176626
-0.00072484348
-0.26158546
-0.00088161383
-0.2613871
-0.0010183411
-0.26117425
-0.001132292
-0.26095028
-0.0012210065
-0.26071888
-0.0012822962
-0.26048398
-0.001314359
-0.2602497
-0.0013157496
-0.26002031
-0.0012855031
-0.25980015
-0.001223084
-0.25959356
-0.0011284992
-0.25940484
-0.0010022349
-0.25923814
-0.00084533735
-0.25909739
-0.00065936479
-0.25898628
-0.00044640262
-0.25890811
-0.00020904122
-0.25886578
4.9646468e-05
-0.25886173
0.00032613754
-0.25889785
0.00061654095
-0.25897546
0.00091663041
-0.25909529
0.0012219073
-0.25925741
0.0015276459
-0.25946124
0.0018289714
-0.25970552
0.0021209359
-0.25998834
0.0023985864
-0.2603071
0.00265705
-0.26065857
0.0028916079
-0.26103892
0.0030977733
-0.26144374
0.0032713653
-0.26186809
0.0034085877
-0.26230659
0.0035060843
-0.26275346
0.0035610141
-0.26320258
0.0035711014
-0.26364764
0.0035346849
-0.26408216
0.0034507561
-0.26449961
0.0033189866
-0.26489352
0.0031397513
-0.26525756
0.002914119
-0.26558562
0.0026438569
-0.26587195
0.0023314033
-0.2661112
0.0019798322
-0.26629855
0.0015928009
-0.26642974
0.0011745214
-0.26650119
0.00072969302
-0.26651
0.00026325382
-0.26645396
-0.00021951747
-0.26633167
-0.00071307295
-0.26614247
-0.0012117623
-0.26588651
-0.0017099173
-0.26556472
-0.0022019644
-0.26517875
-0.0026825058
-0.26473098
-0.003146406
-0.26422443
-0.0035888761
-0.26366272
-0.0040055485
-0.26305003
-0.0043925392
-0.26239094
-0.0047465028
-0.26169044
-0.0050646722
-0.26095376
-0.0053448851
-0.26018635
-0.0055855952
-0.25939374
-0.0057858666
-0.25858147
-0.0059453665
-0.25775505
-0.0060643097
-0.25691981
-0.0061434388
-0.25608091
-0.0061839592
-0.25524323
-0.0061874817
-0.25441137
-0.0061559578
-0.25358959
-0.0060916109
-0.25278179
-0.0059968829
-0.25199149
-0.0058743451
-0.25122184
-0.0057266646
-0.25047562
-0.0055565374
-0.24975521
-0.0053666441
-0.24906267
-0.0051596067
-0.2483997
-0.0049379668
-0.24776768
-0.0047041372
-0.24716771
-0.0044604048
-0.2466006
-0.0042089063
-0.24606692
-0.0039516226
-0.24556702
-0.003690375
-0.24510104
-0.0034268344
-0.24466895
-0.0031625111
-0.24427057
-0.0028987791
-0.24390558
-0.0026368793
-0.24357353
-0.0023779345
-0.24327393
-0.0021229611
-0.24300615
-0.0018728943
-0.24276957
-0.0016286072
-0.24256353
-0.0013909474
-0.24238745
-0.0011607001
-0.24224077
-0.00093855082
-0.24212298
-0.00072525586
-0.24203045
-0.00054944089
-0.24196744
-0.00035800376
-0.00017730955
-0.25799481
0.0018150033
-0.25819642
0.0019510663
-0.25841168
0.0020781816
-0.25863913
0.0021945915
-0.25887717
0.0022984725
-0.25912406
0.0023881615
-0.25937794
0.0024620278
-0.25963676
0.002518648
-0.25989838
0.0025566693
-0.26016049
0.0025749924
-0.26042074
0.0025726297
-0.26067666
0.0025488948
-0.26092575
0.0025032567
-0.2611655
0.002435528
-0.26139337
0.0023457167
-0.2616069
0.0022342052
-0.26180368
0.0021016034
-0.26198142
0.0019489101
-0.26213796
0.0017773712
-0.26227134
0.0015886169
-0.2623798
0.0013845287
-0.26246182
0.0011673459
-0.2625162
0.00093954552
-0.26254202
0.00070391196
-0.26253873
0.00046343237
-0.26250615
0.00022133343
-0.2624445
-1.9021377e-05
-0.2623544
-0.00025413973
-0.26223691
-0.00048043885
-0.26209353
-0.00069430961
-0.2619262
-0.00089217662
-0.26173726
-0.001070557
-0.26152947
-0.0012261245
-0.26130601
-0.0013557585
-0.26107037
-0.0014566459
-0.26082639
-0.0015262745
-0.26057817
-0.0015625764
-0.26033004
-0.0015638857
-0.26008645
-0.0015290867
-0.25985199
-0.0014575509
-0.25963121
-0.0013492717
-0.25942866
-0.0012047882
-0.25924872
-0.0010252825
-0.25909556
-0.00081252192
-0.25897308
-0.000568877
-0.25888482
-0.00029730082
-0.25883389
-1.2904696e-06
-0.25882288
0.00031512501
-0.25885384
0.00064751043
-0.25892826
0.00099104175
-0.25904693
0.0013405825
-0.25921002
0.0016907371
-0.25941699
0.0020359388
-0.25966659
0.0023705357
-0.25995687
0.0026888681
-0.26028519
0.0029853669
-0.26064822
0.0032546376
-0.26104199
0.0034915483
-0.26146194
0.0036913152
-0.26190295
0.003849592
-0.2623594
0.003962533
-0.26282526
0.0040268806
-0.26329418
0.0040400217
-0.26375954
0.0040000448
-0.26421457
0.0039057854
-0.26465244
0.003756857
-0.26506637
0.0035536789
-0.26544972
0.0032974663
-0.2657961
0.0029902358
-0.26609947
0.002634774
-0.26635423
0.0022345984
-0.26655533
0.0017938971
-0.2666983
0.0013174917
-0.2667794
0.00081079718
-0.26679561
0.00027946101
-0.26674464
-0.00027049227
-0.266625
-0.00083270724
-0.26643606
-0.0014007075
-0.26617798
-0.0019679955
-0.26585176
-0.0025281866
-0.26545916
-0.0030750998
-0.26500271
-0.0036028555
-0.26448562
-0.0041059735
-0.2639117
-0.0045794596
-0.26328537
-0.0050188786
-0.26261145
-0.0054204181
-0.26189519
-0.0057809346
-0.26114209
-0.0060979832
-0.26035785
-0.0063698309
-0.25954827
-0.0065954495
-0.25871913
-0.0067745056
-0.25787615
-0.0069072965
-0.25702486
-0.0069947252
-0.25617059
-0.0070382246
-0.25531839
-0.0070396892
-0.25447294
-0.0070013999
-0.25363861
-0.0069259427
-0.25281935
-0.006816147
-0.25201871
-0.0066749823
-0.25123986
-0.0065055189
-0.25048554
-0.0063108518
-0.24975814
-0.006094049
-0.24905964
-0.0058581039
-0.2483917
-0.0056059097
-0.24775563
-0.005340206
-0.24715245
-0.0050635821
-0.24658291
-0.0047784503
-0.24604749
-0.004487041
-0.24554647
-0.0041913981
-0.24507991
-0.0038933907
-0.24464772
-0.0035947016
-0.24424964
-0.0032968545
-0.24388531
-0.0030012175
-0.24355422
-0.0027090179
-0.24325583
-0.0024213556
-0.24298949
-0.0021392281
-0.24275456
-0.0018635413
-0.24255037
-0.001595135
-0.24237632
-0.0013347517
-0.24223184
-0.001083033
-0.24211645
-0.00084064508
-0.24202654
-0.00063935096
-0.24196597
-0.00041857026
-0.0002078322
-0.25801542
0.0020046377
-0.25822084
0.0021564877
-0.25844077
0.0022981081
-0.25867374
0.0024275676
-0.25891815
0.0025428798
-0.25917221
0.0026422251
-0.25943399
0.0027238075
-0.2597014
0.0027860513
-0.25997218
0.0028274544
-0.26024398
0.0028467933
-0.26051432
0.0028429673
-0.26078063
0.002815209
-0.2610403
0.0027629236
-0.26129067
0.0026858978
-0.26152909
0.0025841358
-0.26175294
0.0024580582
-0.26195968
0.0023083395
-0.26214686
0.0021360877
-0.26231217
0.0019426883
-0.26245351
0.0017299556
-0.26256897
0.001499988
-0.26265691