/*--------------------------------*- C++ -*----------------------------------*\
| =========                 |                                                 |
| \\      /  F ield         | foam-extend: Open Source CFD                    |
|  \\    /   O peration     | Version:     4.1                                |
|   \\  /    A nd           | Web:         http://www.foam-extend.org         |
|    \\/     M anipulation  |                                                 |
\*---------------------------------------------------------------------------*/
FoamFile
{
    version     2.0;
    format      ascii;
    class       volScalarField;
    location    "0.5";
    object      rAU;
}
// * * * * * * * * * * * * * * * * * * * * * * * * * * * * * * * * * * * * * //

dimensions      [0 0 1 0 0 0 0];

internalField   nonuniform List<scalar> 
16796
(
3.8821626e-05
3.8790545e-05
3.8762446e-05
3.8734943e-05
3.8708489e-05
3.8683555e-05
3.8660326e-05
3.8639217e-05
3.8620311e-05
3.8603932e-05
3.8590061e-05
3.8578917e-05
3.8570366e-05
3.8564508e-05
3.8561093e-05
3.8560105e-05
3.8560069e-05
3.8561248e-05
3.856439e-05
3.8569565e-05
3.8576515e-05
3.8585215e-05
3.8595293e-05
3.8606619e-05
3.8618727e-05
3.8631405e-05
3.8644123e-05
3.865662e-05
3.8668331e-05
3.8678971e-05
3.8687969e-05
3.8695007e-05
3.8699679e-05
3.8700242e-05
3.8695795e-05
3.8688077e-05
3.8677277e-05
3.8663291e-05
3.8646321e-05
3.8626298e-05
3.8603476e-05
3.857786e-05
3.8549718e-05
3.8519212e-05
3.8486578e-05
3.8452071e-05
3.8415961e-05
3.8378549e-05
3.8340125e-05
3.8301e-05
3.8261486e-05
3.8221893e-05
3.818252e-05
3.8143674e-05
3.8105626e-05
3.8068646e-05
3.8032982e-05
3.7998862e-05
3.7966486e-05
3.7936046e-05
3.7907687e-05
3.7881543e-05
3.785772e-05
3.7836297e-05
3.7817331e-05
3.7800851e-05
3.7786881e-05
3.77754e-05
3.7766387e-05
3.7759799e-05
3.7755581e-05
3.7753665e-05
3.7753669e-05
3.775399e-05
3.7756509e-05
3.7761195e-05
3.7767968e-05
3.7776705e-05
3.7787279e-05
3.7799527e-05
3.7813298e-05
3.7828427e-05
3.7844746e-05
3.7862084e-05
3.788027e-05
3.7899129e-05
3.7918489e-05
3.7938179e-05
3.7958032e-05
3.797788e-05
3.799758e-05
3.8016971e-05
3.8035916e-05
3.8054288e-05
3.8071968e-05
3.808885e-05
3.8104838e-05
3.8119864e-05
3.813385e-05
3.8146748e-05
3.8158518e-05
3.8169133e-05
3.8178576e-05
3.8186854e-05
3.8193962e-05
3.819992e-05
3.8204753e-05
3.8208489e-05
3.8211162e-05
3.8212823e-05
3.8213254e-05
3.8212125e-05
3.8210162e-05
3.8207407e-05
3.8203896e-05
3.8199678e-05
3.8194779e-05
3.8189243e-05
3.8183115e-05
3.8176447e-05
3.816933e-05
3.8161998e-05
3.8154483e-05
3.8143689e-05
3.7618522e-05
3.7596325e-05
3.7579608e-05
3.7563691e-05
3.7549266e-05
3.7536572e-05
3.7525751e-05
3.7517169e-05
3.7510864e-05
3.7507137e-05
3.750594e-05
3.7507488e-05
3.7511642e-05
3.7518525e-05
3.7524065e-05
3.7531151e-05
3.7539706e-05
3.7550014e-05
3.7562578e-05
3.75772e-05
3.7593375e-05
3.7610911e-05
3.7629318e-05
3.7648419e-05
3.7667743e-05
3.7687135e-05
3.7706152e-05
3.772467e-05
3.7742284e-05
3.7758918e-05
3.7774214e-05
3.7788109e-05
3.7800445e-05
3.7809752e-05
3.7814e-05
3.7811356e-05
3.7806053e-05
3.7797873e-05
3.778698e-05
3.7773295e-05
3.7757091e-05
3.7738389e-05
3.7717481e-05
3.7694547e-05
3.766984e-05
3.7643624e-05
3.7616175e-05
3.7587797e-05
3.7558777e-05
3.7529421e-05
3.750003e-05
3.74709e-05
3.7442317e-05
3.7414568e-05
3.7387905e-05
3.7362577e-05
3.7338808e-05
3.7316804e-05
3.7296743e-05
3.7278792e-05
3.7263075e-05
3.7249703e-05
3.7238762e-05
3.7230311e-05
3.7224389e-05
3.7221007e-05
3.7220174e-05
3.7221852e-05
3.7226005e-05
3.7232575e-05
3.723898e-05
3.7245587e-05
3.725421e-05
3.7263228e-05
3.7274352e-05
3.7287451e-05
3.7302421e-05
3.7319154e-05
3.7337556e-05
3.7357496e-05
3.7378865e-05
3.7401534e-05
3.7425372e-05
3.7450246e-05
3.7476013e-05
3.7502534e-05
3.7529663e-05
3.7557257e-05
3.7585169e-05
3.7613254e-05
3.7641384e-05
3.766941e-05
3.7697207e-05
3.7724652e-05
3.775163e-05
3.7778035e-05
3.7803768e-05
3.7828755e-05
3.7852911e-05
3.7876177e-05
3.7898501e-05
3.7919843e-05
3.7940172e-05
3.7959478e-05
3.7977743e-05
3.799497e-05
3.8011167e-05
3.802635e-05
3.8040537e-05
3.8053764e-05
3.8065803e-05
3.8076306e-05
3.8085979e-05
3.8094855e-05
3.8102966e-05
3.811036e-05
3.8117063e-05
3.8123022e-05
3.8127271e-05
3.8131027e-05
3.8134378e-05
3.8137497e-05
3.8140302e-05
3.8140976e-05
3.742203e-05
3.7406439e-05
3.7397346e-05
3.7390302e-05
3.738564e-05
3.7383461e-05
3.738372e-05
3.7386619e-05
3.7392025e-05
3.7400072e-05
3.7410542e-05
3.7423485e-05
3.7434952e-05
3.7444986e-05
3.7453176e-05
3.7462374e-05
3.7473539e-05
3.7486707e-05
3.7501564e-05
3.7518056e-05
3.7535793e-05
3.7554672e-05
3.7574264e-05
3.7594435e-05
3.7614736e-05
3.7635019e-05
3.7654829e-05
3.7674025e-05
3.769217e-05
3.7709153e-05
3.7724577e-05
3.7738338e-05
3.7750244e-05
3.7760012e-05
3.776485e-05
3.7756186e-05
3.7744897e-05
3.7730946e-05
3.7714627e-05
3.769596e-05
3.7675293e-05
3.7652706e-05
3.7628538e-05
3.7603003e-05
3.7576376e-05
3.7548932e-05
3.7520949e-05
3.7492719e-05
3.7464511e-05
3.7436602e-05
3.7409261e-05
3.738274e-05
3.7357278e-05
3.7333113e-05
3.7310439e-05
3.7289449e-05
3.727031e-05
3.7253165e-05
3.7238134e-05
3.7225329e-05
3.7214813e-05
3.7206646e-05
3.7200861e-05
3.7197471e-05
3.7196472e-05
3.7197837e-05
3.7201539e-05
3.7207513e-05
3.7215699e-05
3.7222689e-05
3.7225702e-05
3.7228819e-05
3.7234193e-05
3.7241756e-05
3.7251448e-05
3.7263187e-05
3.7276889e-05
3.7292458e-05
3.730981e-05
3.732882e-05
3.7349383e-05
3.7371378e-05
3.7394675e-05
3.7419143e-05
3.7444643e-05
3.7471034e-05
3.7498171e-05
3.7525906e-05
3.7554092e-05
3.7582575e-05
3.7611221e-05
3.7639876e-05
3.7668405e-05
3.7696674e-05
3.7724559e-05
3.7751943e-05
3.7778714e-05
3.7804788e-05
3.7830068e-05
3.7854485e-05
3.7877976e-05
3.7900491e-05
3.7921989e-05
3.7942454e-05
3.7961858e-05
3.7980199e-05
3.7997481e-05
3.8013714e-05
3.8028914e-05
3.8043116e-05
3.8056339e-05
3.806862e-05
3.8079996e-05
3.8090504e-05
3.8100177e-05
3.8109064e-05
3.8117188e-05
3.8124494e-05
3.8130005e-05
3.8134921e-05
3.8139272e-05
3.8142411e-05
3.8144736e-05
3.8144932e-05
3.7380661e-05
3.7368572e-05
3.7362343e-05
3.7358618e-05
3.7357513e-05
3.7359121e-05
3.7363316e-05
3.7370229e-05
3.7379659e-05
3.7391675e-05
3.7405999e-05
3.741697e-05
3.7422612e-05
3.7426754e-05
3.7432945e-05
3.7441349e-05
3.745178e-05
3.746433e-05
3.7478735e-05
3.7494995e-05
3.7512759e-05
3.7531951e-05
3.7552153e-05
3.7573236e-05
3.7594739e-05
3.7616501e-05
3.7638043e-05
3.7659194e-05
3.7679484e-05
3.7698758e-05
3.7716573e-05
3.7732778e-05
3.7747128e-05
3.7759297e-05
3.7765321e-05
3.7753619e-05
3.7739227e-05
3.7722172e-05
3.7702807e-05
3.7681199e-05
3.7657743e-05
3.7632557e-05
3.7606016e-05
3.7578362e-05
3.7549893e-05
3.7520904e-05
3.7491683e-05
3.7462531e-05
3.7433717e-05
3.7405517e-05
3.737819e-05
3.7351978e-05
3.7327106e-05
3.7303792e-05
3.7282214e-05
3.7262541e-05
3.724492e-05
3.7229472e-05
3.7216294e-05
3.7205473e-05
3.7197054e-05
3.7191073e-05
3.7187544e-05
3.718646e-05
3.7187799e-05
3.7191516e-05
3.7197569e-05
3.7205879e-05
3.7216371e-05
3.7216725e-05
3.7215447e-05
3.721653e-05
3.7219958e-05
3.7225676e-05
3.7233633e-05
3.724376e-05
3.7255975e-05
3.7270188e-05
3.7286314e-05
3.7304234e-05
3.7323846e-05
3.7345031e-05
3.7367661e-05
3.7391609e-05
3.7416734e-05
3.7442895e-05
3.7469946e-05
3.7497734e-05
3.7526108e-05
3.7554909e-05
3.7583994e-05
3.7613202e-05
3.7642386e-05
3.7671404e-05
3.770012e-05
3.7728405e-05
3.7756138e-05
3.778322e-05
3.7809544e-05
3.7835029e-05
3.7859603e-05
3.7883205e-05
3.7905786e-05
3.7927321e-05
3.7947775e-05
3.7967141e-05
3.7985415e-05
3.8002606e-05
3.8018726e-05
3.8033808e-05
3.8047871e-05
3.8060952e-05
3.8073087e-05
3.8084314e-05
3.8094668e-05
3.8104197e-05
3.8112924e-05
3.8120881e-05
3.8128087e-05
3.8134551e-05
3.8140239e-05
3.8144412e-05
3.8147459e-05
3.8147443e-05
3.7364123e-05
3.7353965e-05
3.7349032e-05
3.7346828e-05
3.7347338e-05
3.7350702e-05
3.7356767e-05
3.7365649e-05
3.7377121e-05
3.7391233e-05
3.7404015e-05
3.7405723e-05
3.7405805e-05
3.7408188e-05
3.74128e-05
3.7419842e-05
3.7429161e-05
3.7440873e-05
3.7454733e-05
3.7470756e-05
3.7488602e-05
3.7508199e-05
3.7529134e-05
3.7551269e-05
3.7574137e-05
3.7597559e-05
3.7621035e-05
3.7644369e-05
3.7667059e-05
3.7688918e-05
3.7709468e-05
3.7728516e-05
3.7745781e-05
3.776089e-05
3.7768509e-05
3.7754221e-05
3.7737195e-05
3.7717491e-05
3.7695495e-05
3.7671315e-05
3.7645378e-05
3.7617833e-05
3.7589083e-05
3.7559394e-05
3.7529085e-05
3.7498468e-05
3.7467847e-05
3.7437531e-05
3.7407799e-05
3.7378932e-05
3.7351189e-05
3.7324815e-05
3.7300028e-05
3.7277045e-05
3.7256032e-05
3.7237153e-05
3.722054e-05
3.7206302e-05
3.7194522e-05
3.7185271e-05
3.7178575e-05
3.7174455e-05
3.7172905e-05
3.7173899e-05
3.7177395e-05
3.718333e-05
3.7191644e-05
3.7202238e-05
3.7211951e-05
3.7206454e-05
3.7203092e-05
3.7202184e-05
3.7203718e-05
3.7207645e-05
3.7213919e-05
3.7222475e-05
3.723324e-05
3.7246129e-05
3.7261064e-05
3.727793e-05
3.7296629e-05
3.7317044e-05
3.7339052e-05
3.7362524e-05
3.7387322e-05
3.7413303e-05
3.7440318e-05
3.7468213e-05
3.7496829e-05
3.7526001e-05
3.755558e-05
3.7585393e-05
3.7615286e-05
3.7645104e-05
3.76747e-05
3.7703933e-05
3.773267e-05
3.7760801e-05
3.7788206e-05
3.7814794e-05
3.7840481e-05
3.7865198e-05
3.7888886e-05
3.7911512e-05
3.7933035e-05
3.795344e-05
3.7972721e-05
3.7990883e-05
3.8007933e-05
3.8023905e-05
3.8038816e-05
3.8052704e-05
3.8065607e-05
3.8077564e-05
3.8088613e-05
3.8098805e-05
3.8108163e-05
3.811672e-05
3.8124498e-05
3.8131499e-05
3.8137689e-05
3.8143025e-05
3.8147417e-05
3.8147958e-05
3.7349787e-05
3.7340957e-05
3.7337028e-05
3.7336021e-05
3.7337836e-05
3.7342659e-05
3.7350325e-05
3.7360944e-05
3.7374277e-05
3.7390352e-05
3.7394252e-05
3.7390177e-05
3.7388267e-05
3.7388825e-05
3.7391811e-05
3.7397456e-05
3.7405634e-05
3.7416486e-05
3.742979e-05
3.7445581e-05
3.7463537e-05
3.7483593e-05
3.7505338e-05
3.7528627e-05
3.7552979e-05
3.7578192e-05
3.7603743e-05
3.7629403e-05
3.7654633e-05
3.7679206e-05
3.7702602e-05
3.7724587e-05
3.7744834e-05
3.7762934e-05
3.7772485e-05
3.7755494e-05
3.7735724e-05
3.771327e-05
3.7688556e-05
3.766172e-05
3.7633221e-05
3.7603237e-05
3.7572194e-05
3.7540383e-05
3.7508143e-05
3.7475801e-05
3.7443677e-05
3.7412092e-05
3.7381333e-05
3.7351688e-05
3.7323421e-05
3.7296776e-05
3.7271973e-05
3.7249223e-05
3.722869e-05
3.7210526e-05
3.7194855e-05
3.7181774e-05
3.717135e-05
3.716364e-05
3.7158651e-05
3.7156384e-05
3.7156814e-05
3.7159895e-05
3.7165563e-05
3.7173735e-05
3.7184329e-05
3.7197229e-05
3.7202755e-05
3.719473e-05
3.7189254e-05
3.7186327e-05
3.7185948e-05
3.7188075e-05
3.7192667e-05
3.7199667e-05
3.7209007e-05
3.7220605e-05
3.7234386e-05
3.725024e-05
3.7268071e-05
3.7287766e-05
3.7309204e-05
3.7332257e-05
3.7356787e-05
3.738265e-05
3.7409694e-05
3.7437761e-05
3.7466686e-05
3.7496298e-05
3.7526438e-05
3.7556924e-05
3.7587591e-05
3.7618273e-05
3.764881e-05
3.7679049e-05
3.7708844e-05
3.7738072e-05
3.7766602e-05
3.7794331e-05
3.7821164e-05
3.7847023e-05
3.7871838e-05
3.7895571e-05
3.7918173e-05
3.7939623e-05
3.7959912e-05
3.7979039e-05
3.7997011e-05
3.8013861e-05
3.8029605e-05
3.8044282e-05
3.8057931e-05
3.8070594e-05
3.8082311e-05
3.8093135e-05
3.8103094e-05
3.8112223e-05
3.8120547e-05
3.8128073e-05
3.8134781e-05
3.8140645e-05
3.8145577e-05
3.8146838e-05
3.7335023e-05
3.7327096e-05
3.7323971e-05
3.732397e-05
3.7326931e-05
3.7333068e-05
3.7342214e-05
3.7354473e-05
3.7369595e-05
3.7385259e-05
3.7379146e-05
3.7372785e-05
3.7368748e-05
3.7367377e-05
3.7368666e-05
3.7372878e-05
3.7379919e-05
3.738995e-05
3.7402771e-05
3.7418431e-05
3.7436616e-05
3.7457266e-05
3.7479966e-05
3.7504562e-05
3.7530557e-05
3.7557726e-05
3.7585519e-05
3.7613673e-05
3.7641615e-05
3.7669078e-05
3.7695499e-05
3.7720599e-05
3.7744009e-05
3.7765273e-05
3.7777247e-05
3.7757524e-05
3.7734961e-05
3.7709689e-05
3.7682167e-05
3.7652571e-05
3.7621393e-05
3.7588843e-05
3.7555373e-05
3.75213e-05
3.7486984e-05
3.7452773e-05
3.7419001e-05
3.7386002e-05
3.7354076e-05
3.7323516e-05
3.7294593e-05
3.7267554e-05
3.7242619e-05
3.7219996e-05
3.7199844e-05
3.718231e-05
3.7167506e-05
3.7155519e-05
3.71464e-05
3.7140191e-05
3.7136881e-05
3.7136453e-05
3.7138861e-05
3.7144037e-05
3.7151896e-05
3.7162334e-05
3.7175249e-05
3.7190502e-05
3.7191483e-05
3.7181259e-05
3.7173681e-05
3.7168757e-05
3.7166491e-05
3.7166845e-05
3.7169786e-05
3.7175261e-05
3.7183206e-05
3.7193545e-05
3.7206207e-05
3.7221086e-05
3.723809e-05
3.725711e-05
3.7278025e-05
3.7300709e-05
3.7325025e-05
3.7350828e-05
3.7377963e-05
3.7406265e-05
3.7435566e-05
3.7465685e-05
3.7496456e-05
3.7527685e-05
3.7559196e-05
3.759081e-05
3.7622354e-05
3.7653663e-05
3.7684576e-05
3.7714959e-05
3.7744669e-05
3.7773588e-05
3.7801613e-05
3.7828655e-05
3.7854636e-05
3.7879509e-05
3.7903218e-05
3.7925739e-05
3.7947056e-05
3.7967167e-05
3.7986078e-05
3.8003818e-05
3.8020406e-05
3.8035881e-05
3.8050285e-05
3.8063663e-05
3.8076056e-05
3.8087522e-05
3.8098092e-05
3.8107806e-05
3.811669e-05
3.8124757e-05
3.8131997e-05
3.8138399e-05
3.8143893e-05
3.8145854e-05
3.7318523e-05
3.7311341e-05
3.7308983e-05
3.7309967e-05
3.7314083e-05
3.7321569e-05
3.7332251e-05
3.7346229e-05
3.736324e-05
3.7373978e-05
3.7362879e-05
3.7354172e-05
3.7347955e-05
3.7344608e-05
3.7344161e-05
3.7346911e-05
3.7352795e-05
3.7362002e-05
3.7374353e-05
3.7389917e-05
3.7408389e-05
3.7429713e-05
3.7453471e-05
3.7479496e-05
3.7507273e-05
3.753655e-05
3.7566745e-05
3.7597558e-05
3.7628374e-05
3.765888e-05
3.7688469e-05
3.7716814e-05
3.7743499e-05
3.7768026e-05
3.7782876e-05
3.7760286e-05
3.7734788e-05
3.7706553e-05
3.767608e-05
3.7643581e-05
3.7609582e-05
3.7574323e-05
3.7538288e-05
3.7501816e-05
3.7465292e-05
3.7429082e-05
3.7393537e-05
3.7359007e-05
3.7325802e-05
3.7294223e-05
3.7264549e-05
3.7237029e-05
3.7211884e-05
3.7189321e-05
3.7169494e-05
3.7152544e-05
3.7138573e-05
3.7127655e-05
3.7119829e-05
3.7115118e-05
3.7113494e-05
3.711492e-05
3.7119326e-05
3.7126625e-05
3.7136708e-05
3.7149448e-05
3.716472e-05
3.7182366e-05
3.7178729e-05
3.7166271e-05
3.7156566e-05
3.7149628e-05
3.7145466e-05
3.714405e-05
3.7145349e-05
3.7149315e-05
3.7155889e-05
3.7164996e-05
3.7176573e-05
3.7190514e-05
3.7206732e-05
3.7225121e-05
3.7245562e-05
3.7267931e-05
3.729209e-05
3.7317892e-05
3.734518e-05
3.7373785e-05
3.7403531e-05
3.7434229e-05
3.7465702e-05
3.7497746e-05
3.7530172e-05
3.7562788e-05
3.7595407e-05
3.762785e-05
3.7659942e-05
3.7691536e-05
3.7722474e-05
3.7752628e-05
3.7781884e-05
3.7810141e-05
3.7837314e-05
3.7863346e-05
3.7888178e-05
3.7911778e-05
3.7934128e-05
3.7955223e-05
3.7975066e-05
3.7993689e-05
3.8011111e-05
3.8027371e-05
3.8042515e-05
3.8056591e-05
3.8069646e-05
3.808174e-05
3.8092912e-05
3.8103205e-05
3.8112655e-05
3.8121283e-05
3.8129092e-05
3.8136087e-05
3.814222e-05
3.8144942e-05
3.7300634e-05
3.7293996e-05
3.7292279e-05
3.7294146e-05
3.7299343e-05
3.7308124e-05
3.7320309e-05
3.7335996e-05
3.7354911e-05
3.7358734e-05
3.7344997e-05
3.7333792e-05
3.7325263e-05
3.7319831e-05
3.7317567e-05
3.7318803e-05
3.732351e-05
3.7331903e-05
3.7343827e-05
3.7359364e-05
3.737822e-05
3.7400339e-05
3.7425296e-05
3.7452909e-05
3.7482641e-05
3.7514213e-05
3.7547006e-05
3.758068e-05
3.7614575e-05
3.7648333e-05
3.7681296e-05
3.7713089e-05
3.7743245e-05
3.7771216e-05
3.7789492e-05
3.7763943e-05
3.7735402e-05
3.7704082e-05
3.7670523e-05
3.7634975e-05
3.7598002e-05
3.7559878e-05
3.7521117e-05
3.7482087e-05
3.7443195e-05
3.7404831e-05
3.7367363e-05
3.7331157e-05
3.7296533e-05
3.7263806e-05
3.7233258e-05
3.7205145e-05
3.7179689e-05
3.7157096e-05
3.7137517e-05
3.7121084e-05
3.7107893e-05
3.7098005e-05
3.7091443e-05
3.7088216e-05
3.7088276e-05
3.7091563e-05
3.7097989e-05
3.7107441e-05
3.7119787e-05
3.7134877e-05
3.7152562e-05
3.7172662e-05
3.7164337e-05
3.7149632e-05
3.7137795e-05
3.7128846e-05
3.7122799e-05
3.7119626e-05
3.7119302e-05
3.712178e-05
3.7127007e-05
3.7134911e-05
3.7145432e-05
3.7158469e-05
3.7173939e-05
3.7191738e-05
3.7211751e-05
3.7233856e-05
3.7257913e-05
3.7283775e-05
3.7311282e-05
3.7340258e-05
3.7370521e-05
3.7401874e-05
3.7434127e-05
3.7467066e-05
3.7500487e-05
3.7534184e-05
3.7567956e-05
3.7601609e-05
3.7634952e-05
3.7667825e-05
3.7700056e-05
3.7731505e-05
3.7762045e-05
3.7791567e-05
3.7819974e-05
3.7847205e-05
3.7873192e-05
3.7897899e-05
3.7921305e-05
3.7943401e-05
3.7964192e-05
3.7983708e-05
3.8001969e-05
3.8019018e-05
3.8034904e-05
3.8049677e-05
3.806339e-05
3.8076108e-05
3.8087874e-05
3.809874e-05
3.8108747e-05
3.8117926e-05
3.8126295e-05
3.8133873e-05
3.8140641e-05
3.8144095e-05
3.7280834e-05
3.7274656e-05
3.7273531e-05
3.7276249e-05
3.7282523e-05
3.7292619e-05
3.7306354e-05
3.7323823e-05
3.734474e-05
3.7342311e-05
3.7325815e-05
3.7312e-05
3.7301053e-05
3.7293441e-05
3.7289278e-05
3.7288938e-05
3.7292425e-05
3.7299988e-05
3.7311493e-05
3.732704e-05
3.7346345e-05
3.7369353e-05
3.7395629e-05
3.7424976e-05
3.7456829e-05
3.7490878e-05
3.7526463e-05
3.7563199e-05
3.7600378e-05
3.7637588e-05
3.767412e-05
3.7709542e-05
3.7743338e-05
3.777491e-05
3.7797161e-05
3.7768503e-05
3.7736759e-05
3.7702189e-05
3.7665376e-05
3.7626611e-05
3.7586496e-05
3.754534e-05
3.750369e-05
3.7461941e-05
3.7420527e-05
3.7379858e-05
3.7340323e-05
3.7302304e-05
3.7266135e-05
3.723214e-05
3.7200611e-05
3.7171808e-05
3.7145956e-05
3.7123259e-05
3.7103867e-05
3.7087905e-05
3.707546e-05
3.706658e-05
3.7061276e-05
3.7059536e-05
3.7061295e-05
3.7066472e-05
3.7074952e-05
3.70866e-05
3.7101258e-05
3.711875e-05
3.7138904e-05
3.7161517e-05
3.7148395e-05
3.7131409e-05
3.7117417e-05
3.7106444e-05
3.7098507e-05
3.7093581e-05
3.7091643e-05
3.709265e-05
3.7096549e-05
3.7103275e-05
3.7112769e-05
3.7124935e-05
3.7139694e-05
3.7156944e-05
3.7176575e-05
3.7198465e-05
3.7222476e-05
3.7248459e-05
3.7276249e-05
3.7305667e-05
3.7336521e-05
3.7368606e-05
3.7401719e-05
3.7435633e-05
3.747013e-05
3.7504989e-05
3.7539992e-05
3.7574928e-05
3.7609593e-05
3.764381e-05
3.7677394e-05
3.7710191e-05
3.7742063e-05
3.7772889e-05
3.7802565e-05
3.7831021e-05
3.7858184e-05
3.7884013e-05
3.7908484e-05
3.7931588e-05
3.7953327e-05
3.7973734e-05
3.7992829e-05
3.801066e-05
3.8027278e-05
3.804274e-05
3.8057103e-05
3.807044e-05
3.8082798e-05
3.8094238e-05
3.8104809e-05
3.8114553e-05
3.81235e-05
3.8131683e-05
3.8139103e-05
3.8143287e-05
3.725934e-05
3.7253481e-05
3.7252839e-05
3.7256322e-05
3.7263612e-05
3.7274987e-05
3.7290263e-05
3.7309529e-05
3.7332492e-05
3.7324476e-05
3.7305032e-05
3.7288429e-05
3.7274906e-05
3.7264979e-05
3.7258809e-05
3.7256812e-05
3.7259031e-05
3.7265746e-05
3.7276851e-05
3.7292462e-05
3.7312302e-05
3.7336315e-05
3.7364057e-05
3.7395309e-05
3.7429479e-05
3.7466218e-05
3.7504823e-05
3.754486e-05
3.7585566e-05
3.7626474e-05
3.7666815e-05
3.7706104e-05
3.7743764e-05
3.7779146e-05
3.7805995e-05
3.7774085e-05
3.7738983e-05
3.7700996e-05
3.7660754e-05
3.7618591e-05
3.757515e-05
3.7530779e-05
3.7486055e-05
3.7441408e-05
3.7397296e-05
3.7354154e-05
3.7312391e-05
3.7272405e-05
3.7234547e-05
3.7199151e-05
3.7166518e-05
3.7136914e-05
3.7110568e-05
3.7087685e-05
3.706841e-05
3.7052864e-05
3.7041125e-05
3.7033229e-05
3.7029172e-05
3.7028925e-05
3.7032401e-05
3.7039496e-05
3.7050072e-05
3.7063967e-05
3.7080997e-05
3.7100959e-05
3.7123654e-05
3.7148854e-05
3.7130816e-05
3.7111524e-05
3.7095362e-05
3.7082359e-05
3.7072534e-05
3.7065863e-05
3.7062323e-05
3.7061874e-05
3.7064466e-05
3.7070036e-05
3.7078529e-05
3.7089853e-05
3.7103934e-05
3.7120674e-05
3.7139966e-05
3.716169e-05
3.718571e-05
3.7211875e-05
3.7240017e-05
3.726995e-05
3.7301475e-05
3.7334374e-05
3.7368435e-05
3.7403414e-05
3.7439077e-05
3.7475188e-05
3.751151e-05
3.7547818e-05
3.7583888e-05
3.7619528e-05
3.7654538e-05
3.768875e-05
3.7722015e-05
3.77542e-05
3.7785192e-05
3.7814915e-05
3.7843288e-05
3.7870268e-05
3.7895826e-05
3.7919954e-05
3.7942652e-05
3.7963955e-05
3.7983887e-05
3.8002498e-05
3.8019843e-05
3.8035986e-05
3.8050988e-05
3.8064929e-05
3.8077865e-05
3.8089865e-05
3.8100985e-05
3.8111281e-05
3.8120792e-05
3.8129568e-05
3.8137627e-05
3.8142516e-05
3.7235803e-05
3.7230183e-05
3.7229957e-05
3.7234159e-05
3.7242445e-05
3.7255106e-05
3.7271958e-05
3.7293088e-05
3.7318195e-05
3.7305381e-05
3.7282815e-05
3.7263257e-05
3.7247001e-05
3.7234617e-05
3.7226317e-05
3.7222565e-05
3.7223446e-05
3.7229277e-05
3.7239978e-05
3.7255685e-05
3.727613e-05
3.7301254e-05
3.7330602e-05
3.736393e-05
3.7400614e-05
3.7440263e-05
3.7482125e-05
3.7525709e-05
3.7570196e-05
3.7615053e-05
3.7659452e-05
3.7702843e-05
3.7744591e-05
3.7783989e-05
3.7816078e-05
3.7780735e-05
3.7742082e-05
3.7700481e-05
3.7656609e-05
3.7610848e-05
3.7563882e-05
3.7516099e-05
3.7468112e-05
3.742038e-05
3.7373391e-05
3.7327605e-05
3.7283451e-05
3.7241346e-05
3.7201656e-05
3.7164729e-05
3.7130873e-05
3.7100364e-05
3.7073433e-05
3.7050286e-05
3.7031068e-05
3.7015893e-05
3.700483e-05
3.6997904e-05
3.6995096e-05
3.6996357e-05
3.700158e-05
3.7010637e-05
3.7023362e-05
3.7039566e-05
3.7059037e-05
3.7081541e-05
3.7106854e-05
3.713472e-05
3.7111609e-05
3.7089976e-05
3.7071622e-05
3.7056577e-05
3.704486e-05
3.7036447e-05
3.7031315e-05
3.7029424e-05
3.7030726e-05
3.7035161e-05
3.7042677e-05
3.7053187e-05
3.7066621e-05
3.7082888e-05
3.7101883e-05
3.712349e-05
3.7147573e-05
3.7173982e-05
3.7202543e-05
3.7233066e-05
3.7265342e-05
3.7299142e-05
3.7334239e-05
3.7370375e-05
3.7407298e-05
3.7444752e-05
3.7482486e-05
3.7520251e-05
3.7557809e-05
3.7594949e-05
3.7631456e-05
3.7667148e-05
3.7701862e-05
3.7735455e-05
3.7767805e-05
3.7798828e-05
3.7828439e-05
3.7856591e-05
3.7883252e-05
3.7908412e-05
3.7932075e-05
3.7954275e-05
3.7975041e-05
3.7994427e-05
3.8012494e-05
3.802931e-05
3.8044944e-05
3.8059484e-05
3.8072993e-05
3.8085547e-05
3.8097216e-05
3.8108061e-05
3.8118137e-05
3.8127504e-05
3.8136196e-05
3.8141773e-05
3.7210303e-05
3.7204796e-05
3.7204883e-05
3.7209723e-05
3.721895e-05
3.723287e-05
3.7251299e-05
3.7274326e-05
3.7301642e-05
3.7284869e-05
3.7258955e-05
3.7236229e-05
3.7217043e-05
3.7202028e-05
3.719145e-05
3.7185827e-05
3.718529e-05
3.7190194e-05
3.720049e-05
3.7216333e-05
3.7237463e-05
3.726382e-05
3.7294932e-05
3.733053e-05
3.7369952e-05
3.7412759e-05
3.7458146e-05
3.7505561e-05
3.7554117e-05
3.7603216e-05
3.765196e-05
3.7699732e-05
3.7745833e-05
3.7789495e-05
3.7827521e-05
3.7788552e-05
3.7746146e-05
3.7700719e-05
3.7653001e-05
3.7603424e-05
3.7552716e-05
3.7501307e-05
3.7449847e-05
3.7398828e-05
3.7348767e-05
3.730015e-05
3.7253429e-05
3.720904e-05
3.7167364e-05
3.7128763e-05
3.7093558e-05
3.7062031e-05
3.7034417e-05
3.7010926e-05
3.6991699e-05
3.6976848e-05
3.6966432e-05
3.6960466e-05
3.6958912e-05
3.6961704e-05
3.6968713e-05
3.6979782e-05
3.6994721e-05
3.7013309e-05
3.7035302e-05
3.7060437e-05
3.7088459e-05
3.7117888e-05
3.7090714e-05
3.7066709e-05
3.7046144e-05
3.7029047e-05
3.7015436e-05
3.7005285e-05
3.699857e-05
3.6995251e-05
3.6995279e-05
3.6998596e-05
3.7005156e-05
3.7014877e-05
3.7027693e-05
3.7043519e-05
3.7062257e-05
3.7083793e-05
3.7107994e-05
3.7134708e-05
3.716376e-05
3.7194952e-05
3.7228064e-05
3.7262857e-05
3.7299089e-05
3.7336482e-05
3.7374767e-05
3.7413669e-05
3.7452915e-05
3.7492237e-05
3.7531378e-05
3.7570107e-05
3.7608194e-05
3.7645441e-05
3.7681672e-05
3.7716733e-05
3.7750494e-05
3.7782861e-05
3.7813746e-05
3.7843097e-05
3.7870881e-05
3.7897089e-05
3.7921724e-05
3.7944826e-05
3.7966424e-05
3.7986579e-05
3.8005357e-05
3.8022833e-05
3.8039085e-05
3.8054206e-05
3.806827e-05
3.8081363e-05
3.8093562e-05
3.8104941e-05
3.8115565e-05
3.8125508e-05
3.8134814e-05
3.8141057e-05
3.7182582e-05
3.7177094e-05
3.717741e-05
3.7182828e-05
3.719296e-05
3.7208135e-05
3.722817e-05
3.7253157e-05
3.7282784e-05
3.7263022e-05
3.7233529e-05
3.7207411e-05
3.7185085e-05
3.7167246e-05
3.7154222e-05
3.714659e-05
3.7144532e-05
3.7148446e-05
3.7158317e-05
3.7174322e-05
3.7196211e-05
3.7223919e-05
3.7256956e-05
3.7295025e-05
3.7337421e-05
3.7383652e-05
3.7432851e-05
3.7484398e-05
3.7537334e-05
3.7590986e-05
3.764438e-05
3.7696827e-05
3.7747559e-05
3.7795742e-05
3.7840009e-05
3.7797609e-05
3.7751215e-05
3.7701723e-05
3.764992e-05
3.7596289e-05
3.7541605e-05
3.7486342e-05
3.7431188e-05
3.737667e-05
3.7323334e-05
3.7271694e-05
3.7222223e-05
3.717538e-05
3.7131561e-05
3.7091145e-05
3.7054461e-05
3.7021802e-05
3.6993409e-05
3.6969495e-05
3.69502e-05
3.693563e-05
3.6925839e-05
3.6920827e-05
3.6920542e-05
3.6924898e-05
3.693374e-05
3.6946886e-05
3.6964113e-05
3.6985169e-05
3.7009778e-05
3.7037641e-05
3.7068472e-05
3.7098062e-05
3.7068098e-05
3.7041686e-05
3.7018888e-05
3.6999729e-05
3.6984223e-05
3.697234e-05
3.6964051e-05
3.6959315e-05
3.6958083e-05
3.69603e-05
3.6965922e-05
3.6974875e-05
3.6987099e-05
3.7002516e-05
3.7021033e-05
3.7042543e-05
3.7066916e-05
3.7093998e-05
3.7123612e-05
3.7155552e-05
3.7189591e-05
3.7225473e-05
3.7262939e-05
3.7301695e-05
3.7341451e-05
3.7381908e-05
3.7422772e-05
3.7463753e-05
3.7504573e-05
3.7544983e-05
3.7584733e-05
3.762361e-05
3.7661425e-05
3.7698012e-05
3.7733231e-05
3.7766984e-05
3.7799174e-05
3.782975e-05
3.7858676e-05
3.7885942e-05
3.7911557e-05
3.793556e-05
3.7957989e-05
3.7978907e-05
3.7998388e-05
3.8016515e-05
3.8033373e-05
3.8049065e-05
3.8063672e-05
3.807729e-05
3.8090008e-05
3.8101909e-05
3.811307e-05
3.8123575e-05
3.8133479e-05
3.8140366e-05
3.7152631e-05
3.7147033e-05
3.7147468e-05
3.7153379e-05
3.7164361e-05
3.7180762e-05
3.720241e-05
3.7229401e-05
3.7261421e-05
3.7239734e-05
3.7206388e-05
3.7176613e-05
3.71509e-05
3.7130013e-05
3.711435e-05
3.710455e-05
3.7100853e-05
3.7103706e-05
3.7113129e-05
3.7129323e-05
3.715205e-05
3.7181239e-05
3.7216382e-05
3.7257145e-05
3.7302777e-05
3.7352727e-05
3.7406058e-05
3.7462074e-05
3.7519737e-05
3.7578291e-05
3.7636679e-05
3.7694134e-05
3.774981e-05
3.7802807e-05
3.7852549e-05
3.7808007e-05
3.775737e-05
3.7703554e-05
3.7647404e-05
3.758946e-05
3.7530547e-05
3.7471183e-05
3.7412096e-05
3.7353849e-05
3.7297021e-05
3.724215e-05
3.7189736e-05
3.7140258e-05
3.709413e-05
3.7051746e-05
3.7013449e-05
3.697954e-05
3.6950268e-05
3.6925848e-05
3.6906423e-05
3.6892094e-05
3.6882907e-05
3.6878851e-05
3.6879857e-05
3.6885818e-05
3.6896552e-05
3.691185e-05
3.6931456e-05
3.6955081e-05
3.6982412e-05
3.7013117e-05
3.704687e-05
3.7076304e-05
3.7043708e-05
3.7014856e-05
3.6989806e-05
3.6968576e-05
3.6951175e-05
3.6937565e-05
3.6927711e-05
3.692157e-05
3.6919091e-05
3.692022e-05
3.6924921e-05
3.6933123e-05
3.6944776e-05
3.695981e-05
3.6978141e-05
3.6999668e-05
3.7024264e-05
3.7051778e-05
3.7082027e-05
3.7114801e-05
3.714986e-05
3.7186934e-05
3.7225746e-05
3.726598e-05
3.7307323e-05
3.7349454e-05
3.7392053e-05
3.7434807e-05
3.7477415e-05
3.7519606e-05
3.7561113e-05
3.7601706e-05
3.7641179e-05
3.7679358e-05
3.7716092e-05
3.7751275e-05
3.7784809e-05
3.7816637e-05
3.7846725e-05
3.7875063e-05
3.7901663e-05
3.7926568e-05
3.7949821e-05
3.7971493e-05
3.7991664e-05
3.8010426e-05
3.8027872e-05
3.8044114e-05
3.8059244e-05
3.8073368e-05
3.8086584e-05
3.8098987e-05
3.8110664e-05
3.8121711e-05
3.8132192e-05
3.8139699e-05
3.7120241e-05
3.7114419e-05
3.7114869e-05
3.7121195e-05
3.7132974e-05
3.7150586e-05
3.7173867e-05
3.7202923e-05
3.723744e-05
3.7215043e-05
3.7177552e-05
3.7143835e-05
3.7114462e-05
3.7090276e-05
3.7071751e-05
3.7059597e-05
3.7054119e-05
3.7055816e-05
3.7064752e-05
3.7081154e-05
3.7104795e-05
3.71356e-05
3.7173036e-05
3.7216733e-05
3.7265884e-05
3.7319872e-05
3.7377684e-05
3.7438537e-05
3.7501304e-05
3.7565138e-05
3.7628892e-05
3.7691711e-05
3.775267e-05
3.7810793e-05
3.7865438e-05
3.7819835e-05
3.7764669e-05
3.7706241e-05
3.7645459e-05
3.7582921e-05
3.7519507e-05
3.7455778e-05
3.7392506e-05
3.733029e-05
3.726974e-05
3.7211423e-05
3.7155865e-05
3.7103563e-05
3.7054955e-05
3.7010446e-05
3.6970396e-05
3.6935116e-05
3.6904862e-05
3.6879856e-05
3.686024e-05
3.6846114e-05
3.6837516e-05
3.6834423e-05
3.683675e-05
3.6844365e-05
3.6857063e-05
3.68746e-05
3.6896686e-05
3.6922993e-05
3.6953169e-05
3.6986841e-05
3.7023643e-05
3.7052766e-05
3.7017487e-05
3.6986162e-05
3.6958842e-05
3.6935537e-05
3.6916243e-05
3.6900914e-05
3.6889507e-05
3.6881971e-05
3.6878257e-05
3.6878311e-05
3.6882102e-05
3.6889567e-05
3.6900667e-05
3.6915341e-05
3.6933516e-05
3.69551e-05
3.697997e-05
3.7007978e-05
3.7038939e-05
3.7072634e-05
3.7108812e-05
3.7147186e-05
3.7187461e-05
3.7229295e-05
3.727235e-05
3.731628e-05
3.7360737e-05
3.7405384e-05
3.7449893e-05
3.7493972e-05
3.7537331e-05
3.7579726e-05
3.7620935e-05
3.7660771e-05
3.7699075e-05
3.7735735e-05
3.7770648e-05
3.7803756e-05
3.7835024e-05
3.7864446e-05
3.7892035e-05
3.7917842e-05
3.7941915e-05
3.7964331e-05
3.798518e-05
3.8004562e-05
3.8022579e-05
3.8039354e-05
3.8054988e-05
3.8069597e-05
3.8083292e-05
3.8096177e-05
3.810835e-05
3.8119917e-05
3.8130953e-05
3.8139056e-05
3.7085346e-05
3.7079156e-05
3.7079497e-05
3.7086138e-05
3.7098648e-05
3.7117435e-05
3.7142355e-05
3.7173524e-05
3.7210634e-05
3.718888e-05
3.7146909e-05
3.7108923e-05
3.7075581e-05
3.704781e-05
3.7026171e-05
3.7011452e-05
3.700403e-05
3.7004464e-05
3.7012864e-05
3.702949e-05
3.7054127e-05
3.7086692e-05
3.712663e-05
3.7173523e-05
3.7226508e-05
3.7284888e-05
3.7347566e-05
3.7413663e-05
3.7481952e-05
3.7551485e-05
3.7621017e-05
3.7689597e-05
3.7756213e-05
3.7819807e-05
3.7879668e-05
3.7833202e-05
3.7773194e-05
3.7709838e-05
3.7644114e-05
3.7576679e-05
3.7508468e-05
3.7440092e-05
3.7372364e-05
3.7305921e-05
3.7241406e-05
3.7179415e-05
3.7120498e-05
3.7065176e-05
3.7013904e-05
3.6967107e-05
3.6925157e-05
3.6888379e-05
3.6857038e-05
3.6831362e-05
3.6811495e-05
3.6797535e-05
3.6789515e-05
3.6787398e-05
3.6791083e-05
3.6800416e-05
3.6815161e-05
3.6835041e-05
3.6859726e-05
3.6888847e-05
3.6922007e-05
3.6958787e-05
3.6998781e-05
3.7027387e-05
3.6989376e-05
3.6955549e-05
3.6925946e-05
3.6900563e-05
3.6879383e-05
3.6862344e-05
3.6849395e-05
3.6840477e-05
3.6835537e-05
3.6834524e-05
3.6837412e-05
3.6844149e-05
3.6854707e-05
3.6869039e-05
3.6887084e-05
3.690876e-05
3.6933954e-05
3.6962519e-05
3.6994269e-05
3.7028977e-05
3.7066379e-05
3.7106171e-05
3.7148033e-05
3.71916e-05
3.7236505e-05
3.7282371e-05
3.7328822e-05
3.7375492e-05
3.7422026e-05
3.7468108e-05
3.7513427e-05
3.7557719e-05
3.7600747e-05
3.7642312e-05
3.7682246e-05
3.7720432e-05
3.7756761e-05
3.7791176e-05
3.7823644e-05
3.7854159e-05
3.7882742e-05
3.7909447e-05
3.793433e-05
3.7957478e-05
3.7978987e-05
3.7998969e-05