/*--------------------------------*- C++ -*----------------------------------*\
| =========                 |                                                 |
| \\      /  F ield         | foam-extend: Open Source CFD                    |
|  \\    /   O peration     | Version:     4.1                                |
|   \\  /    A nd           | Web:         http://www.foam-extend.org         |
|    \\/     M anipulation  |                                                 |
\*---------------------------------------------------------------------------*/
FoamFile
{
    version     2.0;
    format      ascii;
    class       volScalarField;
    location    "0.5";
    object      rAU;
}
// * * * * * * * * * * * * * * * * * * * * * * * * * * * * * * * * * * * * * //

dimensions      [0 0 1 0 0 0 0];

internalField   nonuniform List<scalar> 
16796
(
0.00012995397
0.00012977335
0.00012960775
0.00012943171
0.00012924445
0.00012904814
0.00012884185
0.00012862788
0.0001284055
0.00012817725
0.00012794262
0.00012770432
0.000127462
0.00012721852
0.00012697364
0.00012673027
0.0001264882
0.00012625034
0.00012601642
0.00012578926
0.00012556849
0.00012535677
0.00012515354
0.00012496123
0.00012477903
0.00012460909
0.00012445034
0.00012430458
0.00012417041
0.00012404931
0.00012393951
0.00012384176
0.00012375549
0.0001236788
0.0001236123
0.00012355342
0.00012350247
0.0001234566
0.0001234159
0.00012337732
0.00012334081
0.00012330332
0.0001232642
0.0001232214
0.00012317341
0.00012311872
0.00012305588
0.00012298371
0.00012290098
0.00012280678
0.00012270036
0.00012258119
0.00012244895
0.00012230371
0.00012214555
0.00012197498
0.0001217927
0.00012159965
0.00012139697
0.00012118614
0.00012096861
0.00012074616
0.00012052062
0.00012029397
0.00012006822
0.00011984542
0.00011962774
0.00011941712
0.00011921559
0.00011902503
0.00011884725
0.00011868383
0.00011853638
0.00011840608
0.00011829406
0.00011820124
0.00011812828
0.0001180756
0.00011804355
0.00011803197
0.00011803197
0.00011804076
0.00011806971
0.00011811858
0.00011818668
0.00011827303
0.00011837644
0.00011849555
0.00011862887
0.0001187748
0.00011893179
0.000119098
0.00011927173
0.00011945122
0.00011963473
0.00011982056
0.00012000699
0.00012019256
0.00012037562
0.00012055479
0.00012072875
0.00012089626
0.00012105619
0.00012120764
0.00012134962
0.00012148139
0.00012160228
0.00012171175
0.0001218093
0.00012189468
0.00012196752
0.00012202767
0.00012207505
0.00012210963
0.00012213144
0.00012213759
0.0001221224
0.00012209557
0.00012205759
0.00012200935
0.0001219522
0.00012188831
0.0001218138
0.000121704
0.00011742976
0.0001173458
0.00011728753
0.00011722373
0.0001171521
0.00011707418
0.00011698886
0.00011689813
0.00011680115
0.0001167001
0.00011659431
0.00011648611
0.00011637499
0.00011626338
0.00011615084
0.00011603989
0.0001159301
0.00011582398
0.00011572109
0.00011562388
0.0001155318
0.00011544717
0.00011536932
0.00011530038
0.00011523947
0.0001151885
0.00011514634
0.00011511465
0.00011509201
0.00011507979
0.00011507628
0.00011508219
0.00011509697
0.00011511884
0.00011514843
0.00011518333
0.00011522392
0.00011526757
0.00011530759
0.00011534997
0.00011539558
0.00011544175
0.00011548806
0.00011553271
0.00011556946
0.00011559512
0.00011561256
0.00011562082
0.00011561893
0.0001156062
0.00011558211
0.00011554634
0.00011549875
0.00011543956
0.00011536902
0.00011528775
0.00011519654
0.00011509641
0.00011498853
0.0001148744
0.00011475546
0.00011463343
0.0001145101
0.00011438734
0.00011426708
0.00011415122
0.00011404179
0.00011394059
0.00011384947
0.00011377017
0.00011370429
0.00011365326
0.00011361851
0.00011360106
0.0001136019
0.00011362176
0.0001136612
0.00011372049
0.00011376937
0.00011382968
0.00011390165
0.0001139827
0.00011408311
0.00011420236
0.00011433989
0.00011449506
0.000114667
0.00011485472
0.00011505708
0.00011527279
0.00011550062
0.00011573902
0.00011598654
0.00011624166
0.00011650283
0.00011676852
0.00011703717
0.0001173074
0.00011757766
0.00011784661
0.00011811297
0.00011837549
0.00011863301
0.00011888459
0.00011912917
0.00011936594
0.00011959412
0.00011981305
0.0001200221
0.0001202209
0.00012040892
0.00012058587
0.00012075148
0.00012090555
0.00012104794
0.0001211756
0.00012128265
0.0001213783
0.00012146275
0.00012153634
0.00012159625
0.00012163441
0.00012166258
0.00012167654
0.00011611034
0.00011602074
0.0001159488
0.00011587345
0.00011579325
0.00011571002
0.00011562285
0.00011553386
0.00011544233
0.00011535052
0.0001152578
0.00011516649
0.00011507602
0.00011498872
0.00011490404
0.00011482429
0.00011474886
0.00011468
0.00011461701
0.00011456202
0.00011451418
0.00011447548
0.00011444488
0.00011442416
0.00011441205
0.0001144101
0.0001144168
0.00011443344
0.00011445824
0.00011449222
0.00011453332
0.00011458195
0.00011463724
0.00011469717
0.00011474986
0.00011479838
0.00011485244
0.00011490958
0.00011496335
0.00011501988
0.0001150802
0.0001151418
0.00011520439
0.00011526629
0.00011532135
0.00011536647
0.00011540379
0.00011540826
0.00011540074
0.0001153809
0.00011534857
0.00011530381
0.00011524684
0.00011517826
0.00011509867
0.00011500902
0.00011491043
0.00011480421
0.00011469177
0.00011457485
0.00011445505
0.00011433424
0.00011421432
0.00011409721
0.00011398485
0.00011387912
0.000113782
0.00011369519
0.00011362042
0.00011355926
0.00011351314
0.0001134833
0.00011347094
0.00011347684
0.00011350174
0.00011354616
0.00011361037
0.00011365662
0.0001136722
0.00011369844
0.00011374409
0.00011380941
0.00011389449
0.00011399918
0.0001141231
0.00011426572
0.00011442631
0.00011460396
0.00011479761
0.00011500603
0.00011522801
0.00011546204
0.00011570665
0.00011596031
0.00011622145
0.00011648847
0.00011675977
0.00011703389
0.00011730922
0.00011758432
0.00011785782
0.0001181284
0.0001183948
0.00011865599
0.00011891081
0.00011915837
0.00011939781
0.00011962837
0.00011984937
0.00012006035
0.00012026071
0.00012045009
0.00012062817
0.00012079469
0.00012094943
0.00012109238
0.00012122334
0.00012134235
0.00012144932
0.00012154401
0.00012162288
0.00012167587
0.00012172008
0.00012172589
0.00011594271
0.00011584629
0.00011576672
0.0001156838
0.00011559664
0.00011550731
0.00011541504
0.00011532206
0.00011522772
0.00011513436
0.00011504138
0.00011495115
0.00011486309
0.00011477955
0.00011469993
0.00011462651
0.00011455862
0.00011449844
0.00011444518
0.00011440088
0.00011436457
0.00011433812
0.00011432036
0.00011431293
0.00011431445
0.00011432632
0.00011434688
0.00011437727
0.0001144156
0.00011446273
0.00011451648
0.00011457712
0.00011463553
0.00011467602
0.00011471125
0.00011474466
0.00011478633
0.00011483414
0.00011488877
0.00011494782
0.00011501175
0.00011507805
0.00011514645
0.00011521524
0.00011528315
0.00011534878
0.00011540998
0.00011543724
0.00011542079
0.00011539113
0.00011534824
0.00011529235
0.00011522388
0.00011514364
0.00011505243
0.00011495142
0.00011484193
0.00011472546
0.00011460366
0.00011447842
0.00011435154
0.00011422502
0.0001141009
0.00011398121
0.00011386799
0.00011376317
0.00011366877
0.00011358651
0.0001135181
0.00011346507
0.00011342881
0.00011341046
0.00011341112
0.00011343145
0.00011347205
0.00011353327
0.00011360773
0.00011359657
0.00011358465
0.00011359182
0.00011361885
0.00011366619
0.00011373408
0.00011382253
0.00011393131
0.00011406
0.00011420796
0.00011437438
0.00011455825
0.00011475838
0.00011497359
0.00011520235
0.00011544321
0.00011569459
0.00011595488
0.00011622242
0.00011649554
0.00011677272
0.00011705225
0.00011733263
0.00011761237
0.00011789008
0.0001181644
0.00011843422
0.00011869829
0.00011895563
0.0001192053
0.00011944647
0.00011967839
0.00011990051
0.00012011219
0.00012031299
0.00012050254
0.00012068052
0.00012084664
0.00012100084
0.00012114287
0.00012127264
0.00012138999
0.00012149462
0.00012158641
0.00012166234
0.00012172902
0.00012173988
0.00011589001
0.00011578851
0.00011570387
0.00011561579
0.00011552361
0.00011542955
0.00011533294
0.0001152361
0.00011513843
0.00011504231
0.00011494722
0.00011485554
0.00011476675
0.00011468322
0.00011460436
0.00011453247
0.00011446689
0.00011440978
0.00011436034
0.00011432058
0.00011428951
0.00011426894
0.00011425768
0.00011425729
0.00011426632
0.0001142861
0.00011431491
0.00011435377
0.00011440071
0.00011445647
0.00011451878
0.00011457696
0.00011460408
0.00011461595
0.00011463795
0.00011466835
0.00011470818
0.00011475538
0.00011481069
0.00011487176
0.00011493905
0.00011501005
0.00011508446
0.00011516052
0.00011523687
0.00011531202
0.00011538441
0.00011544845
0.00011544306
0.00011540381
0.00011535052
0.00011528357
0.00011520357
0.00011511152
0.00011500841
0.00011489562
0.00011477469
0.00011464733
0.00011451538
0.00011438093
0.00011424596
0.00011411266
0.0001139832
0.00011385975
0.00011374444
0.00011363932
0.00011354645
0.00011346758
0.00011340445
0.00011335856
0.00011333125
0.00011332361
0.00011333664
0.00011337089
0.00011342682
0.00011350464
0.00011356355
0.0001135135
0.00011348194
0.00011346983
0.00011347813
0.00011350748
0.00011355826
0.00011363065
0.00011372456
0.00011383968
0.00011397546
0.00011413116
0.00011430582
0.00011449828
0.00011470736
0.00011493154
0.00011516933
0.00011541912
0.00011567924
0.00011594796
0.00011622355
0.0001165044
0.00011678871
0.0001170749
0.00011736139
0.00011764668
0.00011792934
0.00011820815
0.0001184818
0.00011874922
0.00011900938
0.0001192614
0.00011950443
0.00011973789
0.00011996105
0.00012017342
0.00012037458
0.00012056414
0.00012074178
0.00012090735
0.00012106054
0.0001212012
0.00012132906
0.0001214438
0.00012154527
0.00012162861
0.00012170225
0.00012172911
0.00011584568
0.00011573859
0.00011564873
0.00011555551
0.00011545832
0.00011535948
0.00011525839
0.00011515743
0.00011505608
0.00011495677
0.00011485902
0.00011476527
0.00011467503
0.00011459071
0.00011451177
0.00011444052
0.00011437631
0.00011432132
0.00011427475
0.0001142386
0.00011421188
0.00011419637
0.00011419083
0.00011419679
0.00011421275
0.00011423997
0.00011427663
0.0001143237
0.00011437909
0.00011444345
0.00011451437
0.0001145345
0.00011453138
0.00011453803
0.00011455589
0.00011458332
0.0001146214
0.00011466818
0.00011472441
0.00011478781
0.00011485883
0.00011493495
0.00011501583
0.00011509967
0.000115185
0.00011527024
0.00011535367
0.00011543373
0.00011546538
0.00011541647
0.00011535261
0.00011527436
0.00011518248
0.00011507817
0.00011496264
0.00011483748
0.00011470443
0.00011456544
0.00011442255
0.00011427806
0.00011413415
0.00011399317
0.00011385747
0.00011372936
0.0001136111
0.00011350482
0.00011341266
0.00011333643
0.00011327787
0.0001132385
0.00011321961
0.00011322224
0.0001132473
0.00011329523
0.00011336637
0.00011346076
0.00011348708
0.00011341671
0.00011336509
0.00011333338
0.00011332274
0.000113334
0.0001133677
0.00011342418
0.00011350345
0.00011360533
0.00011372935
0.00011387482
0.00011404082
0.00011422621
0.00011442981
0.00011465008
0.00011488549
0.00011513437
0.00011539499
0.00011566556
0.00011594425
0.00011622935
0.000116519
0.0001168115
0.00011710519
0.00011739847
0.00011768981
0.00011797792
0.0001182614
0.00011853908
0.00011880989
0.00011907285
0.00011932706
0.00011957187
0.0001198065
0.00012003043
0.00012024315
0.00012044426
0.00012063336
0.0001208103
0.00012097469
0.00012112633
0.00012126492
0.00012139016
0.00012150182
0.00012159339
0.00012167603
0.00012171414
0.00011580041
0.00011568782
0.00011559247
0.00011549381
0.0001153913
0.00011528732
0.00011518135
0.00011507584
0.00011497034
0.00011486732
0.00011476639
0.00011467001
0.00011457777
0.00011449211
0.00011441252
0.00011434134
0.00011427797
0.0001142246
0.00011418043
0.00011414748
0.00011412473
0.00011411395
0.00011411389
0.00011412602
0.00011414879
0.00011418341
0.00011422799
0.0001142834
0.00011434746
0.00011442071
0.00011447519
0.0001144572
0.0001144478
0.00011444921
0.00011446298
0.00011448754
0.00011452409
0.00011457072
0.00011462825
0.00011469441
0.00011476966
0.00011485147
0.00011493945
0.00011503172
0.00011512675
0.0001152228
0.00011531804
0.00011541072
0.00011548486
0.00011542971
0.00011535514
0.0001152653
0.00011516117
0.00011504412
0.00011491559
0.00011477738
0.00011463147
0.00011448003
0.00011432532
0.00011416987
0.00011401606
0.00011386644
0.00011372354
0.00011358982
0.00011346767
0.00011335935
0.00011326708
0.00011319272
0.00011313806
0.00011310461
0.00011309365
0.00011310615
0.00011314297
0.00011320444
0.00011329075
0.00011340181
0.00011339819
0.00011330691
0.00011323474
0.00011318306
0.00011315324
0.00011314627
0.00011316289
0.00011320356
0.00011326843
0.00011335739
0.00011347007
0.00011360582
0.00011376375
0.00011394272
0.00011414154
0.00011435864
0.00011459242
0.00011484116
0.00011510305
0.00011537622
0.00011565873
0.00011594881
0.00011624446
0.0001165439
0.00011684536
0.00011714716
0.00011744767
0.00011774551
0.00011803918
0.00011832746
0.00011860919
0.00011888332
0.0001191489
0.00011940522
0.00011965144
0.00011988698
0.0001201113
0.00012032396
0.00012052451
0.00012071276
0.00012088829
0.00012105085
0.00012120014
0.00012133589
0.00012145779
0.00012155801
0.00012165068
0.00012170041
0.00011575301
0.00011563437
0.00011553311
0.00011542862
0.00011532039
0.00011521088
0.00011509962
0.00011498914
0.00011487905
0.0001147719
0.00011466733
0.00011456789
0.00011447322
0.00011438578
0.00011430514
0.00011423368
0.0001141708
0.00011411874
0.00011407671
0.00011404673
0.00011402779
0.00011402165
0.00011402701
0.00011404534
0.00011407503
0.00011411721
0.00011416994
0.00011423401
0.00011430713
0.00011438973
0.00011439895
0.0001143705
0.0001143547
0.0001143508
0.00011436047
0.00011438224
0.0001144174
0.0001144641
0.00011452322
0.00011459251
0.00011467242
0.00011476042
0.00011485607
0.00011495741
0.0001150628
0.00011517039
0.00011527819
0.00011538426
0.00011548641
0.0001154449
0.00011535935
0.00011525755
0.00011514067
0.00011501028
0.00011486805
0.00011471601
0.00011455638
0.00011439157
0.00011422407
0.00011405665
0.00011389191
0.00011373262
0.00011358148
0.00011344113
0.00011331413
0.00011320283
0.00011310959
0.00011303631
0.00011298484
0.00011295671
0.00011295318
0.0001129752
0.00011302352
0.0001130984
0.00011319988
0.00011332775
0.00011329734
0.00011318444
0.00011309113
0.00011301901
0.00011296966
0.00011294427
0.00011294372
0.00011296863
0.00011301925
0.00011309559
0.00011319732
0.00011332382
0.00011347424
0.00011364742
0.00011384214
0.00011405678
0.00011428968
0.00011453904
0.00011480297
0.00011507948
0.00011536655
0.00011566229
0.0001159646
0.0001162716
0.0001165814
0.00011689223
0.00011720236
0.00011751032
0.00011781454
0.00011811372
0.00011840661
0.00011869213
0.00011896925
0.0001192372
0.00011949511
0.00011974235
0.00011997835
0.00012020261
0.00012041468
0.00012061431
0.00012080105
0.00012097465
0.0001211348
0.00012128122
0.00012141357
0.00012152286
0.00012162613
0.00012168749
0.00011570412
0.00011557926
0.00011547173
0.000115361
0.00011524663
0.00011513112
0.0001150141
0.00011489814
0.00011478295
0.00011467112
0.0001145624
0.00011445936
0.00011436172
0.00011427201
0.00011418983
0.00011411761
0.0001140548
0.00011400365
0.00011396342
0.00011393613
0.00011392077
0.00011391908
0.00011392978
0.00011395427
0.00011399093
0.00011404081
0.00011410191
0.00011417494
0.0001142575
0.00011434398
0.00011430962
0.00011427352
0.00011425111
0.00011424179
0.00011424731
0.00011426634
0.00011430024
0.00011434724
0.00011440825
0.00011448107
0.00011456613
0.00011466089
0.00011476485
0.00011487598
0.00011499251
0.00011511247
0.00011523369
0.00011535404
0.00011547113
0.0001154626
0.00011536576
0.00011525157
0.00011512138
0.00011497699
0.00011482028
0.00011465354
0.00011447924
0.00011430003
0.00011411869
0.0001139382
0.00011376142
0.00011359133
0.00011343085
0.00011328281
0.00011314992
0.00011303469
0.00011293958
0.0001128666
0.00011281762
0.00011279423
0.00011279768
0.00011282886
0.0001128885
0.00011297672
0.00011309347
0.00011323836
0.00011318488
0.00011304958
0.00011293445
0.00011284136
0.00011277208
0.000112728
0.00011271017
0.00011271933
0.00011275586
0.00011281984
0.000112911
0.00011302876
0.00011317226
0.00011334031
0.00011353167
0.00011374462
0.00011397746
0.00011422827
0.00011449506
0.00011477575
0.00011506819
0.00011537036
0.00011568007
0.0001159953
0.00011631408
0.00011663452
0.0001169548
0.00011727335
0.00011758853
0.00011789894
0.0001182033
0.00011850043
0.00011878927
0.00011906899
0.00011933869
0.00011959769
0.00011984539
0.00012008126
0.00012030482
0.00012051581
0.00012071375
0.00012089838
0.00012106941
0.00012122657
0.00012136952
0.00012148812
0.00012160225
0.00012167511
0.0001156538
0.00011552226
0.00011540804
0.00011529065
0.00011516969
0.00011504772
0.00011492445
0.00011480252
0.00011468171
0.0001145647
0.00011445129
0.00011434415
0.00011424304
0.00011415056
0.00011406638
0.00011399297
0.00011392984
0.00011387926
0.00011384052
0.00011381566
0.0001138037
0.00011380636
0.00011382235
0.00011385304
0.00011389678
0.00011395456
0.00011402432
0.00011410667
0.00011419912
0.00011426877
0.0001142107
0.00011416663
0.00011413737
0.00011412244
0.00011412373
0.00011414001
0.00011417273
0.0001142202
0.00011428337
0.00011436008
0.00011445076
0.00011455284
0.00011466575
0.00011478739
0.00011491587
0.00011504906
0.00011518462
0.00011532022
0.00011545321
0.00011548381
0.00011537529
0.00011524818
0.00011510403
0.00011494485
0.00011477279
0.00011459037
0.00011440033
0.00011420561
0.00011400924
0.00011381448
0.00011362444
0.00011344234
0.00011327133
0.00011311445
0.00011297458
0.0001128544
0.00011275649
0.00011268296
0.00011263577
0.00011261651
0.00011262647
0.00011266651
0.00011273728
0.00011283884
0.00011297098
0.00011313319
0.00011306088
0.00011290227
0.00011276457
0.00011264987
0.00011256018
0.00011249707
0.00011246177
0.00011245515
0.0001124777
0.00011252956
0.00011261053
0.00011272003
0.00011285718
0.00011302079
0.00011320951
0.00011342158
0.00011365518
0.0001139083
0.00011417882
0.00011446453
0.00011476316
0.00011507258
0.00011539044
0.00011571463
0.00011604305
0.0001163737
0.00011670467
0.0001170343
0.00011736086
0.00011768288
0.00011799901
0.00011830802
0.00011860879
0.00011890046
0.00011918208
0.00011945294
0.00011971241
0.00011995995
0.00012019504
0.0001204174
0.00012062657
0.00012082228
0.00012100423
0.00012117218
0.00012132581
0.00012145388
0.00012157895
0.00012166314
0.00011560247
0.00011546396
0.00011534264
0.00011521813
0.00011509008
0.00011496113
0.00011483107
0.00011470261
0.00011457561
0.00011445283
0.00011433416
0.00011422233
0.00011411719
0.00011402141
0.00011393471
0.00011385962
0.00011379571
0.0001137453
0.00011370771
0.00011368501
0.00011367622
0.0001136831
0.00011370431
0.00011374123
0.00011379215
0.00011385804
0.00011393675
0.00011402882
0.00011413166
0.00011416918
0.00011410171
0.00011404928
0.00011401284
0.00011399208
0.000113989
0.00011400248
0.00011403408
0.00011408218
0.0001141478
0.00011422878
0.00011432556
0.00011443554
0.00011455811
0.00011469104
0.00011483234
0.00011497972
0.00011513063
0.00011528254
0.00011543255
0.00011550925
0.00011538862
0.00011524799
0.00011508914
0.00011491431
0.00011472589
0.0001145267
0.00011431976
0.00011410829
0.00011389561
0.00011368528
0.00011348066
0.00011328526
0.00011310245
0.00011293551
0.00011278751
0.00011266131
0.00011255963
0.0001124847
0.00011243855
0.00011242285
0.00011243888
0.00011248748
0.00011256927
0.00011268421
0.00011283193
0.00011301183
0.00011292553
0.00011274261
0.00011258147
0.00011244445
0.00011233379
0.00011225126
0.00011219825
0.00011217578
0.00011218443
0.00011222441
0.00011229556
0.00011239729
0.00011252872
0.00011268857
0.00011287545
0.00011308748
0.00011332273
0.00011357907
0.00011385424
0.00011414589
0.00011445162
0.00011476913
0.00011509597
0.00011542988
0.00011576865
0.00011611016
0.0001164524
0.00011679362
0.000117132
0.00011746601
0.00011779423
0.00011811539
0.0001184283
0.00011873207
0.00011902572
0.00011930852
0.00011957981
0.00011983903
0.00012008566
0.0001203194
0.00012053979
0.00012074656
0.00012093944
0.0001211182
0.00012128257
0.00012142015
0.00012155614
0.00012165149
0.00011555033
0.0001154044
0.00011527555
0.00011514343
0.00011500779
0.00011487133
0.00011473391
0.00011459834
0.00011446456
0.00011433542
0.00011421089
0.00011409378
0.00011398403
0.00011388438
0.00011379463
0.00011371738
0.00011365225
0.0001136016
0.00011356483
0.000113544
0.0001135382
0.00011354915
0.00011357554
0.00011361874
0.000113677
0.00011375122
0.00011383923
0.00011394145
0.00011405522
0.00011406005
0.00011398265
0.0001139214
0.00011387741
0.00011385051
0.00011384285
0.00011385345
0.00011388393
0.00011393279
0.00011400109
0.00011408669
0.00011419006
0.00011430856
0.00011444149
0.00011458654
0.00011474159
0.00011490417
0.00011507154
0.00011524092
0.00011540915
0.00011553986
0.00011540659
0.00011525176
0.00011507736
0.0001148859
0.00011468003
0.00011446287
0.00011423773
0.00011400816
0.00011377777
0.00011355043
0.00011332981
0.00011311969
0.00011292372
0.0001127454
0.00011258805
0.00011245469
0.00011234822
0.00011227098
0.00011222513
0.00011221237
0.00011223402
0.00011229092
0.00011238363
0.00011251202
0.0001126756
0.00011287363
0.00011277873
0.00011257039
0.00011238484
0.0001122247
0.00011209243
0.00011199002
0.00011191902
0.00011188057
0.00011187538
0.00011190371
0.0001119654
0.00011205988
0.0001121862
0.00011234304
0.00011252889
0.00011274177
0.00011297961
0.00011324013
0.00011352092
0.00011381948
0.00011413324
0.00011445977
0.00011479646
0.0001151409
0.00011549076
0.00011584382
0.00011619795
0.0001165513
0.00011690198
0.0001172484
0.00011758905
0.00011792263
0.00011824791
0.00011856397
0.00011886979
0.00011916462
0.00011944778
0.00011971871
0.00011997689
0.000120222
0.00012045359
0.00012067141
0.0001208752
0.00012106476
0.00012123987
0.00012138694
0.00012153379
0.00012164011
0.00011549773
0.00011534399
0.00011520713
0.00011506689
0.0001149231
0.00011477854
0.00011463316
0.00011448985
0.00011434865
0.00011421249
0.00011408145
0.00011395843
0.00011384344
0.00011373932
0.00011364595
0.000113566
0.00011349916
0.00011344785
0.00011341152
0.00011339227
0.00011338922
0.00011340411
0.00011343565
0.00011348517
0.00011355091
0.00011363374
0.0001137314
0.00011384427
0.00011396955
0.00011394109
0.00011385316
0.00011378256
0.00011373057
0.00011369719
0.0001136847
0.00011369226
0.00011372161
0.00011377133
0.00011384253
0.00011393313
0.00011404359
0.00011417121
0.00011431527
0.00011447333
0.00011464313
0.00011482202
0.00011500704
0.00011519516
0.00011538294
0.00011556003
0.00011543007
0.00011526027
0.00011506939
0.00011486021
0.00011463567
0.0001143992
0.00011415444
0.00011390527
0.00011365565
0.00011340976
0.0001131716
0.00011294525
0.00011273464
0.00011254355
0.00011237553
0.00011223381
0.00011212147
0.000112041
0.00011199466
0.00011198424
0.00011201108
0.00011207602
0.0001121796
0.00011232158
0.00011250135
0.00011271801
0.00011262053
0.00011238554
0.00011217451
0.00011199034
0.00011183575
0.00011171292
0.00011162359
0.00011156903
0.00011155002
0.0001115669
0.00011161951
0.00011170726
0.00011182914
0.00011198374
0.00011216943
0.0001123841
0.00011262553
0.00011289126
0.00011317871
0.00011348521
0.00011380801
0.00011414452
0.00011449196
0.0001148478
0.00011520955
0.00011557487
0.00011594153
0.00011630759
0.00011667107
0.0001170303
0.00011738375
0.00011773004
0.00011806791
0.00011839642
0.00011871453
0.00011902147
0.00011931656
0.00011959922
0.00011986893
0.0001201254
0.00012036816
0.00012059699
0.00012081165
0.00012101197
0.00012119777
0.00012135427
0.00012151186
0.00012162896
0.00011544495
0.00011528292
0.00011513755
0.00011498866
0.00011483614
0.00011468286
0.00011452888
0.00011437716
0.00011422786
0.00011408401
0.00011394578
0.00011381616
0.00011369529
0.00011358607
0.00011348848
0.00011340527
0.00011333621
0.00011328379
0.00011324751
0.00011322954
0.00011322902
0.00011324772
0.00011328435
0.00011334026
0.00011341366
0.00011350537
0.00011361309
0.0001137371
0.00011387453
0.00011381219
0.00011371305
0.00011363249
0.00011357198
0.00011353168
0.00011351405
0.00011351837
0.00011354652
0.00011359715
0.00011367147
0.00011376742
0.00011388545
0.00011402286
0.00011417883
0.00011435084
0.00011453645
0.00011473283
0.0001149368
0.00011514505
0.00011535383
0.00011555937
0.00011546
0.00011527436
0.00011506595
0.00011483784
0.00011459328
0.00011433603
0.0001140701
0.00011379971
0.00011352918
0.00011326306
0.00011300568
0.00011276146
0.00011253464
0.00011232928
0.00011214919
0.00011199783
0.00011187848
0.0001117938
0.00011174616
0.00011173744
0.00011176903
0.00011184179
0.0001119562
0.00011211196
0.00011230831
0.00011254422
0.00011245079
0.00011218779
0.00011195009
0.00011174089
0.00011156317
0.00011141933
0.00011131127
0.00011124041
0.00011120761
0.00011121324
0.00011125716
0.00011133873
0.00011145687
0.00011161005
0.00011179651
0.00011201397
0.00011226004
0.00011253207
0.00011282729
0.00011314283
0.00011347574
0.00011382326
0.00011418245
0.00011455058
0.00011492506
0.00011530341
0.00011568328
0.00011606264
0.00011643944
0.00011681193
0.00011717853
0.00011753783
0.00011788854
0.00011822967
0.00011856019
0.00011887932
0.00011918637
0.00011948077
0.000119762
0.00012002977
0.00012028366
0.00012052343
0.0001207489
0.00012095991
0.00012115633
0.00012132214
0.00012149034
0.00012161803
0.00011539235
0.00011522158
0.00011506717
0.00011490903
0.00011474716
0.0001145845
0.00011442122
0.00011426039
0.00011410226
0.00011394998
0.00011380382
0.00011366689
0.00011353942
0.00011342442
0.00011332197
0.0001132349
0.00011316308
0.00011310908
0.00011307244
0.00011305542
0.00011305717
0.00011307953
0.00011312122
0.00011318358
0.00011326481
0.00011336571
0.00011348392
0.00011361965
0.00011376991
0.00011367312
0.000113562
0.00011347079
0.00011340115
0.00011335345
0.0001133303
0.00011333113
0.00011335796
0.00011340955
0.00011348716
0.0001135888
0.00011371492
0.00011386279
0.00011403151
0.00011421846
0.00011442103
0.00011463619
0.00011486052
0.00011509041
0.00011532179
0.00011555053
0.00011549746
0.00011529501
0.00011506791
0.00011481952
0.00011455346
0.00011427382
0.00011398501
0.00011369162
0.00011339837
0.00011311019
0.00011283179
0.00011256793
0.0001123232
0.00011210196
0.0001119083
0.00011174595
0.00011161838
0.00011152845
0.00011147866
0.00011147099
0.0001115069
0.00011158725
0.0001117125
0.00011188229
0.00011209568
0.00011235152
0.00011226941
0.00011197691
0.00011171124
0.00011147591
0.00011127417
0.00011110864
0.00011098141
0.00011089403
0.00011084743
0.00011084202
0.00011087765
0.00011095362
0.00011106876
0.0001112214
0.00011140962
0.00011163095
0.0001118828
0.0001121623
0.00011246647
0.00011279221
0.00011313639
0.00011349601
0.00011386796
0.00011424937
0.00011463746
0.00011502962
0.00011542341
0.0001158167
0.00011620735
0.00011659355
0.00011697368
0.00011734628
0.00011771005
0.00011806399
0.00011840703
0.00011873841
0.00011905745
0.00011936358
0.00011965629
0.00011993532
0.00012020025
0.00012045089
0.00012068706
0.00012090866
0.00012111559
0.00012129057
0.00012146922
0.00012160732
0.00011534033
0.00011516028
0.00011499625
0.00011482825
0.00011465636
0.00011448363
0.00011431031
0.00011413961
0.00011397189
0.00011381039
0.00011365553
0.00011351052
0.00011337571
0.00011325421
0.00011314622
0.00011305467
0.00011297952
0.00011292341
0.00011288598
0.00011286954
0.00011287333
0.00011289919
0.00011294588
0.00011301476
0.00011310403
0.00011321444
0.00011334359
0.00011349163
0.00011365546
0.00011352369
0.00011339974
0.00011329711
0.00011321767
0.00011316198
0.00011313285
0.00011312989
0.00011315523
0.00011320776
0.00011328883
0.00011339649
0.00011353121
0.00011369023
0.00011387258
0.00011407551
0.00011429626
0.00011453159
0.00011477779
0.00011503097
0.0001152867
0.00011554045
0.00011554359
0.00011532325
0.00011507616
0.00011480603
0.00011451682
0.00011421304
0.00011389947
0.00011358115
0.00011326321
0.00011295099
0.0001126496
0.0001123642
0.00011209972
0.00011186087
0.00011165205
0.00011147725
0.00011134019
0.0001112439
0.00011119107
0.00011118378
0.00011122357
0.00011131131
0.00011144743
0.00011163153
0.00011186249
0.00011213902
0.00011207617
0.00011175255
0.00011145747
0.0001111948
0.00011096806
0.00011078011
0.00011063322
0.00011052905
0.00011046864
0.00011045241
0.00011048018
0.00011055117
0.0001106641
0.00011081714
0.00011100818
0.00011123454
0.00011149339
0.00011178162
0.00011209601
0.00011243322
0.00011278987
0.00011316276
0.00011354858
0.00011394427
0.00011434689
0.00011475372
0.00011516217
0.00011557003
0.00011597508
0.00011637546
0.00011676949
0.0001171557
0.00011753275
0.00011789964
0.00011825532
0.00011859901
0.00011893005
0.00011924788
0.00011955202
0.00011984223
0.00012011811
0.0001203795
0.00012062626
0.00012085832
0.00012107561
0.0001212596
0.00012144851
0.00012159682
0.0001152893
0.00011509944
0.00011492519
0.00011474666
0.00011456404
0.00011438048
0.00011419635
0.00011401496
0.00011383681
0.00011366527
0.00011350087
0.00011334696
0.00011320401
0.00011307525
0.000112961
0.00011286428
0.00011278517
0.00011272641
0.00011268773
0.0001126715
0.00011267703
0.00011270622
0.00011275787
0.00011283334
0.00011293083
0.0001130511
0.00011319169
0.00011335266
0.00011352085
0.0001133637
0.00011322595
0.00011311103
0.00011302101
0.0001129567
0.00011292107
0.00011291393
0.00011293756
0.00011299099
0.00011307565
0.00011318966
0.00011333349
0.00011350438
0.00011370128
0.00011392131
0.00011416155
0.00011441853
0.00011468826
0.00011496652
0.0001152485
0.00011552926
0.00011559967
0.00011536026
0.00011509177
0.00011479827
0.00011448411
0.00011415423
0.00011381387
0.00011346851
0.00011312373
0.00011278532
0.00011245882
0.00011214981
0.00011186362
0.00011160531
0.00011137962
0.00011119082
0.00011104289
0.0001109391
0.00011088229
0.00011087469
0.00011091789
0.00011101282
0.0001111599
0.00011135864
0.00011160779
0.00011190587
0.0001118709
0.00011151436
0.00011118831
0.00011089697
0.00011064415
0.00011043296
0.00011026585
0.00011014463
0.00011007038
0.00011004354
0.0001100639
0.00011013058
0.00011024216
0.00011039662
0.00011059163
0.00011082427
0.00011109143
0.00011138975
0.00011171571
0.00011206573
0.00011243616
0.00011282356
0.00011322441
0.00011363546
0.0001140536
0.00011447596
0.00011489984
0.00011532294
0.00011574295
0.00011615798
0.0001165663
0.0001169664
0.00011735696
0.00011773696
0.00011810536
0.00011846139
0.00011880442
0.00011913391
0.00011944941