/*--------------------------------*- C++ -*----------------------------------*\
| =========                 |                                                 |
| \\      /  F ield         | foam-extend: Open Source CFD                    |
|  \\    /   O peration     | Version:     4.1                                |
|   \\  /    A nd           | Web:         http://www.foam-extend.org         |
|    \\/     M anipulation  |                                                 |
\*---------------------------------------------------------------------------*/
FoamFile
{
    version     2.0;
    format      ascii;
    class       volVectorField;
    location    "0.5";
    object      U;
}
// * * * * * * * * * * * * * * * * * * * * * * * * * * * * * * * * * * * * * //

dimensions      [0 1 -1 0 0 0 0];

internalField   nonuniform List<vector> 
16796
(
(138.78899 -0.1662495 0)
(139.40364 -0.1837583 0)
(139.809 -0.17868811 0)
(140.26726 -0.17447753 0)
(140.69345 -0.16684395 0)
(141.1027 -0.15780435 0)
(141.48347 -0.14728937 0)
(141.83272 -0.13569448 0)
(142.146 -0.12327951 0)
(142.42022 -0.11036273 0)
(142.653 -0.097276794 0)
(142.84287 -0.084380237 0)
(142.98935 -0.072048306 0)
(143.09293 -0.06066712 0)
(143.15506 -0.050612178 0)
(143.17813 -0.042086222 0)
(143.16541 -0.034659444 0)
(143.11953 -0.027119031 0)
(143.0412 -0.018632635 0)
(142.93219 -0.0093491612 0)
(142.79508 0.00022178748 0)
(142.63336 0.0094904716 0)
(142.4514 0.017863102 0)
(142.25429 0.024791419 0)
(142.04774 0.029792897 0)
(141.83794 0.032455359 0)
(141.63142 0.032436061 0)
(141.43494 0.029459558 0)
(141.25542 0.023317989 0)
(141.09978 0.013878959 0)
(140.97491 0.0011078494 0)
(140.88748 -0.014882009 0)
(140.84375 -0.033701226 0)
(140.84936 -0.054276267 0)
(140.90806 -0.074584791 0)
(141.01868 -0.093397999 0)
(141.18069 -0.11099691 0)
(141.39348 -0.12779876 0)
(141.65634 -0.14398715 0)
(141.96821 -0.15959619 0)
(142.32761 -0.17455657 0)
(142.73257 -0.1887456 0)
(143.18056 -0.20202007 0)
(143.66859 -0.21423601 0)
(144.19319 -0.22525884 0)
(144.75046 -0.23496921 0)
(145.33615 -0.24326602 0)
(145.94571 -0.25006819 0)
(146.57437 -0.25531583 0)
(147.21715 -0.25897077 0)
(147.86901 -0.26101684 0)
(148.52486 -0.26145959 0)
(149.17964 -0.26032568 0)
(149.82839 -0.25766188 0)
(150.46632 -0.25353368 0)
(151.08884 -0.24802355 0)
(151.69164 -0.24122893 0)
(152.27072 -0.23325993 0)
(152.82241 -0.22423679 0)
(153.34345 -0.21428723 0)
(153.83097 -0.2035436 0)
(154.28253 -0.19214003 0)
(154.6961 -0.18020948 0)
(155.07009 -0.1678809 0)
(155.40333 -0.15527643 0)
(155.69505 -0.14250873 0)
(155.94486 -0.12967838 0)
(156.15273 -0.1168713 0)
(156.31896 -0.10415565 0)
(156.44415 -0.091577526 0)
(156.52912 -0.079153521 0)
(156.57492 -0.066842698 0)
(156.58268 -0.054450411 0)
(156.5537 -0.041550486 0)
(156.48777 -0.028225441 0)
(156.38613 -0.015122101 0)
(156.25068 -0.002677877 0)
(156.0837 0.008902083 0)
(155.88768 0.019506403 0)
(155.66528 0.029073848 0)
(155.41923 0.037567379 0)
(155.15238 0.044964049 0)
(154.86757 0.051250975 0)
(154.56773 0.056423892 0)
(154.25576 0.060486867 0)
(153.93457 0.063452431 0)
(153.60704 0.065341843 0)
(153.27599 0.066185291 0)
(152.94415 0.066021941 0)
(152.61417 0.06489978 0)
(152.28856 0.062875169 0)
(151.96968 0.060012192 0)
(151.65972 0.056381745 0)
(151.3607 0.052060384 0)
(151.07441 0.047129045 0)
(150.80244 0.041671634 0)
(150.54618 0.03577359 0)
(150.30676 0.029520411 0)
(150.08512 0.02299629 0)
(149.88195 0.016282857 0)
(149.69775 0.0094579973 0)
(149.53282 0.0025948637 0)
(149.38727 -0.0042389648 0)
(149.26102 -0.010982213 0)
(149.15387 -0.017580438 0)
(149.06545 -0.02398634 0)
(148.99531 -0.030159847 0)
(148.94287 -0.036067708 0)
(148.9075 -0.041682689 0)
(148.88851 -0.046980849 0)
(148.88518 -0.05193218 0)
(148.89674 -0.056518617 0)
(148.92232 -0.060789447 0)
(148.96127 -0.064790831 0)
(149.01295 -0.068521059 0)
(149.07674 -0.071966732 0)
(149.15205 -0.07509707 0)
(149.2383 -0.077852674 0)
(149.33486 -0.080130176 0)
(149.44075 -0.081753593 0)
(149.55476 -0.082238638 0)
(149.67836 -0.08057997 0)
(149.80679 -0.077619386 0)
(149.88883 -0.070303491 0)
(158.49773 -0.38995107 0)
(158.913 -0.42406225 0)
(159.17186 -0.41891328 0)
(159.46489 -0.41047911 0)
(159.72993 -0.39306073 0)
(159.97685 -0.36985634 0)
(160.19587 -0.34109841 0)
(160.38347 -0.30763617 0)
(160.53512 -0.27014987 0)
(160.64736 -0.22942216 0)
(160.71731 -0.18627992 0)
(160.74283 -0.14160741 0)
(160.72254 -0.096328204 0)
(160.65583 -0.051366729 0)
(160.5429 -0.0075560155 0)
(160.38446 0.034339592 0)
(160.18183 0.073737741 0)
(159.93881 0.11042986 0)
(159.66242 0.14408143 0)
(159.35964 0.17398874 0)
(159.0374 0.19948012 0)
(158.70243 0.21999791 0)
(158.36117 0.23509071 0)
(158.01973 0.24441791 0)
(157.68388 0.24774545 0)
(157.35903 0.24493817 0)
(157.05013 0.23595095 0)
(156.76167 0.22081943 0)
(156.49764 0.1996504 0)
(156.26145 0.17261645 0)
(156.05596 0.13995673 0)
(155.88347 0.1019934 0)
(155.74575 0.059194457 0)
(155.64407 0.01244652 0)
(155.58057 -0.036655905 0)
(155.56083 -0.086749141 0)
(155.58772 -0.13726603 0)
(155.66266 -0.18775528 0)
(155.78595 -0.23770652 0)
(155.95694 -0.28657417 0)
(156.1743 -0.33379288 0)
(156.43605 -0.37880243 0)
(156.73964 -0.42106421 0)
(157.08205 -0.4600759 0)
(157.45978 -0.49538097 0)
(157.86891 -0.52657665 0)
(158.30519 -0.55331974 0)
(158.76405 -0.57533088 0)
(159.24071 -0.59239748 0)
(159.73021 -0.60437535 0)
(160.2275 -0.61118927 0)
(160.72747 -0.61283235 0)
(161.22507 -0.60936428 0)
(161.71532 -0.60090853 0)
(162.19341 -0.58764855 0)
(162.65472 -0.569823 0)
(163.0949 -0.54772017 0)
(163.50991 -0.52167169 0)
(163.89604 -0.4920455 0)
(164.24998 -0.45923858 0)
(164.56879 -0.42366912 0)
(164.84997 -0.38576885 0)
(165.09145 -0.34597529 0)
(165.29156 -0.30472437 0)
(165.4491 -0.26244361 0)
(165.56325 -0.21954592 0)
(165.63361 -0.17642435 0)
(165.66016 -0.1334476 0)
(165.64323 -0.090956699 0)
(165.58351 -0.049260874 0)
(165.482 -0.0086226108 0)
(165.33996 0.0307402 0)
(165.15895 0.068670126 0)
(164.94086 0.10523291 0)
(164.68944 0.14033541 0)
(164.4073 0.1735755 0)
(164.09664 0.20466569 0)
(163.75957 0.23342706 0)
(163.39822 0.25972773 0)
(163.01476 0.28346862 0)
(162.61146 0.30457208 0)
(162.19063 0.32297858 0)
(161.75463 0.33864578 0)
(161.30589 0.35154904 0)
(160.84684 0.36168265 0)
(160.37992 0.3690612 0)
(159.90757 0.37372096 0)
(159.43218 0.37572086 0)
(158.9561 0.37514304 0)
(158.4816 0.37209276 0)
(158.01085 0.36669757 0)
(157.5459 0.35910586 0)
(157.08868 0.3494847 0)
(156.64095 0.3380171 0)
(156.20431 0.32489881 0)
(155.78018 0.3103348 0)
(155.3698 0.29453554 0)
(154.97422 0.27771324 0)
(154.59431 0.26007822 0)
(154.23074 0.24183554 0)
(153.884 0.22318178 0)
(153.55442 0.20430228 0)
(153.24216 0.18536868 0)
(152.94724 0.16653683 0)
(152.66953 0.1479451 0)
(152.4088 0.129713 0)
(152.1647 0.11194033 0)
(151.93681 0.094706751 0)
(151.72464 0.07807198 0)
(151.52764 0.062077733 0)
(151.34525 0.046757088 0)
(151.17693 0.03213255 0)
(151.02219 0.018178597 0)
(150.88043 0.004842142 0)
(150.75101 -0.0079133764 0)
(150.63335 -0.02012334 0)
(150.52688 -0.031812271 0)
(150.43104 -0.04297635 0)
(150.34531 -0.053570141 0)
(150.26895 -0.063481382 0)
(150.20129 -0.072110602 0)
(150.1429 -0.07810352 0)
(150.0904 -0.083320092 0)
(150.03225 -0.083542409 0)
(161.62346 -0.55662211 0)
(161.91362 -0.57437611 0)
(162.05552 -0.56097267 0)
(162.21003 -0.53934474 0)
(162.32692 -0.50636006 0)
(162.41704 -0.46453142 0)
(162.47369 -0.41459358 0)
(162.49568 -0.35768071 0)
(162.48091 -0.2948773 0)
(162.42832 -0.22738377 0)
(162.33734 -0.15647889 0)
(162.20811 -0.083519341 0)
(162.04143 -0.0098931971 0)
(161.83875 0.063003454 0)
(161.60208 0.13374049 0)
(161.33442 0.20093989 0)
(161.03953 0.26314338 0)
(160.72146 0.31883063 0)
(160.38468 0.36687811 0)
(160.03404 0.40666338 0)
(159.67467 0.43776533 0)
(159.31187 0.45985866 0)
(158.95097 0.47271192 0)
(158.59732 0.47619855 0)
(158.25619 0.47031016 0)
(157.93264 0.45516465 0)
(157.63148 0.43100719 0)
(157.35719 0.39820589 0)
(157.11378 0.35724139 0)
(156.9048 0.30869549 0)
(156.73321 0.25323497 0)
(156.60138 0.19159434 0)
(156.51109 0.12453591 0)
(156.46355 0.052740716 0)
(156.45949 -0.023214463 0)
(156.49914 -0.10228785 0)
(156.58283 -0.18294863 0)
(156.71027 -0.26384487 0)
(156.88055 -0.34383238 0)
(157.09219 -0.42187617 0)
(157.3432 -0.49701312 0)
(157.63116 -0.56833857 0)
(157.95324 -0.63500438 0)
(158.30623 -0.69622882 0)
(158.68662 -0.75130577 0)
(159.09061 -0.79961487 0)
(159.51418 -0.84062984 0)
(159.95313 -0.87392507 0)
(160.40311 -0.89918038 0)
(160.85971 -0.91618382 0)
(161.31848 -0.92483274 0)
(161.77498 -0.925133 0)
(162.22487 -0.91719629 0)
(162.66391 -0.90123579 0)
(163.08802 -0.87756001 0)
(163.49336 -0.84656516 0)
(163.87631 -0.80872605 0)
(164.23357 -0.76458572 0)
(164.56212 -0.71474411 0)
(164.85931 -0.65984598 0)
(165.12283 -0.60056819 0)
(165.35074 -0.53760719 0)
(165.54148 -0.47166643 0)
(165.69386 -0.40344446 0)
(165.80702 -0.33362404 0)
(165.88049 -0.26286239 0)
(165.91411 -0.19178319 0)
(165.90802 -0.12097041 0)
(165.86265 -0.050965562 0)
(165.77871 0.017736534 0)
(165.65712 0.084691172 0)
(165.49905 0.14948077 0)
(165.30593 0.21170693 0)
(165.07929 0.27091781 0)
(164.82078 0.32684894 0)
(164.53219 0.37942959 0)
(164.21539 0.42852371 0)
(163.87235 0.47394964 0)
(163.50513 0.5155344 0)
(163.11589 0.55312568 0)
(162.70688 0.58659549 0)
(162.2804 0.61584122 0)
(161.83883 0.64078674 0)
(161.38457 0.66138411 0)
(160.92008 0.67761588 0)
(160.44779 0.68949758 0)
(159.97015 0.69707991 0)
(159.48958 0.70045041 0)
(159.00842 0.6997343 0)
(158.52897 0.6950943 0)
(158.05341 0.68672926 0)
(157.58382 0.67487181 0)
(157.12211 0.65978478 0)
(156.67008 0.6417568 0)
(156.22933 0.62109713 0)
(155.80129 0.59813002 0)
(155.38722 0.57318878 0)
(154.98817 0.54660985 0)
(154.605 0.51872697 0)
(154.23838 0.48986591 0)
(153.88882 0.46033937 0)
(153.55662 0.4304427 0)
(153.24196 0.40045005 0)
(152.94482 0.37061113 0)
(152.66507 0.34114858 0)
(152.40247 0.31225591 0)
(152.15666 0.28409594 0)
(151.92719 0.25679976 0)
(151.71356 0.23046619 0)
(151.51521 0.20516137 0)
(151.33155 0.18091754 0)
(151.16198 0.15774227 0)
(151.00589 0.13564274 0)
(150.86267 0.11461147 0)
(150.73174 0.09461441 0)
(150.61256 0.075615283 0)
(150.50458 0.057589073 0)
(150.40731 0.040542891 0)
(150.32024 0.024529898 0)
(150.24278 0.009690439 0)
(150.17456 -0.0034668618 0)
(150.11541 -0.01403614 0)
(150.06253 -0.022752175 0)
(150.01849 -0.026047471 0)
(162.13168 -0.67665437 0)
(162.38748 -0.66489183 0)
(162.50372 -0.63263424 0)
(162.62566 -0.59003778 0)
(162.70862 -0.53555072 0)
(162.76338 -0.4710767 0)
(162.78454 -0.39767494 0)
(162.77168 -0.31675527 0)
(162.72344 -0.22977707 0)
(162.63933 -0.13833633 0)
(162.51922 -0.044125197 0)
(162.36358 0.051100225 0)
(162.17342 0.1455565 0)
(161.95029 0.23744373 0)
(161.69637 0.3250411 0)
(161.41431 0.40669176 0)
(161.10724 0.48092457 0)
(160.77871 0.54647884 0)
(160.43267 0.60228999 0)
(160.0735 0.64743436 0)
(159.706 0.68109974 0)
(159.33529 0.70263482 0)
(158.96668 0.71158129 0)
(158.60556 0.70768762 0)
(158.25726 0.69091613 0)
(157.92698 0.66144112 0)
(157.6197 0.61964026 0)
(157.34003 0.56608274 0)
(157.0922 0.50151318 0)
(156.87996 0.42683889 0)
(156.70651 0.34311707 0)
(156.57449 0.25155384 0)
(156.48591 0.15350459 0)
(156.44214 0.050448769 0)
(156.44388 -0.056099495 0)
(156.4912 -0.16465905 0)
(156.5837 -0.27382672 0)
(156.72058 -0.38224765 0)
(156.90056 -0.48859836 0)
(157.12185 -0.5916091 0)
(157.38221 -0.69006945 0)
(157.67896 -0.78284123 0)
(158.00906 -0.86886663 0)
(158.36915 -0.94718214 0)
(158.75557 -1.0169279 0)
(159.16445 -1.0773577 0)
(159.59174 -1.1278477 0)
(160.03325 -1.1679028 0)
(160.48469 -1.197162 0)
(160.94174 -1.2154011 0)
(161.40006 -1.2225344 0)
(161.85535 -1.2186133 0)
(162.3034 -1.2038228 0)
(162.74013 -1.1784768 0)
(163.16161 -1.1430099 0)
(163.56413 -1.0979681 0)
(163.94421 -1.0439972 0)
(164.29861 -0.98182995 0)
(164.62443 -0.91227105 0)
(164.91906 -0.83618179 0)
(165.18024 -0.75446349 0)
(165.40604 -0.66804105 0)
(165.59491 -0.57784639 0)
(165.74563 -0.48480276 0)
(165.85734 -0.38981016 0)
(165.92954 -0.29373238 0)
(165.96202 -0.19738597 0)
(165.9549 -0.10153218 0)
(165.90858 -0.0068731464 0)
(165.82374 0.085962401 0)
(165.70126 0.17640524 0)
(165.54225 0.26398224 0)
(165.34801 0.34827328 0)
(165.11999 0.42888346 0)
(164.85978 0.50543414 0)
(164.56913 0.57756982 0)
(164.24999 0.64495746 0)
(163.90436 0.70730978 0)
(163.53436 0.76437982 0)
(163.14218 0.81595654 0)
(162.73007 0.86186225 0)
(162.30037 0.90195236 0)
(161.85546 0.93611701 0)
(161.39778 0.964284 0)
(160.9298 0.98642251 0)
(160.45399 1.0025469 0)
(159.97282 1.0127204 0)
(159.48873 1.0170572 0)
(159.00411 1.0157245 0)
(158.52127 1.0089421 0)
(158.04243 0.99698045 0)
(157.56969 0.98015795 0)
(157.10501 0.95883561 0)
(156.65018 0.93341114 0)
(156.20685 0.90431166 0)
(155.77645 0.87198582 0)
(155.36024 0.83689553 0)
(154.95929 0.79950762 0)
(154.57447 0.76028571 0)
(154.20644 0.71968268 0)
(153.8557 0.67813371 0)
(153.52255 0.63605006 0)
(153.20714 0.59381374 0)
(152.90947 0.55177295 0)
(152.62937 0.51023832 0)
(152.36659 0.46948012 0)
(152.12075 0.42972617 0)
(151.89139 0.39116077 0)
(151.67799 0.35392473 0)
(151.47997 0.31811638 0)
(151.29673 0.28379172 0)
(151.12765 0.25096547 0)
(150.97211 0.21962053 0)
(150.82952 0.18971858 0)
(150.69931 0.16120974 0)
(150.58094 0.13404566 0)
(150.47393 0.1081986 0)
(150.37781 0.083689094 0)
(150.29217 0.060615487 0)
(150.21661 0.039225609 0)
(150.151 0.020132237 0)
(150.09511 0.0042089585 0)
(150.04733 -0.0077701117 0)
(150.01257 -0.011004043 0)
(162.2225 -0.81114423 0)
(162.47769 -0.77812863 0)
(162.59701 -0.73032455 0)
(162.7205 -0.66981855 0)
(162.80488 -0.59655384 0)
(162.86055 -0.5118654 0)
(162.88232 -0.41701645 0)
(162.86979 -0.31354756 0)
(162.8216 -0.20314369 0)
(162.73718 -0.087655215 0)
(162.61633 0.030937037 0)
(162.45941 0.15055214 0)
(162.26725 0.26900929 0)
(162.04128 0.3841409 0)
(161.78349 0.49377438 0)
(161.49641 0.5958064 0)
(161.18313 0.68825319 0)
(160.84728 0.769295 0)
(160.49298 0.83737185 0)
(160.12485 0.89122919 0)
(159.74791 0.92989688 0)
(159.36744 0.95267077 0)
(158.98891 0.95911196 0)
(158.61784 0.94904783 0)
(158.2597 0.92257384 0)
(157.91984 0.88004947 0)
(157.60333 0.82208633 0)
(157.31491 0.74953123 0)
(157.0589 0.6634404 0)
(156.83913 0.56505328 0)
(156.65886 0.45575899 0)
(156.52079 0.33706822 0)
(156.42698 0.21058111 0)
(156.37893 0.077962278 0)
(156.37749 -0.059064953 0)
(156.42291 -0.19868111 0)
(156.51487 -0.33895693 0)
(156.65252 -0.47800402 0)
(156.83446 -0.61404315 0)
(157.05876 -0.74541338 0)
(157.32308 -0.87056711 0)
(157.62461 -0.98807664 0)
(157.9602 -1.0966353 0)
(158.32638 -1.1950682 0)
(158.71938 -1.2823389 0)
(159.13524 -1.3575585 0)
(159.56981 -1.4199926 0)
(160.01881 -1.4690668 0)
(160.47787 -1.5043717 0)
(160.94258 -1.5256646 0)
(161.40855 -1.5328701 0)
(161.8714 -1.5260783 0)
(162.32687 -1.5055411 0)
(162.7708 -1.4716655 0)
(163.19922 -1.4250053 0)
(163.60834 -1.3662497 0)
(163.99463 -1.2962109 0)
(164.35481 -1.2158079 0)
(164.68592 -1.1260503 0)
(164.98532 -1.0280191 0)
(165.25068 -0.92284751 0)
(165.48009 -0.81170055 0)
(165.67194 -0.69575508 0)
(165.82501 -0.57618038 0)
(165.93846 -0.45412007 0)
(166.01178 -0.33067602 0)
(166.04478 -0.2068948 0)
(166.0376 -0.08375858 0)
(165.99069 0.037819923 0)
(165.90474 0.15701066 0)
(165.78069 0.27306993 0)
(165.6197 0.38533098 0)
(165.42315 0.49319504 0)
(165.19254 0.59613266 0)
(164.92954 0.69370042 0)
(164.63595 0.78552752 0)
(164.31367 0.87127082 0)
(163.96471 0.9506087 0)
(163.59119 1.0232484 0)
(163.1953 1.0889293 0)
(162.77931 1.1474259 0)
(162.34556 1.1985509 0)
(161.89648 1.2421591 0)
(161.43452 1.2781521 0)
(160.96217 1.3064842 0)
(160.48194 1.3271672 0)
(159.99634 1.3402756 0)
(159.50783 1.3459499 0)
(159.01886 1.3443988 0)
(158.53176 1.3358992 0)
(158.04881 1.3207939 0)
(157.57213 1.2994873 0)
(157.10371 1.2724393 0)
(156.64539 1.240157 0)
(156.19882 1.2031859 0)
(155.76546 1.1620988 0)
(155.34659 1.1174858 0)
(154.94326 1.0699432 0)
(154.55637 1.0200632 0)
(154.18656 0.96842369 0)
(153.83432 0.91557997 0)
(153.49995 0.86205635 0)
(153.18358 0.80833942 0)
(152.88518 0.75487225 0)
(152.60457 0.70204949 0)
(152.34148 0.65021377 0)
(152.09549 0.59965284 0)
(151.86614 0.55059802 0)
(151.65288 0.50322383 0)
(151.45511 0.45764935 0)
(151.2722 0.41394089 0)
(151.10353 0.37211747 0)
(150.94845 0.33215811 0)
(150.80637 0.29400591 0)
(150.67669 0.25757634 0)
(150.55888 0.22277196 0)
(150.45247 0.18949929 0)
(150.35702 0.15769003 0)
(150.27219 0.12732403 0)
(150.19772 0.0984888 0)
(150.13366 0.071491911 0)
(150.07994 0.046715495 0)
(150.03632 0.024745697 0)
(150.00851 0.0087746738 0)
(162.2745 -0.92917989 0)
(162.53732 -0.87492986 0)
(162.66422 -0.8083739 0)
(162.79539 -0.72711846 0)
(162.887 -0.63230404 0)
(162.94922 -0.52498853 0)
(162.97671 -0.40668612 0)
(162.96894 -0.27915053 0)
(162.92444 -0.14436687 0)
(162.84251 -0.0045208822 0)
(162.72289 0.13804809 0)
(162.56581 0.28088049 0)
(162.3721 0.42150646 0)
(162.14319 0.55740553 0)
(161.88106 0.68609395 0)
(161.58834 0.80517813 0)
(161.2682 0.91241602 0)
(160.92437 1.0057658 0)
(160.56111 1.0834367 0)
(160.18314 1.1439117 0)
(159.79557 1.1859594 0)
(159.40387 1.2086556 0)
(159.01367 1.2114084 0)
(158.6307 1.1939724 0)
(158.26066 1.1564531 0)
(157.9091 1.0993019 0)
(157.5813 1.0233002 0)
(157.28222 0.92953726 0)
(157.01636 0.81937977 0)
(156.78772 0.69444128 0)
(156.59971 0.55654403 0)
(156.45514 0.40768641 0)
(156.35617 0.24999918 0)
(156.30429 0.08569821 0)
(156.30037 -0.082965733 0)
(156.34459 -0.25375003 0)
(156.43659 -0.42446776 0)
(156.57544 -0.59299693 0)
(156.7597 -0.75730013 0)
(156.9874 -0.91544799 0)
(157.25613 -1.065631 0)
(157.56303 -1.2061786 0)
(157.90485 -1.3355667 0)
(158.27803 -1.4524321 0)
(158.67873 -1.5555805 0)
(159.10288 -1.6439949 0)
(159.54623 -1.7168432 0)
(160.00437 -1.7734829 0)
(160.47286 -1.8134656 0)
(160.94715 -1.8365383 0)
(161.42274 -1.8426439 0)
(161.89517 -1.8319189 0)
(162.36004 -1.8046889 0)
(162.81311 -1.7614615 0)
(163.2503 -1.7029169 0)
(163.66774 -1.6298953 0)
(164.06181 -1.5433819 0)
(164.42917 -1.4444894 0)
(164.7668 -1.3344378 0)
(165.07199 -1.2145324 0)
(165.34242 -1.0861405 0)
(165.57612 -0.95066666 0)
(165.77151 -0.80952837 0)
(165.92738 -0.66413201 0)
(166.04289 -0.51585049 0)
(166.11756 -0.36600305 0)
(166.15128 -0.21583832 0)
(166.14421 -0.066522634 0)
(166.09685 0.080867489 0)
(166.00995 0.22535782 0)
(165.88446 0.36607643 0)
(165.72161 0.50224535 0)
(165.52275 0.63316938 0)
(165.28942 0.75822199 0)
(165.02332 0.87684197 0)
(164.72627 0.98852862 0)
(164.40019 1.0928297 0)
(164.04714 1.1893392 0)
(163.66925 1.277695 0)
(163.26874 1.3575768 0)
(162.84791 1.4287068 0)
(162.40912 1.4908518 0)
(161.95482 1.5438285 0)
(161.4875 1.5875098 0)
(161.00969 1.6218318 0)
(160.52393 1.6468011 0)
(160.03277 1.6625011 0)
(159.53874 1.6690973 0)
(159.04432 1.6668396 0)
(158.55191 1.6560628 0)
(158.06381 1.6371839 0)
(157.58221 1.6106972 0)
(157.10914 1.577166 0)
(156.64646 1.5372133 0)
(156.19587 1.4915093 0)
(155.75885 1.4407595 0)
(155.33668 1.3856905 0)
(154.93046 1.327037 0)
(154.54104 1.2655286 0)
(154.16909 1.2018778 0)
(153.81509 1.1367688 0)
(153.47931 1.0708477 0)
(153.16187 1.0047143 0)
(152.86271 0.93891454 0)
(152.58163 0.87393495 0)
(152.31833 0.81019816 0)
(152.07237 0.74805949 0)
(151.84324 0.68780519 0)
(151.63038 0.62965194 0)
(151.43316 0.57374811 0)
(151.25093 0.52017652 0)
(151.08303 0.46896047 0)
(150.92882 0.42007312 0)
(150.78769 0.37344739 0)
(150.65903 0.32898765 0)
(150.54232 0.28658481 0)
(150.43709 0.24613426 0)
(150.34293 0.20755621 0)
(150.25952 0.17081747 0)
(150.18667 0.13597566 0)
(150.12445 0.10322335 0)
(150.07279 0.072761722 0)
(150.03194 0.044962203 0)
(150.00715 0.02114772 0)
(162.32715 -1.0666012 0)
(162.60408 -0.9957084 0)
(162.74131 -0.91285275 0)
(162.88373 -0.81295807 0)
(162.98584 -0.69810036 0)
(163.05782 -0.56918548 0)
(163.09402 -0.42793041 0)
(163.09374 -0.2762573 0)
(163.0553 -0.11639001 0)
(162.97786 0.049210835 0)
(162.86103 0.21788966 0)
(162.7049 0.38680351 0)
(162.51023 0.55301906 0)
(162.2784 0.71355113 0)
(162.01143 0.86544407 0)
(161.71197 1.0058277 0)
(161.38331 1.1319928 0)
(161.02936 1.2414562 0)
(160.65457 1.3320326 0)
(160.26391 1.4018833 0)
(159.86277 1.4495485 0)
(159.45686 1.4739673 0)
(159.05206 1.4744958 0)
(158.65438 1.4509143 0)
(158.26976 1.4034266 0)
(157.90397 1.3326496 0)
(157.56252 1.2395897 0)
(157.25058 1.1256133 0)
(156.9728 0.9924047 0)
(156.73335 0.84192387 0)
(156.53575 0.67635456 0)
(156.38294 0.4980605 0)
(156.27714 0.30953406 0)
(156.21996 0.11335373 0)
(156.21229 -0.087852291 0)
(156.2544 -0.29143694 0)
(156.34592 -0.4947414 0)
(156.48589 -0.69518546 0)
(156.67279 -0.89031322 0)
(156.90456 -1.0778214 0)
(157.17867 -1.2555697 0)
(157.49217 -1.4215987 0)
(157.8417 -1.5741347 0)
(158.22357 -1.7116026 0)
(158.63381 -1.8326317 0)
(159.06824 -1.9360634 0)
(159.52246 -2.0209566 0)
(159.99196 -2.0865919 0)
(160.47212 -2.1324754 0)
(160.95829 -2.1583389 0)
(161.44583 -2.16414 0)
(161.93012 -2.1500596 0)
(162.40666 -2.1164962 0)
(162.87106 -2.0640591 0)
(163.31913 -1.9935571 0)
(163.74689 -1.9059855 0)
(164.15062 -1.802509 0)
(164.52689 -1.6844422 0)
(164.87259 -1.5532269 0)
(165.18498 -1.4104065 0)
(165.46167 -1.2575992 0)
(165.70067 -1.096469 0)
(165.90039 -0.92869717 0)
(166.05963 -0.75595366 0)
(166.17757 -0.57987036 0)
(166.25377 -0.40201712 0)
(166.28814 -0.22388122 0)
(166.28093 -0.046853092 0)
(166.23269 0.1277837 0)
(166.14422 0.29887045 0)
(166.01658 0.46537892 0)
(165.85103 0.62638958 0)
(165.64901 0.78108755 0)
(165.41212 0.92875443 0)
(165.14208 1.068759 0)
(164.84075 1.2005432 0)
(164.51008 1.3236036 0)
(164.15212 1.4374823 0)
(163.76903 1.5417642 0)
(163.36303 1.6360761 0)
(162.93645 1.7200892 0)
(162.49167 1.7935233 0)
(162.03118 1.8561545 0)
(161.55748 1.9078233 0)
(161.07316 1.9484442 0)
(160.58081 1.9780153 0)
(160.08302 1.9966262 0)
(159.5824 2.0044648 0)
(159.08146 2.0018207 0)
(158.58269 1.9890859 0)
(158.08843 1.9667519 0)
(157.60093 1.9354031 0)
(157.12227 1.8957077 0)
(156.65436 1.8484054 0)
(156.19893 1.7942933 0)
(155.7575 1.73421 0)
(155.33136 1.6690198 0)
(154.92161 1.5995958 0)
(154.52912 1.5268048 0)
(154.15455 1.4514925 0)
(153.79835 1.3744698 0)
(153.4608 1.2965016 0)
(153.14197 1.2182967 0)
(152.84178 1.1404991 0)
(152.56001 1.0636812 0)
(152.29631 0.98833879 0)
(152.05022 0.91488687 0)
(151.82119 0.84365784 0)
(151.60862 0.77490092 0)
(151.41186 0.70878376 0)
(151.23023 0.64539585 0)
(151.06305 0.58475463 0)
(150.90964 0.52681385 0)
(150.76938 0.47147345 0)
(150.64166 0.41859223 0)
(150.52596 0.36800335 0)
(150.4218 0.31953211 0)
(150.32883 0.27301532 0)
(150.24678 0.22832318 0)
(150.17553 0.18539516 0)
(150.1152 0.14426017 0)
(150.06584 0.10497317 0)
(150.02792 0.067795498 0)
(150.00599 0.033333307 0)
(162.40013 -1.198494 0)
(162.69297 -1.1098006 0)
(162.84085 -1.0085904 0)
(162.99518 -0.88807255 0)
(163.10815 -0.75112456 0)
(163.19015 -0.59866459 0)
(163.23514 -0.43268032 0)
(163.24223 -0.25534896 0)
(163.20954 -0.069215325 0)
(163.13609 0.12290074 0)
(163.02131 0.31795117 0)
(162.86525 0.51274106 0)
(162.66859 0.70396343 0)
(162.4327 0.8882501 0)
(162.15961 1.0622524 0)
(161.85205 1.2227105 0)
(161.51343 1.3665384 0)
(161.1478 1.4908946 0)
(160.75982 1.5932582 0)
(160.35466 1.671484 0)
(159.93795 1.7238518 0)
(159.51569 1.749101 0)
(159.09405 1.7464628 0)
(158.67933 1.7156744 0)
(158.27779 1.6569827 0)
(157.89551 1.5711321 0)
(157.5383 1.4593376 0)
(157.21157 1.323249 0)
(156.92023 1.1649008 0)
(156.66864 0.98666146 0)
(156.46051 0.79116972 0)
(156.29888 0.58127868 0)
(156.18608 0.35998794 0)
(156.12374 0.13038345 0)
(156.11276 -0.10441742 0)
(156.15337 -0.3413252 0)
(156.24516 -0.57733406 0)
(156.38709 -0.80953904 0)
(156.57758 -1.0351657 0)
(156.81447 -1.2516045 0)
(157.09513 -1.4564275 0)
(157.4165 -1.6474133 0)
(157.77509 -1.8225544 0)
(158.16711 -1.9800734 0)
(158.58844 -2.1184288 0)
(159.03475 -2.2363232 0)
(159.5015 -2.3327086 0)
(159.98404 -2.4067901 0)
(160.4776 -2.4580293 0)
(160.97737 -2.4861447 0)
(161.47855 -2.491111 0)
(161.97638 -2.4731564 0)
(162.46621 -2.4327573 0)
(162.94351 -2.3706295 0)
(163.40394 -2.2877176 0)
(163.84342 -2.1851793 0)
(164.25809 -2.064367 0)
(164.64442 -1.9268056 0)
(164.99924 -1.7741665 0)
(165.31973 -1.6082383 0)
(165.60346 -1.430895 0)
(165.84841 -1.2440628 0)
(166.05299 -1.0496858 0)
(166.21601 -0.84969249 0)
(166.33669 -0.64596379 0)
(166.41462 -0.44030487 0)
(166.44979 -0.23442082 0)
(166.4425 -0.029899682 0)
(166.39338 0.17179908 0)
(166.30329 0.36935324 0)
(166.17335 0.56158487 0)
(166.00489 0.74744786 0)
(165.79939 0.92601653 0)
(165.5585 1.0964715 0)
(165.284 1.2580862 0)
(164.97776 1.4102136 0)
(164.64177 1.5522713 0)
(164.27811 1.6837319 0)
(163.88896 1.8041166 0)
(163.47656 1.9129931 0)
(163.04327 2.0099767 0)
(162.59151 2.0947364 0)
(162.12377 2.1670029 0)
(161.64262 2.2265797 0)
(161.15069 2.2733554 0)
(160.65063 2.3073151 0)
(160.1451 2.3285516 0)
(159.63675 2.3372733 0)
(159.1282 2.3338092 0)
(158.62199 2.31861 0)
(158.12054 2.2922448 0)
(157.62616 2.2553934 0)
(157.141 2.2088357 0)
(156.66702 2.1534365 0)
(156.20599 2.0901292 0)
(155.75946 2.0198963 0)
(155.32876 1.9437507 0)
(154.91499 1.8627161 0)
(154.51902 1.7778078 0)
(154.14151 1.6900162 0)
(153.7829 1.6002905 0)
(153.44343 1.5095253 0)
(153.12315 1.4185488 0)
(152.82194 1.3281127 0)
(152.53955 1.2388847 0)
(152.27558 1.1514424 0)
(152.02953 1.0662687 0)
(151.80082 0.98374995 0)
(151.5888 0.90417486 0)
(151.39278 0.82773686 0)
(151.21205 0.75453803 0)
(151.04589 0.68459639 0)
(150.89361 0.61785531 0)
(150.75453 0.55419498 0)
(150.62806 0.49344558 0)
(150.51364 0.43540226 0)
(150.4108 0.37984076 0)
(150.31918 0.32653284 0)
(150.23852 0.27526134 0)
(150.16872 0.22583906 0)
(150.10991 0.1781045 0)
(150.06216 0.13187645 0)
(150.02603 0.087074976 0)
(150.00551 0.043632656 0)
(162.48475 -1.3487118 0)
(162.7976 -1.2442687 0)
(162.95807 -1.1261083 0)
(163.12654 -0.9860737 0)
(163.25239 -0.82771303 0)
(163.34634 -0.6519827 0)
(163.40192 -0.46110587 0)
(163.41799 -0.25748087 0)
(163.39245 -0.043928044 0)
(163.3241 0.17641997 0)
(163.21218 0.40013836 0)
(163.05659 0.62356449 0)
(162.85794 0.84289014 0)
(162.61754 1.0542331 0)
(162.33744 1.2537272 0)
(162.02044 1.4376019 0)
(161.6701 1.6022807 0)
(161.29066 1.7444648 0)
(160.88701 1.8612248 0)
(160.46465 1.9500703 0)
(160.02951 2.0090144 0)
(159.58794 2.0366163 0)
(159.14647 2.0320164 0)
(158.71177 1.9949511 0)
(158.29046 1.9257529 0)
(157.88895 1.8253333 0)
(157.51339 1.6951477 0)
(157.16947 1.5371508 0)
(156.86236 1.3537335 0)
(156.59663 1.1476613 0)
(156.37618 0.9219966 0)
(156.20417 0.6800333 0)
(156.08305 0.42521898 0)
(156.01451 0.16108985 0)
(155.99949 -0.10878725 0)
(156.03821 -0.38087304 0)
(156.13024 -0.65167796 0)
(156.27446 -0.9178402 0)
(156.46918 -1.17617 0)
(156.71212 -1.4236846 0)
(157.00053 -1.6576237 0)
(157.33118 -1.8754744 0)
(157.70044 -2.0749762 0)
(158.10436 -2.2541363 0)
(158.53867 -2.411234 0)
(158.99886 -2.5448272 0)
(159.48024 -2.6537568 0)
(159.97796 -2.73715 0)
(160.48709 -2.7944222 0)
(161.00265 -2.8252774 0)
(161.51966 -2.8297075 0)
(162.0332 -2.8079893 0)
(162.53843 -2.7606787 0)
(163.03068 -2.6886024 0)
(163.50545 -2.5928453 0)
(163.95848 -2.4747353 0)
(164.38582 -2.3358223 0)
(164.78382 -2.1778539 0)
(165.14919 -2.0027463 0)
(165.47903 -1.8125517 0)
(165.77087 -1.6094213 0)
(166.02266 -1.3955676 0)
(166.23279 -1.1732244 0)
(166.40008 -0.94460742 0)
(166.52378 -0.71187715 0)
(166.60356 -0.47710517 0)
(166.63945 -0.24224538 0)
(166.63184 -0.0091132292 0)
(166.58145 0.22062865 0)
(166.48924 0.44549059 0)
(166.35641 0.66415845 0)
(166.18438 0.87546557 0)
(165.97472 1.0783856 0)
(165.72912 1.2720173 0)
(165.44941 1.4555654 0)
(165.1375 1.6283224 0)
(164.79541 1.7896497 0)
(164.42523 1.9389648 0)
(164.02917 2.0757329 0)
(163.60948 2.1994652 0)
(163.16853 2.3097204 0)
(162.70878 2.4061129 0)
(162.23277 2.4883232 0)
(161.74309 2.5561121 0)
(161.24244 2.6093359 0)
(160.73353 2.6479613 0)
(160.21909 2.6720792 0)
(159.70187 2.6819148 0)
(159.18455 2.6778339 0)
(158.66976 2.6603447 0)
(158.16001 2.6300942 0)
(157.6577 2.5878592 0)
(157.16503 2.5345334 0)
(156.68403 2.4711102 0)
(156.21653 2.3986622 0)
(155.76411 2.3183194 0)
(155.32812 2.2312465 0)
(154.90968 2.1386195 0)
(154.50967 2.0416041 0)
(154.12873 1.941336 0)
(153.76728 1.8389018 0)
(153.42553 1.7353239 0)
(153.1035 1.6315469 0)
(152.80104 1.5284265 0)
(152.51785 1.4267206 0)
(152.25347 1.3270828 0)
(152.00738 1.2300574 0)
(151.77893 1.1360773 0)
(151.56744 1.0454635 0)
(151.37217 0.95842723 0)
(151.19236 0.8750745 0)
(151.02727 0.795414 0)
(150.87617 0.71936716 0)
(150.73837 0.64678079 0)
(150.61325 0.57744166 0)
(150.50024 0.51109261 0)
(150.39886 0.447449 0)
(150.30877 0.38621438 0)
(150.2297 0.32709511 0)
(150.16158 0.26981361 0)
(150.10452 0.21409994 0)
(150.05858 0.15966238 0)
(150.02427 0.10625501 0)
(150.00508 0.053505023 0)
(162.58817 -1.5006458 0)
(162.92283 -1.3791801 0)
(163.09683 -1.2425598 0)
(163.28054 -1.0814484 0)
(163.42012 -0.90001982 0)
(163.52678 -0.69933747 0)
(163.59349 -0.4819129 0)
(163.61891 -0.2504347 0)
(163.60067 -0.0080736503 0)
(163.53737 0.2416415 0)
(163.42803 0.49487218 0)
(163.27244 0.74754586 0)
(163.07108 0.99541357 0)
(162.82523 1.2341256 0)
(162.53695 1.4593314 0)
(162.20911 1.6667717 0)
(161.84541 1.8523916 0)
(161.45028 2.0124375 0)
(161.02888 2.1435629 0)
(160.58701 2.2429124 0)
(160.13096 2.3082012 0)
(159.66745 2.3377708 0)
(159.20346 2.330634 0)
(158.74605 2.2864957 0)
(158.30227 2.2057537 0)
(157.87896 2.0894807 0)
(157.48263 1.9393817 0)
(157.11933 1.757742 0)
(156.79454 1.5473519 0)
(156.51309 1.3114328 0)
(156.27906 1.0535452 0)
(156.0958 0.7775084 0)
(155.96581 0.48730688 0)
(155.89085 0.18701069 0)
(155.87187 -0.11929583 0)
(155.90903 -0.42758961 0)
(156.00182 -0.73397279 0)
(156.14906 -1.0347021 0)
(156.34891 -1.3262242 0)
(156.59899 -1.6052166 0)
(156.89637 -1.8686065 0)
(157.23769 -2.1136004 0)
(157.61915 -2.3376893 0)
(158.03661 -2.5386666 0)
(158.48563 -2.7146312 0)
(158.96153 -2.8639946 0)