/*--------------------------------*- C++ -*----------------------------------*\
| =========                 |                                                 |
| \\      /  F ield         | foam-extend: Open Source CFD                    |
|  \\    /   O peration     | Version:     4.1                                |
|   \\  /    A nd           | Web:         http://www.foam-extend.org         |
|    \\/     M anipulation  |                                                 |
\*---------------------------------------------------------------------------*/
FoamFile
{
    version     2.0;
    format      ascii;
    class       volVectorField;
    location    "0.5";
    object      U;
}
// * * * * * * * * * * * * * * * * * * * * * * * * * * * * * * * * * * * * * //

dimensions      [0 1 -1 0 0 0 0];

internalField   nonuniform List<vector> 
16796
(
(137.38411 -0.11827985 0)
(137.69034 -0.13253112 0)
(137.95804 -0.13895139 0)
(138.24475 -0.14404626 0)
(138.54549 -0.14849031 0)
(138.859 -0.15244539 0)
(139.18403 -0.15591564 0)
(139.51922 -0.15886839 0)
(139.86312 -0.16126342 0)
(140.21412 -0.16306205 0)
(140.5705 -0.1642308 0)
(140.93043 -0.16474302 0)
(141.29201 -0.16458014 0)
(141.65325 -0.16373233 0)
(142.01217 -0.16219903 0)
(142.36674 -0.15998934 0)
(142.71499 -0.15712214 0)
(143.05497 -0.15362613 0)
(143.38482 -0.14953959 0)
(143.70281 -0.14491018 0)
(144.00733 -0.13979429 0)
(144.29694 -0.13425659 0)
(144.57039 -0.12836909 0)
(144.82663 -0.12221046 0)
(145.06488 -0.11586478 0)
(145.28457 -0.10942073 0)
(145.48542 -0.10297009 0)
(145.66743 -0.096606805 0)
(145.83087 -0.090425337 0)
(145.9763 -0.084519656 0)
(146.10456 -0.078981685 0)
(146.21678 -0.073899997 0)
(146.31434 -0.069358561 0)
(146.3989 -0.065435424 0)
(146.47232 -0.062201932 0)
(146.5367 -0.059720719 0)
(146.59431 -0.058044394 0)
(146.64758 -0.057214264 0)
(146.69902 -0.057258865 0)
(146.75128 -0.058191648 0)
(146.80699 -0.060013661 0)
(146.86882 -0.062714328 0)
(146.93936 -0.066269485 0)
(147.02112 -0.07064172 0)
(147.11649 -0.075780402 0)
(147.22768 -0.081620692 0)
(147.35666 -0.088083562 0)
(147.50518 -0.09507848 0)
(147.67468 -0.10250495 0)
(147.86629 -0.11025334 0)
(148.0808 -0.11820615 0)
(148.31862 -0.12623954 0)
(148.57978 -0.13422509 0)
(148.86393 -0.14203177 0)
(149.17032 -0.14952796 0)
(149.4978 -0.15658354 0)
(149.84483 -0.16307205 0)
(150.2095 -0.16887281 0)
(150.58957 -0.173873 0)
(150.98246 -0.17796971 0)
(151.3853 -0.18107182 0)
(151.79497 -0.1831017 0)
(152.20814 -0.18399682 0)
(152.62134 -0.18371095 0)
(153.03097 -0.1822152 0)
(153.43337 -0.17949868 0)
(153.82489 -0.17556883 0)
(154.20192 -0.17045139 0)
(154.56098 -0.16418995 0)
(154.89873 -0.15684524 0)
(155.21204 -0.14849391 0)
(155.49804 -0.13922708 0)
(155.75416 -0.12914858 0)
(155.97818 -0.11837272 0)
(156.16823 -0.10702068 0)
(156.32283 -0.09521624 0)
(156.44092 -0.083088745 0)
(156.52185 -0.070759903 0)
(156.5654 -0.05832845 0)
(156.57174 -0.045849675 0)
(156.54153 -0.033311787 0)
(156.47522 -0.020775419 0)
(156.37324 -0.008532578 0)
(156.23722 0.0031044113 0)
(156.06923 0.013960242 0)
(155.87168 0.023923421 0)
(155.64722 0.032909198 0)
(155.39875 0.040853308 0)
(155.12928 0.047709903 0)
(154.84195 0.053450704 0)
(154.53997 0.058064216 0)
(154.22653 0.061554781 0)
(153.90483 0.063941364 0)
(153.57798 0.06525612 0)
(153.24899 0.065542804 0)
(152.92073 0.064855056 0)
(152.59595 0.063254647 0)
(152.27718 0.060809697 0)
(151.96679 0.057592982 0)
(151.66692 0.053680333 0)
(151.37953 0.049149149 0)
(151.10633 0.044077093 0)
(150.84887 0.038540972 0)
(150.60844 0.032615798 0)
(150.38616 0.026374056 0)
(150.18296 0.019885203 0)
(149.99956 0.013215314 0)
(149.83655 0.0064269713 0)
(149.69433 -0.00042064917 0)
(149.57315 -0.0072714869 0)
(149.47313 -0.014071926 0)
(149.39428 -0.020770087 0)
(149.33647 -0.027313903 0)
(149.29947 -0.033649043 0)
(149.28295 -0.039714774 0)
(149.28647 -0.045437356 0)
(149.30946 -0.050741548 0)
(149.351 -0.05556175 0)
(149.41024 -0.059742882 0)
(149.48653 -0.062940647 0)
(149.58089 -0.06479651 0)
(149.68815 -0.064821955 0)
(149.79185 -0.064019357 0)
(149.87373 -0.051508237 0)
(157.20508 -0.19089662 0)
(157.33796 -0.21474844 0)
(157.45016 -0.2314899 0)
(157.57526 -0.24625517 0)
(157.7124 -0.25973768 0)
(157.8609 -0.27207913 0)
(158.01984 -0.28321412 0)
(158.18816 -0.29301624 0)
(158.36464 -0.30134597 0)
(158.54794 -0.30806874 0)
(158.73659 -0.31306385 0)
(158.929 -0.31622909 0)
(159.12349 -0.31748442 0)
(159.3183 -0.3167743 0)
(159.51163 -0.31406975 0)
(159.70164 -0.30936978 0)
(159.88651 -0.30270237 0)
(160.06444 -0.29412504 0)
(160.23368 -0.28372475 0)
(160.39257 -0.27161768 0)
(160.53956 -0.25794803 0)
(160.67325 -0.24288701 0)
(160.7924 -0.22663058 0)
(160.89595 -0.20939768 0)
(160.98307 -0.19142699 0)
(161.05315 -0.17297447 0)
(161.10582 -0.15430935 0)
(161.14098 -0.13571096 0)
(161.15881 -0.11746394 0)
(161.15974 -0.099854932 0)
(161.14448 -0.083168081 0)
(161.11403 -0.067680484 0)
(161.06963 -0.053657862 0)
(161.01279 -0.041350149 0)
(160.94524 -0.030985622 0)
(160.86893 -0.022763865 0)
(160.786 -0.016855154 0)
(160.69874 -0.013396736 0)
(160.60956 -0.012488153 0)
(160.52094 -0.014200253 0)
(160.43543 -0.01856088 0)
(160.35558 -0.025552161 0)
(160.28394 -0.035111367 0)
(160.22295 -0.04713159 0)
(160.17495 -0.061458232 0)
(160.14212 -0.077895265 0)
(160.12638 -0.096210321 0)
(160.12944 -0.11613458 0)
(160.15273 -0.13736631 0)
(160.19736 -0.15957436 0)
(160.26412 -0.18240306 0)
(160.35343 -0.20547753 0)
(160.46534 -0.22840923 0)
(160.5995 -0.25080209 0)
(160.75517 -0.2722588 0)
(160.93122 -0.29238715 0)
(161.12613 -0.3108066 0)
(161.33801 -0.32715461 0)
(161.56461 -0.34109293 0)
(161.80337 -0.35231352 0)
(162.05144 -0.36054409 0)
(162.30568 -0.36555316 0)
(162.56279 -0.36715448 0)
(162.81926 -0.36521072 0)
(163.07148 -0.35963642 0)
(163.3158 -0.35039997 0)
(163.54852 -0.3375247 0)
(163.76602 -0.32108896 0)
(163.96477 -0.30122513 0)
(164.14139 -0.27811782 0)
(164.29272 -0.25200075 0)
(164.41585 -0.22315292 0)
(164.50816 -0.19189398 0)
(164.56736 -0.15857949 0)
(164.59156 -0.12358629 0)
(164.57921 -0.08731206 0)
(164.52922 -0.050182655 0)
(164.44091 -0.012627995 0)
(164.31405 0.024946306 0)
(164.14882 0.062152669 0)
(163.94578 0.098681399 0)
(163.70657 0.13423438 0)
(163.43357 0.16838482 0)
(163.12863 0.2006713 0)
(162.7938 0.23074094 0)
(162.43134 0.25831633 0)
(162.04373 0.28317358 0)
(161.63363 0.30513804 0)
(161.20383 0.32408254 0)
(160.75725 0.3399262 0)
(160.29683 0.35263271 0)
(159.82554 0.36220806 0)
(159.34633 0.3686974 0)
(158.86208 0.37218143 0)
(158.37558 0.37277219 0)
(157.8895 0.37060854 0)
(157.40639 0.36585153 0)
(156.92861 0.35867963 0)
(156.45836 0.34928413 0)
(155.99765 0.33786483 0)
(155.54831 0.32462595 0)
(155.11197 0.30977251 0)
(154.69006 0.29350713 0)
(154.28384 0.27602738 0)
(153.89438 0.25752353 0)
(153.52256 0.23817691 0)
(153.16913 0.21815859 0)
(152.83464 0.19762865 0)
(152.51953 0.17673579 0)
(152.22409 0.15561739 0)
(151.9485 0.13440001 0)
(151.69281 0.11320015 0)
(151.45697 0.092125946 0)
(151.24083 0.071281171 0)
(151.04416 0.050770778 0)
(150.86663 0.030707335 0)
(150.70786 0.011205028 0)
(150.56737 -0.007615387 0)
(150.44448 -0.025501354 0)
(150.3387 -0.041900336 0)
(150.25063 -0.056393243 0)
(150.17514 -0.06771784 0)
(150.10272 -0.079282999 0)
(150.03318 -0.070287474 0)
(159.59431 -0.25505621 0)
(159.73432 -0.27806895 0)
(159.85069 -0.30083609 0)
(159.9745 -0.32213592 0)
(160.10457 -0.34189558 0)
(160.24025 -0.35999685 0)
(160.38062 -0.37625322 0)
(160.52462 -0.39044587 0)
(160.67109 -0.40235247 0)
(160.81879 -0.41176293 0)
(160.96642 -0.41848974 0)
(161.11262 -0.42237435 0)
(161.25598 -0.4232925 0)
(161.3951 -0.42115804 0)
(161.52854 -0.41592627 0)
(161.65491 -0.40759636 0)
(161.77284 -0.39621302 0)
(161.88102 -0.38186766 0)
(161.97823 -0.36469835 0)
(162.06333 -0.34488963 0)
(162.13534 -0.32267072 0)
(162.1934 -0.29831401 0)
(162.2368 -0.27213153 0)
(162.26505 -0.2444722 0)
(162.27782 -0.21571667 0)
(162.27501 -0.18627338 0)
(162.25673 -0.15657215 0)
(162.22331 -0.12705904 0)
(162.17534 -0.098188588 0)
(162.1136 -0.070418636 0)
(162.03913 -0.044202525 0)
(161.95317 -0.019983445 0)
(161.85718 0.0018142473 0)
(161.75282 0.020796538 0)
(161.64192 0.036606926 0)
(161.52648 0.048918814 0)
(161.4086 0.057453523 0)
(161.2905 0.061992694 0)
(161.17448 0.062375429 0)
(161.0629 0.058505637 0)
(160.95809 0.050348225 0)
(160.86232 0.037939049 0)
(160.77782 0.021385207 0)
(160.70669 0.0008650849 0)
(160.65087 -0.023370382 0)
(160.61216 -0.050997694 0)
(160.59214 -0.081630743 0)
(160.59215 -0.11483039 0)
(160.61324 -0.15010236 0)
(160.65616 -0.18690324 0)
(160.72137 -0.22464984 0)
(160.80895 -0.26272688 0)
(160.91867 -0.30049679 0)
(161.04992 -0.33730944 0)
(161.20176 -0.37251248 0)
(161.37285 -0.40546186 0)
(161.56157 -0.43553251 0)
(161.76591 -0.46212885 0)
(161.98358 -0.48469509 0)
(162.21202 -0.50272503 0)
(162.44837 -0.51577123 0)
(162.6896 -0.52345335 0)
(162.93247 -0.52546551 0)
(163.17362 -0.52158242 0)
(163.40959 -0.51166426 0)
(163.63688 -0.49566 0)
(163.852 -0.47360919 0)
(164.05152 -0.4456422 0)
(164.23212 -0.41197852 0)
(164.39064 -0.37292387 0)
(164.52411 -0.32886513 0)
(164.62983 -0.28026386 0)
(164.70538 -0.22764948 0)
(164.74865 -0.17161121 0)
(164.75789 -0.11276839 0)
(164.73173 -0.051788204 0)
(164.66918 0.010611065 0)
(164.56969 0.073710179 0)
(164.4331 0.13677 0)
(164.2597 0.19907515 0)
(164.05018 0.25992867 0)
(163.80553 0.3186828 0)
(163.52712 0.37479363 0)
(163.21667 0.42776453 0)
(162.8762 0.47711223 0)
(162.50801 0.5224083 0)
(162.1146 0.56329589 0)
(161.69866 0.59949301 0)
(161.26303 0.63079323 0)
(160.81065 0.65706491 0)
(160.3445 0.67824885 0)
(159.86758 0.6943547 0)
(159.38285 0.70545592 0)
(158.89323 0.71168385 0)
(158.40154 0.7132209 0)
(157.91047 0.71029313 0)
(157.42256 0.70316259 0)
(156.9402 0.69211962 0)
(156.4656 0.67747526 0)
(156.00077 0.65955418 0)
(155.54755 0.63868805 0)
(155.10755 0.61520961 0)
(154.68222 0.58944753 0)
(154.27281 0.56172206 0)
(153.88037 0.53234139 0)
(153.50579 0.50159904 0)
(153.1498 0.46977171 0)
(152.81295 0.43711808 0)
(152.49567 0.40387811 0)
(152.19825 0.37027296 0)
(151.92083 0.33650544 0)
(151.66348 0.30276092 0)
(151.42613 0.26920858 0)
(151.20862 0.23600519 0)
(151.01074 0.2032981 0)
(150.83213 0.17122567 0)
(150.67237 0.13991942 0)
(150.5309 0.10954049 0)
(150.4072 0.080380028 0)
(150.30079 0.052905978 0)
(150.21181 0.027265149 0)
(150.13534 0.0061247778 0)
(150.06807 -0.016166995 0)
(150.01861 -0.023271587 0)
(159.84212 -0.33798533 0)
(159.98647 -0.36350542 0)
(160.10688 -0.38879093 0)
(160.23407 -0.41260036 0)
(160.36643 -0.43447989 0)
(160.5032 -0.45412109 0)
(160.64344 -0.47124208 0)
(160.78607 -0.48556834 0)
(160.92995 -0.49683953 0)
(161.07385 -0.504818 0)
(161.21651 -0.50929747 0)
(161.35663 -0.51010929 0)
(161.49289 -0.50712844 0)
(161.62396 -0.50027805 0)
(161.74853 -0.48953331 0)
(161.86532 -0.4749246 0)
(161.97308 -0.4565394 0)
(162.07063 -0.43452389 0)
(162.15687 -0.40908266 0)
(162.23082 -0.38047867 0)
(162.29158 -0.3490307 0)
(162.33842 -0.31511154 0)
(162.37075 -0.27914329 0)
(162.38814 -0.24159377 0)
(162.39035 -0.20296974 0)
(162.37734 -0.16381179 0)
(162.34926 -0.12468584 0)
(162.3065 -0.086176436 0)
(162.24964 -0.048876008 0)
(162.17948 -0.013378084 0)
(162.09706 0.019731049 0)
(162.00361 0.049881265 0)
(161.90058 0.076533934 0)
(161.78962 0.099189962 0)
(161.67253 0.1173802 0)
(161.55128 0.13071102 0)
(161.42799 0.1388519 0)
(161.30486 0.14153784 0)
(161.18416 0.13858525 0)
(161.06822 0.12989669 0)
(160.95935 0.11546388 0)
(160.85987 0.095369109 0)
(160.772 0.069787591 0)
(160.69786 0.038988262 0)
(160.63943 0.0033293432 0)
(160.59852 -0.036739586 0)
(160.5767 -0.080677994 0)
(160.57533 -0.12787108 0)
(160.59545 -0.17763857 0)
(160.63782 -0.22923998 0)
(160.70289 -0.28188262 0)
(160.79075 -0.33473431 0)
(160.90115 -0.38693482 0)
(161.03347 -0.43760908 0)
(161.18674 -0.48588088 0)
(161.35963 -0.53088661 0)
(161.55046 -0.57178939 0)
(161.75722 -0.60779294 0)
(161.97759 -0.63815521 0)
(162.20895 -0.66220138 0)
(162.44845 -0.67933609 0)
(162.693 -0.68905457 0)
(162.93932 -0.69095254 0)
(163.18401 -0.68473445 0)
(163.42357 -0.6702201 0)
(163.65447 -0.64734923 0)
(163.87316 -0.61618401 0)
(164.07617 -0.57690943 0)
(164.26013 -0.52983109 0)
(164.42182 -0.47537139 0)
(164.55824 -0.41406267 0)
(164.66664 -0.34653814 0)
(164.74454 -0.27352463 0)
(164.78982 -0.19582418 0)
(164.80066 -0.11428481 0)
(164.7757 -0.029821968 0)
(164.71393 0.056592768 0)
(164.61477 0.14399932 0)
(164.47803 0.23140951 0)
(164.30397 0.31786754 0)
(164.09325 0.40242067 0)
(163.84691 0.48415364 0)
(163.56636 0.56222949 0)
(163.25336 0.63589247 0)
(162.90999 0.70446094 0)
(162.53858 0.76734237 0)
(162.14171 0.82404303 0)
(161.72213 0.87417235 0)
(161.28273 0.9174446 0)
(160.82649 0.95367819 0)
(160.35646 0.98279264 0)
(159.8757 1.0048036 0)
(159.38721 1.0198159 0)
(158.89395 1.0280152 0)
(158.39877 1.0296584 0)
(157.9044 1.0250635 0)
(157.41341 1.0145986 0)
(156.9282 0.99867106 0)
(156.451 0.97771721 0)
(155.98382 0.95219222 0)
(155.5285 0.92256096 0)
(155.08667 0.88928975 0)
(154.65975 0.85283925 0)
(154.24898 0.81365848 0)
(153.85542 0.7721799 0)
(153.47994 0.72881585 0)
(153.12324 0.68395588 0)
(152.78587 0.63796523 0)
(152.46824 0.59118423 0)
(152.17062 0.54392876 0)
(151.89316 0.49649133 0)
(151.63589 0.44914337 0)
(151.39873 0.40213872 0)
(151.18154 0.35571877 0)
(150.98407 0.31011713 0)
(150.80598 0.26556265 0)
(150.64687 0.2222888 0)
(150.5062 0.18058078 0)
(150.38356 0.14085791 0)
(150.27842 0.10364372 0)
(150.19056 0.069211594 0)
(150.11566 0.042596032 0)
(150.0534 0.016374077 0)
(150.01325 0.0020561193 0)
(159.85743 -0.40717415 0)
(160.00201 -0.43820321 0)
(160.12363 -0.46834101 0)
(160.25245 -0.49665157 0)
(160.38661 -0.52255798 0)
(160.52527 -0.54562711 0)
(160.66743 -0.56548325 0)
(160.81202 -0.581782 0)
(160.95787 -0.59420892 0)
(161.10373 -0.60248369 0)
(161.24834 -0.60636733 0)
(161.39037 -0.6056682 0)
(161.52849 -0.60024833 0)
(161.66137 -0.59002838 0)
(161.78767 -0.5749921 0)
(161.90609 -0.55518994 0)
(162.01538 -0.53074137 0)
(162.11433 -0.50183678 0)
(162.20183 -0.46873736 0)
(162.27686 -0.43177521 0)
(162.33853 -0.39135051 0)
(162.38606 -0.34792969 0)
(162.41884 -0.30203989 0)
(162.43642 -0.2542651 0)
(162.43854 -0.2052381 0)
(162.42512 -0.15563453 0)
(162.39632 -0.10616271 0)
(162.35247 -0.057555717 0)
(162.29415 -0.010555548 0)
(162.22217 0.034090528 0)
(162.13754 0.075639891 0)
(162.04152 0.11337414 0)
(161.93556 0.14661064 0)
(161.82132 0.17469879 0)
(161.70064 0.19707126 0)
(161.57553 0.21321897 0)
(161.44813 0.22271384 0)
(161.32069 0.22522402 0)
(161.19556 0.22051516 0)
(161.07511 0.20846264 0)
(160.96175 0.18905741 0)
(160.85783 0.16240766 0)
(160.76567 0.12874231 0)
(160.68745 0.088411296 0)
(160.62524 0.041881186 0)
(160.58089 -0.010268639 0)
(160.55607 -0.067341585 0)
(160.55216 -0.12854437 0)
(160.57029 -0.19299916 0)
(160.61125 -0.25974845 0)
(160.67551 -0.32776836 0)
(160.76321 -0.39598522 0)
(160.87411 -0.4632903 0)
(161.0076 -0.52855736 0)
(161.1627 -0.5906598 0)
(161.33808 -0.64848842 0)
(161.53202 -0.70096939 0)
(161.74249 -0.747082 0)
(161.96711 -0.78587593 0)
(162.20323 -0.81648777 0)
(162.44791 -0.8381566 0)
(162.69799 -0.85023809 0)
(162.95014 -0.85221707 0)
(163.20086 -0.84371819 0)
(163.44656 -0.82451427 0)
(163.68361 -0.79453236 0)
(163.90839 -0.75385701 0)
(164.11732 -0.70273088 0)
(164.30695 -0.64155218 0)
(164.47397 -0.57086991 0)
(164.6153 -0.49137525 0)
(164.72811 -0.40388979 0)
(164.80986 -0.3093591 0)
(164.85838 -0.2088206 0)
(164.8718 -0.10338322 0)
(164.84873 0.005757915 0)
(164.78814 0.11734999 0)
(164.68944 0.23013145 0)
(164.55245 0.34285022 0)
(164.37744 0.45426642 0)
(164.16511 0.56317599 0)
(163.91651 0.66843124 0)
(163.63313 0.76896581 0)
(163.31677 0.86380554 0)
(162.96956 0.95207673 0)
(162.59392 1.0330207 0)
(162.19248 1.1060048 0)
(161.76808 1.170529 0)
(161.32368 1.226228 0)
(160.86235 1.2728707 0)
(160.38719 1.3103565 0)
(159.90134 1.3387087 0)
(159.40787 1.3580653 0)
(158.90978 1.3686684 0)
(158.40999 1.3708518 0)
(157.91125 1.3650269 0)
(157.41617 1.3516694 0)
(156.92718 1.3313046 0)
(156.44651 1.3044943 0)
(155.97619 1.2718234 0)
(155.51806 1.233888 0)
(155.07375 1.1912851 0)
(154.64467 1.1446031 0)
(154.23204 1.0944142 0)
(153.83691 1.0412679 0)
(153.46012 0.98568653 0)
(153.10237 0.92816164 0)
(152.76418 0.86915192 0)
(152.44593 0.80908231 0)
(152.14788 0.74834421 0)
(151.87015 0.6872966 0)
(151.61276 0.62626844 0)
(151.37562 0.56556229 0)
(151.15858 0.50545991 0)
(150.96139 0.4462275 0)
(150.78371 0.38812085 0)
(150.62515 0.33139993 0)
(150.48526 0.2763737 0)
(150.3637 0.22344731 0)
(150.2599 0.17305544 0)
(150.1737 0.1255122 0)
(150.10159 0.08786247 0)
(150.04458 0.05007899 0)
(150.01054 0.021841144 0)
(159.85536 -0.48555458 0)
(160.00094 -0.5211727 0)
(160.12373 -0.55516841 0)
(160.25416 -0.58680972 0)
(160.39028 -0.61549363 0)
(160.53119 -0.64071886 0)
(160.67586 -0.66204428 0)
(160.8232 -0.67907145 0)
(160.972 -0.69144272 0)
(161.121 -0.69884413 0)
(161.26891 -0.70101205 0)
(161.41436 -0.69773922 0)
(161.55598 -0.68888147 0)
(161.6924 -0.67436327 0)
(161.82224 -0.65418266 0)
(161.94416 -0.62841555 0)
(162.05684 -0.59721824 0)
(162.15905 -0.56082994 0)
(162.2496 -0.51957254 0)
(162.32745 -0.47385099 0)
(162.39163 -0.42415006 0)
(162.44134 -0.3710324 0)
(162.47591 -0.31513214 0)
(162.49485 -0.2571505 0)
(162.49787 -0.19784636 0)
(162.48486 -0.13802926 0)
(162.45594 -0.07854814 0)
(162.41145 -0.020279005 0)
(162.35193 0.0358913 0)
(162.2782 0.089065321 0)
(162.19129 0.13835443 0)
(162.09246 0.18290673 0)
(161.98319 0.22188812 0)
(161.86518 0.2545492 0)
(161.7403 0.28019718 0)
(161.61061 0.29822598 0)
(161.47833 0.30813103 0)
(161.34577 0.30951663 0)
(161.21534 0.30210995 0)
(161.08951 0.28577017 0)
(160.97077 0.26049512 0)
(160.86155 0.2264261 0)
(160.76426 0.18385086 0)
(160.68119 0.13320319 0)
(160.61446 0.075062334 0)
(160.56604 0.0101411 0)
(160.53764 -0.060704714 0)
(160.53075 -0.13649933 0)
(160.54654 -0.21616663 0)
(160.58588 -0.29853879 0)
(160.64927 -0.38237028 0)
(160.73688 -0.46635294 0)
(160.8485 -0.54913745 0)
(160.98353 -0.6293526 0)
(161.141 -0.70562702 0)
(161.31954 -0.77661062 0)
(161.51742 -0.84099628 0)
(161.73257 -0.89754142 0)
(161.96254 -0.94508898 0)
(162.20463 -0.98258751 0)
(162.45581 -1.0091101 0)
(162.71286 -1.0238716 0)
(162.97231 -1.0262441 0)
(163.23059 -1.0157697 0)
(163.48399 -0.99217128 0)
(163.72876 -0.95535949 0)
(163.96118 -0.90543736 0)
(164.17754 -0.84270088 0)
(164.37428 -0.76763621 0)
(164.548 -0.6809138 0)
(164.6955 -0.58337814 0)
(164.81386 -0.47603311 0)
(164.90046 -0.36003547 0)
(164.95306 -0.23665645 0)
(164.96976 -0.107255 0)
(164.9491 0.026708041 0)
(164.89003 0.16370689 0)
(164.79195 0.30218573 0)
(164.65467 0.44057881 0)
(164.4785 0.57735237 0)
(164.26415 0.71101811 0)
(164.01274 0.84016057 0)
(163.72581 0.96346194 0)
(163.40523 1.0797192 0)
(163.05322 1.1878586 0)
(162.67227 1.2869504 0)
(162.26512 1.3762208 0)
(161.83469 1.4550596 0)
(161.38406 1.5230235 0)
(160.91637 1.5798347 0)
(160.43484 1.6253771 0)
(159.94267 1.6596872 0)
(159.44302 1.6829438 0)
(158.93896 1.6954536 0)
(158.43347 1.697636 0)
(157.92935 1.6900062 0)
(157.42926 1.6731575 0)
(156.93563 1.6477444 0)
(156.45074 1.6144646 0)
(155.97663 1.574044 0)
(155.51513 1.5272214 0)
(155.06785 1.4747357 0)
(154.63621 1.4173146 0)
(154.22141 1.3556648 0)
(153.82447 1.290465 0)
(153.44622 1.2223596 0)
(153.08732 1.1519549 0)
(152.74826 1.0798168 0)
(152.42941 1.0064692 0)
(152.13098 0.9323946 0)
(151.85307 0.85803532 0)
(151.59567 0.78379595 0)
(151.35869 0.71004703 0)
(151.14194 0.63712987 0)
(150.94515 0.56536096 0)
(150.76797 0.49503767 0)
(150.61005 0.42645306 0)
(150.47094 0.35992862 0)
(150.35032 0.29582515 0)
(150.2476 0.23446921 0)
(150.16274 0.17612945 0)
(150.09289 0.12928302 0)
(150.03957 0.080334521 0)
(150.00913 0.038354058 0)
(159.85517 -0.55803623 0)
(160.00171 -0.59949467 0)
(160.12597 -0.6387153 0)
(160.25836 -0.67500771 0)
(160.39688 -0.7077352 0)
(160.54056 -0.73633425 0)
(160.68836 -0.76029756 0)
(160.83913 -0.77916622 0)
(160.99165 -0.7925307 0)
(161.14462 -0.80003407 0)
(161.2967 -0.80137912 0)
(161.44648 -0.79633466 0)
(161.59256 -0.78474278 0)
(161.73349 -0.76652498 0)
(161.86784 -0.74168772 0)
(161.99421 -0.71032723 0)
(162.11124 -0.67263253 0)
(162.2176 -0.62888839 0)
(162.31208 -0.57947527 0)
(162.39353 -0.52486995 0)
(162.46096 -0.46564206 0)
(162.51348 -0.40245212 0)
(162.55039 -0.33604444 0)
(162.57113 -0.26724228 0)
(162.57538 -0.19693719 0)
(162.56298 -0.12608097 0)
(162.53402 -0.055673982 0)
(162.48883 0.01325548 0)
(162.42793 0.079658827 0)
(162.35213 0.14247106 0)
(162.26249 0.20064728 0)
(162.16027 0.25316258 0)
(162.04699 0.29905357 0)
(161.92439 0.33741493 0)
(161.7944 0.36742675 0)
(161.65915 0.38837097 0)
(161.52092 0.39964561 0)
(161.38211 0.40078162 0)
(161.24523 0.39145466 0)
(161.11284 0.3714973 0)
(160.98753 0.34090749 0)
(160.87186 0.29985388 0)
(160.76833 0.24867988 0)
(160.67933 0.18790276 0)
(160.60711 0.11821274 0)
(160.55374 0.040461279 0)
(160.52101 -0.044333395 0)
(160.51051 -0.13501015 0)
(160.52348 -0.23028609 0)
(160.56085 -0.32876814 0)
(160.6232 -0.4289656 0)
(160.71073 -0.5293175 0)
(160.82324 -0.62821367 0)
(160.96017 -0.72401905 0)
(161.12052 -0.8150991 0)
(161.30292 -0.89984512 0)
(161.5056 -0.97670023 0)
(161.72642 -1.0441848 0)
(161.9629 -1.1009212 0)
(162.21223 -1.1456581 0)
(162.4713 -1.1772923 0)
(162.73676 -1.1948896 0)
(163.00506 -1.1977032 0)
(163.27248 -1.1851891 0)
(163.53518 -1.1570187 0)
(163.78929 -1.1130877 0)
(164.03091 -1.0535215 0)
(164.25624 -0.97867595 0)
(164.46156 -0.88913439 0)
(164.64334 -0.78570058 0)
(164.79825 -0.6693866 0)
(164.92328 -0.54139535 0)
(165.01571 -0.40311212 0)
(165.0732 -0.25606752 0)
(165.0938 -0.1018884 0)
(165.07599 0.0576821 0)
(165.0187 0.220822 0)
(164.9213 0.3856838 0)
(164.78364 0.55041587 0)
(164.60601 0.71318974 0)
(164.38917 0.87223224 0)
(164.13432 1.025856 0)
(163.84304 1.1724873 0)
(163.51732 1.3106894 0)
(163.15946 1.4391818 0)
(162.77205 1.5568579 0)
(162.35796 1.6627986 0)
(161.92022 1.7562811 0)
(161.46201 1.8367826 0)
(160.98662 1.9039792 0)
(160.49735 1.9577402 0)
(159.99752 1.9981184 0)
(159.49038 2.025336 0)
(158.97911 2.0397681 0)
(158.46672 2.0419238 0)
(157.95609 2.0324255 0)
(157.44992 2.0119879 0)
(156.95071 1.9813967 0)
(156.46072 1.9414881 0)
(155.98201 1.8931297 0)
(155.51642 1.8372028 0)
(155.06555 1.7745866 0)
(154.63081 1.7061454 0)
(154.21338 1.6327168 0)
(153.81425 1.5551033 0)
(153.43421 1.4740654 0)
(153.0739 1.3903172 0)
(152.73377 1.3045234 0)
(152.41416 1.2172985 0)
(152.11526 1.1292076 0)
(151.83712 1.0407672 0)
(151.57973 0.95244986 0)
(151.34294 0.86468739 0)
(151.12655 0.77787695 0)
(150.93029 0.69238612 0)
(150.7538 0.60856067 0)
(150.59672 0.52673967 0)
(150.45863 0.44727847 0)
(150.33921 0.37054299 0)
(150.23782 0.29685942 0)
(150.15456 0.22655384 0)
(150.08693 0.16947711 0)
(150.03642 0.10852676 0)
(150.0083 0.053086789 0)
(159.85987 -0.6355026 0)
(160.00817 -0.68239678 0)
(160.13429 -0.72644916 0)
(160.26903 -0.76698116 0)
(160.41032 -0.80332751 0)
(160.5572 -0.83487368 0)
(160.70859 -0.86105508 0)
(160.86329 -0.88135758 0)
(161.02006 -0.89532221 0)
(161.17755 -0.90255001 0)
(161.33438 -0.90271021 0)
(161.48909 -0.89554733 0)
(161.64022 -0.88088914 0)
(161.78626 -0.85865373 0)
(161.92572 -0.82885555 0)
(162.05714 -0.79161113 0)
(162.17906 -0.74714242 0)
(162.29011 -0.69578038 0)
(162.38899 -0.63796492 0)
(162.47449 -0.574246 0)
(162.54553 -0.50527966 0)
(162.60118 -0.43182612 0)
(162.64066 -0.35474175 0)
(162.66337 -0.2749739 0)
(162.6689 -0.19354856 0)
(162.65709 -0.11156195 0)
(162.62798 -0.030165979 0)
(162.58186 0.049455392 0)
(162.51926 0.12609018 0)
(162.44098 0.19850791 0)
(162.3481 0.26550827 0)
(162.24187 0.32590252 0)
(162.12388 0.37857537 0)
(161.99591 0.42248016 0)
(161.85994 0.45666496 0)
(161.71819 0.48029704 0)
(161.57301 0.49267684 0)
(161.42691 0.49325868 0)
(161.28251 0.4816654 0)
(161.14249 0.45770141 0)
(161.00954 0.42136384 0)
(160.88635 0.37284882 0)
(160.77556 0.3125563 0)
(160.67968 0.24108933 0)
(160.60108 0.15925174 0)
(160.54194 0.068040226 0)
(160.50419 -0.031360421 0)
(160.48951 -0.13759549 0)
(160.49922 -0.24916664 0)
(160.53435 -0.36444702 0)
(160.59553 -0.4817103 0)
(160.683 -0.5991392 0)
(160.79662 -0.71486024 0)
(160.93581 -0.82697086 0)
(161.09959 -0.93356791 0)
(161.28656 -1.0327779 0)
(161.49491 -1.122787 0)
(161.72244 -1.2018707 0)
(161.96659 -1.2684227 0)
(162.22446 -1.3209828 0)
(162.49283 -1.3582632 0)
(162.76823 -1.3791722 0)
(163.04696 -1.3828361 0)
(163.32515 -1.3686173 0)
(163.59883 -1.3361291 0)
(163.86394 -1.2852466 0)
(164.11645 -1.2161125 0)
(164.35235 -1.1291392 0)
(164.5678 -1.025005 0)
(164.75908 -0.90464573 0)
(164.92277 -0.76924134 0)
(165.05567 -0.62019546 0)
(165.15498 -0.4591242 0)
(165.21824 -0.28782586 0)
(165.24344 -0.10819737 0)
(165.229 0.077731169 0)
(165.17381 0.2678317 0)
(165.07722 0.45992663 0)
(164.93908 0.65183343 0)
(164.75972 0.84141188 0)
(164.53994 1.0265877 0)
(164.28101 1.205388 0)
(163.9846 1.3759725 0)
(163.6528 1.5366622 0)
(163.28802 1.6859632 0)
(162.893 1.822587 0)
(162.47072 1.9454664 0)
(162.02436 2.0537654 0)
(161.55724 2.1468839 0)
(161.07278 2.224456 0)
(160.57443 2.2863431 0)
(160.06562 2.3326222 0)
(159.54972 2.363569 0)
(159.02999 2.3796382 0)
(158.50956 2.3814406 0)
(157.99135 2.3697188 0)
(157.47814 2.3453216 0)
(156.97243 2.3091794 0)
(156.47654 2.2622792 0)
(155.99254 2.2056427 0)
(155.52226 2.140305 0)
(155.06729 2.0672965 0)
(154.62902 1.9876277 0)
(154.2086 1.9022755 0)
(153.80699 1.8121738 0)
(153.42495 1.7182052 0)
(153.06306 1.6211964 0)
(152.72176 1.5219143 0)
(152.40133 1.4210655 0)
(152.10191 1.3192967 0)
(151.82353 1.2171961 0)
(151.56613 1.1152975 0)
(151.32954 1.0140844 0)
(151.11354 0.91399545 0)
(150.91782 0.81542968 0)
(150.74201 0.71875529 0)
(150.58575 0.62432242 0)
(150.44863 0.53247805 0)
(150.33032 0.44355616 0)
(150.23019 0.35785589 0)
(150.14844 0.27570408 0)
(150.08272 0.20826487 0)
(150.03432 0.13515763 0)
(150.00778 0.06672143 0)
(159.86787 -0.71084102 0)
(160.01815 -0.76396374 0)
(160.14652 -0.81368161 0)
(160.28402 -0.8592711 0)
(160.42858 -0.90001749 0)
(160.57919 -0.93524765 0)
(160.73473 -0.96433508 0)
(160.894 -0.98670562 0)
(161.05568 -1.0018457 0)
(161.2184 -1.0093088 0)
(161.38071 -1.0087254 0)
(161.54111 -0.99981063 0)
(161.69805 -0.98237348 0)
(161.84998 -0.95632452 0)
(161.99533 -0.92168284 0)
(162.13254 -0.8785825 0)
(162.2601 -0.82727637 0)
(162.37654 -0.76814043 0)
(162.48049 -0.70167385 0)
(162.57064 -0.6285005 0)
(162.64586 -0.54936477 0)
(162.70511 -0.4651297 0)
(162.74755 -0.37676823 0)
(162.77252 -0.28535764 0)
(162.77955 -0.19206561 0)
(162.76841 -0.098142522 0)
(162.73913 -0.0048995434 0)
(162.69193 0.086308152 0)
(162.62737 0.17409196 0)
(162.54623 0.25704703 0)
(162.44957 0.33379477 0)
(162.33872 0.40297589 0)
(162.21526 0.46330594 0)
(162.08106 0.51358344 0)
(161.93816 0.55271206 0)
(161.78886 0.5797318 0)
(161.63563 0.59383588 0)
(161.48108 0.59439289 0)
(161.32795 0.58096479 0)
(161.17905 0.55332203 0)
(161.03723 0.51145624 0)
(160.90532 0.45558794 0)
(160.7861 0.3861721 0)
(160.68223 0.30389758 0)
(160.59623 0.20968364 0)
(160.53041 0.10467449 0)
(160.48684 -0.0097744708 0)
(160.4673 -0.13210609 0)
(160.47324 -0.26060226 0)
(160.50577 -0.39339625 0)
(160.56558 -0.52849847 0)
(160.65299 -0.66381808 0)
(160.76788 -0.79720006 0)
(160.90969 -0.92645487 0)
(161.07744 -1.0493935 0)
(161.2697 -1.1638606 0)
(161.48462 -1.2677695 0)
(161.71992 -1.3591358 0)
(161.97295 -1.4361106 0)
(162.2407 -1.4970127 0)
(162.51984 -1.5403587 0)
(162.80673 -1.5648903 0)
(163.09753 -1.5695998 0)
(163.3882 -1.553751 0)
(163.67458 -1.5168964 0)
(163.95243 -1.4588903 0)
(164.21751 -1.3798955 0)
(164.46566 -1.2803861 0)
(164.69281 -1.1611431 0)
(164.8951 -1.0232451 0)
(165.06891 -0.86805282 0)
(165.21091 -0.69718581 0)
(165.31816 -0.51250753 0)
(165.38808 -0.31610543 0)
(165.41859 -0.11016355 0)
(165.40802 0.10298507 0)
(165.35523 0.32088643 0)
(165.25954 0.5410438 0)
(165.1208 0.76095078 0)
(164.93939 0.9781416 0)
(164.71616 1.1902268 0)
(164.45246 1.3949339 0)
(164.15006 1.5901439 0)
(163.81117 1.7739246 0)
(163.43834 1.944559 0)
(163.03446 2.1005691 0)
(162.60265 2.2407339 0)
(162.14627 2.3641011 0)
(161.66881 2.4699922 0)
(161.17384 2.5580007 0)
(160.66496 2.6279833 0)
(160.14576 2.6800464 0)
(159.61972 2.7145256 0)
(159.09023 2.7319627 0)
(158.56051 2.7330784 0)
(158.03358 2.7187437 0)
(157.51225 2.6899501 0)
(156.9991 2.6477801 0)
(156.49645 2.593379 0)
(156.00639 2.5279288 0)
(155.53075 2.4526237 0)
(155.07111 2.3686499 0)
(154.62884 2.2771673 0)
(154.20504 2.1792954 0)
(153.80064 2.0761011 0)
(153.41636 1.9685914 0)
(153.05274 1.8577066 0)
(152.71016 1.7443179 0)
(152.38885 1.6292261 0)
(152.08891 1.5131624 0)
(151.81034 1.3967907 0)
(151.55301 1.2807115 0)
(151.31673 1.1654664 0)
(151.10123 1.0515437 0)
(150.90618 0.93938344 0)
(150.7312 0.82938613 0)
(150.5759 0.7219216 0)
(150.43987 0.61733717 0)
(150.32275 0.51594709 0)
(150.22392 0.41802587 0)
(150.14364 0.32386222 0)
(150.07958 0.24590823 0)
(150.03283 0.16064311 0)
(150.00742 0.079627183 0)
(159.87916 -0.78944277 0)
(160.03197 -0.84878964 0)
(160.16298 -0.90418073 0)
(160.30363 -0.95484337 0)
(160.45189 -1.0000081 0)
(160.6067 -1.0389407 0)
(160.76693 -1.0709514 0)
(160.93131 -1.0954045 0)
(161.09851 -1.111729 0)
(161.26709 -1.1194281 0)
(161.43555 -1.1180898 0)
(161.60232 -1.1073964 0)
(161.76578 -1.0871347 0)
(161.9243 -1.0572045 0)
(162.07624 -1.017627 0)
(162.21994 -0.9685515 0)
(162.35381 -0.91026028 0)
(162.47628 -0.84317341 0)
(162.5859 -0.76784908 0)
(162.68126 -0.68498552 0)
(162.76114 -0.5954166 0)
(162.82441 -0.50010998 0)
(162.87016 -0.40015756 0)
(162.89764 -0.29676952 0)
(162.90632 -0.19125863 0)
(162.89592 -0.085033902 0)
(162.8664 0.020430594 0)
(162.81798 0.12360415 0)
(162.75116 0.22291594 0)
(162.66675 0.31678421 0)
(162.5658 0.4036356 0)
(162.44967 0.48194284 0)
(162.32001 0.55024114 0)
(162.17871 0.60716295 0)
(162.02794 0.65146132 0)