/*--------------------------------*- C++ -*----------------------------------*\
| =========                 |                                                 |
| \\      /  F ield         | foam-extend: Open Source CFD                    |
|  \\    /   O peration     | Version:     4.1                                |
|   \\  /    A nd           | Web:         http://www.foam-extend.org         |
|    \\/     M anipulation  |                                                 |
\*---------------------------------------------------------------------------*/
FoamFile
{
    version     2.0;
    format      ascii;
    class       volScalarField;
    location    "2.6";
    object      p;
}
// * * * * * * * * * * * * * * * * * * * * * * * * * * * * * * * * * * * * * //

dimensions      [0 2 -2 0 0 0 0];

internalField   nonuniform List<scalar> 
4393
(
-46.418267
-92.981794
-146.74658
-201.53764
-258.52842
-318.02959
-380.4241
-446.02152
-515.04607
-587.60794
-663.67506
-743.04503
-825.31973
-909.88657
-995.91031
-1082.3384
-1167.9203
-1251.2386
-1330.7463
-1404.806
-1471.7265
-1529.7973
-1577.3239
-1612.6684
-1634.3033
-1640.8854
-1631.3606
-1605.1087
-1562.0231
-1502.604
-1428.0624
-1340.3041
-1241.8233
-1135.5206
-1024.4766
-911.72588
-800.06791
-691.93533
-589.32527
-493.78592
-406.44468
-328.06266
-259.10038
-199.78372
-150.17401
-110.24028
-79.7632
-57.832256
-43.627959
-45.166103
-92.395973
-146.03399
-200.67383
-257.49548
-316.84187
-379.10954
-444.62014
-513.60977
-586.20062
-662.37226
-741.93235
-824.48982
-909.43456
-995.92814
-1082.909
-1169.1129
-1253.106
-1333.3245
-1408.115
-1475.7717
-1534.5696
-1582.7973
-1618.7955
-1641.0075
-1648.0569
-1638.8539
-1612.7037
-1569.4361
-1509.5441
-1434.2448
-1345.4785
-1245.8054
-1138.2117
-1025.8679
-911.88876
-799.13368
-690.07199
-586.71526
-490.60828
-402.8628
-324.21734
-255.1098
-195.75322
-146.20046
-106.36018
-75.961541
-54.862606
-44.264434
-44.361864
-91.49922
-144.77571
-199.05477
-255.5256
-314.56074
-376.57888
-441.92392
-510.8551
-583.51832
-659.91597
-739.87535
-823.01872
-908.73985
-996.19232
-1084.2946
-1171.7532
-1257.0996
-1338.7353
-1414.975
-1484.0843
-1544.3101
-1593.9091
-1631.1785
-1654.5013
-1662.4208
-1653.7591
-1627.738
-1584.0956
-1523.2533
-1446.4221
-1355.6119
-1253.5193
-1143.3091
-1028.338
-911.88382
-796.92623
-686.00494
-581.1556
-483.91046
-395.34368
-316.14211
-246.68985
-187.15625
-137.55072
-97.687887
-67.257778
-46.702852
-37.920324
-43.571145
-90.203474
-142.87199
-196.57253
-252.49934
-311.05356
-372.68271
-437.76266
-506.58744
-579.33946
-656.05696
-736.59863
-820.60886
-907.4889
-996.38122
-1086.174
-1175.5279
-1262.9213
-1346.7025
-1425.1387
-1496.4546
-1558.8583
-1610.5622
-1649.8029
-1674.875
-1684.1995
-1676.4523
-1650.7042
-1606.5449
-1544.2894
-1465.1355
-1371.1992
-1265.394
-1151.1695
-1032.1787
-911.95602
-793.66709
-679.95743
-572.89544
-473.98956
-384.25269
-304.29097
-234.40468
-174.68797
-125.07519
-85.291355
-55.022166
-34.934216
-26.790091
-42.74601
-88.586053
-140.4016
-193.29783
-248.47661
-306.36993
-367.46078
-432.16655
-500.82786
-573.67703
-650.80207
-732.10626
-817.26626
-905.69531
-996.52113
-1088.589
-1180.4946
-1270.6404
-1357.3006
-1438.6791
-1512.9482
-1578.2702
-1632.8044
-1674.7131
-1702.1782
-1713.4589
-1707.0291
-1681.739
-1636.953
-1572.8177
-1490.4976
-1392.2537
-1281.3117
-1161.5348
-1037.0027
-911.61329
-788.78896
-671.31372
-561.29021
-460.18298
-368.91157
-287.9654
-217.52578
-157.57762
-107.95362
-68.296561
-38.299708
-18.683348
-10.926939
-41.737433
-86.536864
-137.25304
-189.11396
-243.33035
-300.3694
-360.75684
-424.96187
-493.38472
-566.32283
-643.93061
-726.17221
-812.77013
-903.15675
-996.44213
-1091.4141
-1186.5793
-1280.2367
-1370.5625
-1455.6797
-1533.7003
-1602.7369
-1660.8936
-1706.2492
-1736.8501
-1750.7506
-1746.1565
-1721.6151
-1676.169
-1609.7098
-1523.3302
-1419.4773
-1301.8089
-1174.7659
-1043.0178
-910.95464
-782.33318
-660.10545
-546.40003
-442.60517
-349.50306
-267.41959
-196.37222
-136.19505
-86.586677
-47.090401
-17.368651
1.8954003
9.4342229
-40.595502
-84.127148
-133.49115
-184.07004
-237.08788
-293.05297
-352.54156
-416.08543
-484.15854
-557.14066
-635.27208
-718.59804
-806.90493
-899.65521
-995.93943
-1094.4704
-1193.635
-1291.5939
-1386.3953
-1476.0639
-1558.6463
-1632.2098
-1694.8102
-1744.4435
-1779.0049
-1796.3013
-1794.1937
-1770.825
-1724.7864
-1655.5862
-1564.1763
-1453.2321
-1326.9988
-1190.7119
-1049.8413
-909.42594
-773.64346
-645.63659
-527.53709
-420.60867
-325.43849
-242.13253
-170.49413
-110.16491
-60.679775
-21.460643
7.9041656
26.823732
34.190997
-39.186
-81.205527
-128.95641
-178.00156
-229.57698
-284.23728
-342.61684
-405.32127
-472.91366
-545.87567
-624.55657
-709.10803
-799.40443
-894.95482
-994.83034
-1097.6467
-1201.6305
-1304.7572
-1404.9088
-1499.9923
-1587.9889
-1666.9349
-1734.8567
-1789.6813
-1829.1468
-1850.7725
-1851.9888
-1830.4104
-1784.0054
-1711.7092
-1614.2142
-1494.4633
-1357.4974
-1209.6431
-1057.4494
-906.79881
-762.38312
-627.54421
-504.37048
-393.928
-296.53028
-211.99144
-139.84077
-79.481309
-30.253123
8.5657197
37.490221
56.043858
63.248614
-37.653441
-77.930913
-123.79683
-171.03281
-220.89018
-273.97546
-330.98869
-392.62103
-459.54159
-532.35647
-611.55189
-697.41818
-789.951
-888.73173
-992.81685
-1100.6982
-1210.3873
-1319.6102
-1426.0328
-1527.423
-1621.7033
-1706.9071
-1781.0686
-1842.077
-1887.5231
-1914.605
-1920.2264
-1901.3233
-1855.0121
-1779.3761
-1674.6455
-1544.058
-1393.7394
-1231.5242
-1065.418
-902.39122
-747.74703
-605.01078
-476.14648
-361.91656
-262.25652
-176.59936
-104.13038
-43.96315
4.7914078
43.023736
71.374846
89.494172
96.516985
-35.748807
-74.004804
-117.69204
-162.83149
-210.68179
-261.90418
-317.27068
-377.56955
-443.59403
-516.1003
-595.74471
-682.9966
-778.01783
-880.50099
-989.49991
-1103.3489
-1219.7671
-1336.1397
-1449.8471
-1558.4921
-1659.9569
-1752.3186
-1833.6804
-1901.9527
-1954.6112
-1988.513
-1999.9353
-1984.9553
-1939.5403
-1860.5126
-1747.2974
-1603.4219
-1436.5075
-1256.5009
-1073.3829
-895.51881
-728.91355
-577.2178
-442.13787
-323.98093
-222.16724
-135.63948
-63.159497
-3.4980082
44.496608
81.904441
109.50755
127.08896
133.89267
-33.798626
-69.806216
-111.02785
-153.76787
-199.29475
-248.32725
-301.71447
-360.35243
-425.17731
-497.12401
-577.05817
-665.67852
-763.3741
-870.00852
-984.66014
-1105.4661
-1229.7462
-1354.4137
-1476.4673
-1593.3172
-1702.8402
-1803.2313
-1892.7562
-1969.4401
-2030.7076
-2073.0755
-2092.1038
-2082.7929
-2039.5857
-1957.4488
-1834.4243
-1674.2474
-1486.6343
-1284.5444
-1080.6575
-885.11609
-704.69066
-543.02746
-401.36505
-279.34221
-175.68586
-88.716537
-16.683799
42.039521
88.898517
125.17884
151.81133
168.71724
175.25
-31.32272
-64.748329
-103.16393
-143.16705
-186.01787
-232.49038
-283.51338
-340.10037
-403.35018
-474.40903
-554.39853
-644.3096
-744.8409
-856.11848
-977.29908
-1106.2777
-1239.8196
-1374.1694
-1505.8014
-1631.8965
-1750.3826
-1859.6801
-1958.3491
-2044.6713
-2116.1357
-2168.9573
-2197.9199
-2196.6909
-2157.7327
-2073.3255
-1939.1484
-1758.8897
-1545.2551
-1315.6017
-1086.3278
-869.81856
-673.60686
-501.08695
-352.70787
-227.14596
-122.20856
-35.439729
35.518339
92.743006
137.99744
172.78088
198.17309
214.23509
220.43262
-28.935344
-59.574991
-94.89803
-131.84682
-171.67518
-215.21014
-263.45963
-317.56063
-378.79198
-448.54474
-528.24817
-619.25843
-722.68938
-839.06424
-967.71672
-1106.2532
-1250.6595
-1396.2153
-1538.6635
-1674.922
-1803.0778
-1921.9453
-2030.5694
-2127.6999
-2211.0801
-2276.7106
-2318.5366
-2328.6706
-2297.0937
-2212.1923
-2065.652
-1860.4853
-1613.7494
-1349.407
-1089.0112
-847.73845
-633.73474
-449.70516
-294.82731
-166.41697
-61.081446
24.585986
93.645816
148.66935
191.75108
224.60064
248.43742
263.45907
269.24626
-25.834176
-53.29339
-85.133285
-118.63352
-155.00878
-195.12756
-240.07105
-291.10182
-349.69458
-417.52231
-496.38339
-588.08831
-694.30521
-816.16064
-953.35338
-1103.1787
-1260.5219
-1419.2472
-1574.0533
-1721.5574
-1860.1746
-1989.3362
-2108.797
-2218.0399
-2315.3462
-2396.6701
-2455.097
-2481.02
-2461.4977
-2379.419
-2219.7582
-1983.4125
-1693.8848
-1385.41
-1086.7046
-816.3326
-582.61616
-386.83336
-226.18364
-96.095829
8.3586507
91.722719
157.84472
209.81615
250.0584
280.47309
302.39857
316.15964
321.45243
-22.988264
-47.105585
-75.194204
-104.93101
-137.49251
-173.77993
-214.93901
-262.35442
-317.70622
-382.98363
-460.41847
-552.36996
-661.22075
-788.98785
-936.05528
-1099.4241
-1272.3862
-1446.6589
-1615.3977
-1774.8821
-1924.1581
-2063.6285
-2194.0747
-2316.1134
-2429.0548
-2529.1508
-2608.6686
-2656.1733
-2655.5155
-2582.0935
-2409.6776
-2133.8911
-1787.8783
-1422.5329
-1076.4503
-772.13842
-517.10648
-310.00235
-145.03279
-15.06457
86.748944
166.26566
228.18001
276.10004
312.74394
340.16727
359.79286
372.05524
376.76308
-19.233995
-39.566105
-63.483938
-89.028615
-117.28545
-149.16089
-185.84172
-228.81596
-279.96326
-341.61482
-416.50479
-507.64522
-618.31818
-751.84278
-909.86977
-1089.2874
-1281.1051
-1473.7726
-1658.1739
-1830.2917
-1990.3739
-2140.3276
-2282.2798
-2418.3713
-2549.5398
-2672.7616
-2779.4823
-2856.4148
-2884.4363
-2829.5603
-2647.2461
-2321.0872
-1898.5226
-1458.8318
-1053.8857
-710.45802
-433.22534
-216.29697
-49.466933
77.789669
174.63822
248.39177
304.59743
347.33023
379.54037
403.37516
420.29173
430.8076
434.83666
-15.909551
-32.36722
-51.889406
-72.946095
-96.528024
-123.52989
-155.16103
-192.99609
-239.10666
-296.1927
-367.57382
-457.02993
-568.92162
-708.3958
-879.3401
-1079.0097
-1295.059
-1510.7436
-1713.4127
-1898.7626
-2069.1471
-2228.6986
-2381.1217
-2530.4774
-2680.3857
-2829.6039
-2969.1767
-3084.3381
-3154.0989
-3134.0111
-2949.9601
-2559.1608
-2029.2978
-1490.9055
-1012.5346
-624.92461
-325.99159
-102.36337
62.502595
183.47663
272.40183
338.09606
386.87974
423.18042
450.07143
469.70191
483.49637
492.01883
495.27611
-11.483923
-23.591238
-38.294655
-54.438609
-72.848059
-94.363143
-120.16988
-151.87503
-191.68056
-242.61931
-308.63671
-394.36243
-505.33294
-649.10793
-833.41829
-1057.118
-1303.0125
-1546.0299
-1768.1208
-1964.9809
-2142.9742
-2309.8847
-2471.308
-2633.6118
-2804.7355
-2986.7701
-3170.348
-3338.4983
-3469.9067
-3511.2591
-3344.1367
-2870.7984
-2184.1432
-1512.8701
-942.74513
-506.96175
-189.29468
35.498621
192.78355
302.7506
380.12573
435.11299
474.5977
503.16014
523.83643
538.65834
548.93483
555.23095
557.62926
-7.5459447
-15.39924
-25.214327
-36.27258
-49.208236
-64.768022
-84.068872
-108.69878
-140.93281
-184.11069
-242.90315
-322.9823
-431.14896
-577.96547
-777.58711
-1033.2897
-1320.8801
-1601.2874
-1847.8978
-2056.6837
-2241.3071
-2415.2342
-2585.4241
-2759.5249
-2951.4775
-3168.7938
-3401.8414
-3630.6653
-3839.9341
-3979.4506
-3868.022
-3294.1303
-2367.8698
-1515.4535
-830.29337
-345.15973
-15.872033
201.09512
342.92642
435.89036
497.45824
538.82668
567.05992
586.58918
600.19887
609.65737
616.06264
619.92849
621.39208
-2.4940515
-5.6553959
-10.105276
-15.573796
-22.444949
-31.342335
-43.273796
-59.749309
-83.01292
-116.56742
-165.75601
-237.36408
-339.1802
-484.64149
-697.71887
-992.03937
-1333.7672
-1659.6114
-1930.103
-2142.1466
-2323.1199
-2495.6058
-2666.7929
-2843.1722
-3048.9948
-3303.174
-3599.0876
-3914.1976
-4241.4071
-4553.2176
-4583.0235
-3903.4784
-2589.3113
-1483.2203
-653.43095
-124.34836
202.50734
397.84715
513.68349
582.39887
623.43327
648.17736
663.26857
672.58003
678.38241
682.01642
684.268
685.54484
686.0154
2.9587945
3.9730022
4.5462812
4.3727996
3.3873708
1.154727
-3.1200937
-10.723957
-23.652219
-45.261042
-81.374225
-140.1307
-230.2732
-367.38821
-589.87753
-934.91039
-1357.8537
-1750.6933
-2054.89
-2266.9251
-2439.8807
-2611.559
-2788.5988
-2969.4139
-3193.9262
-3500.0127
-3883.2973
-4313.0923
-4763.9034
-5291.5202
-5573.8103
-4825.3578
-2837.302
-1376.2419
-376.92579
174.90844
474.14913
627.83444
704.34011
740.62133
756.28039
761.57925
761.89125
760.03436
757.47744
754.96737
752.88236
751.47264
750.91512
8.2851206
13.265342
19.323558
25.158016
31.020713
36.677955
41.595225
44.763222
44.510582
37.800023
18.452327
-23.538947
-98.146528
-220.10621
-443.94181
-853.46411
-1397.282
-1876.4148
-2210.7431
-2392.8795
-2530.4286
-2685.6835
-2862.7828
-3027.8151
-3238.6402
-3573.5318
-4023.714
-4561.7461
-5089.7119
-5960.3611
-6823.7182
-6299.5146
-3074.0129
-1170.9515
36.506702
572.65493
805.01207
890.17368
911.79915
907.31728
893.25932
876.87543
861.26385
847.66129
836.46185
827.67557
821.19689
817.0783
815.48599
17.84115
25.859728
36.761783
47.71981
59.416717
71.801483
84.631673
97.258648
108.5225
116.23602
114.96676
93.71565
41.62029
-49.538073
-244.67517
-715.15114
-1441.88
-2033.61
-2413.3731
-2545.7124
-2643.0183
-2787.1992
-2982.1461
-3113.6799
-3276.6776
-3677.699
-4224.3716
-4961.7035
-5679.3057
-7242.8541
-8882.0927
-9068.3528
-3578.1299
-1038.2195
635.19323
1099.0921
1197.351
1178.9795
1129.5275
1077.2886
1030.5876
991.36671
959.44131
934.02448
914.23868
899.26873
888.48491
881.72039
879.11842
22.150594
30.895274
46.136797
62.238305
80.171649
100.10841
122.29229
146.74804
173.26313
201.23874
227.41537
240.71491
225.96355
180.34589
45.408995
-483.28415
-1555.1587
-2311.4994
-2773.6626
-2771.0091
-2749.6658
-2813.1452
-3022.641
-3099.9059
-3207.1639
-3763.2636
-4232.9948
-5185.2221
-6470.8433
-7863.4478
-9589.1443
-12103.54
-4823.2658
-72.51501
1722.8307
1811.9827
1641.1422
1478.7602
1346.2297
1243.2035
1163.5573
1101.9566
1054.3115
1017.6218
989.69049
968.87454
954.02894
944.77074
941.21745
36.9371
46.533273
66.460159
87.314093
110.74818
137.07756
166.90677
200.72106
238.86236
281.66296
327.57495
365.35535
371.82696
347.26668
293.74203
-191.10927
-1818.0783
-2617.1353
-3115.4965
-2772.758
-2626.8085
-2732.543
-3131.7558
-3271.1277
-3302.4341
0
0
0
0
0
0
0
0
6202.3752
3402.4562
2582.4955
2068.2386
1755.8595
1545.1253
1396.0885
1287.0015
1205.4551
1143.7779
1096.9952
1061.747
1035.6642
1017.1505
1005.6369
1001.2225
35.366761
42.182776
64.028473
87.075169
113.20503
142.73987
176.57948
215.67682
261.07506
314.42492
377.59056
445.98975
502.80007
560.82631
710.68131
552.80463
-1996.7854
-2776.9629
-3646.9058
-2968.6377
-3044.3363
-3012.3246
0
0
0
0
0
0
0
0
0
0
10129.574
6286.2537
4123.9548
3000.3243
2361.3129
1969.1781
1709.0493
1527.5633
1396.2859
1299.0428
1225.9925
1170.8555
1129.4571
1098.8968
1077.2398
1063.7841
1058.6266
44.263808
54.950287
80.950102
106.97767
136.15451
169.03617
206.8759
251.10442
303.50644
367.08075
447.117
546.08898
653.2893
754.39184
842.19644
568.47357
-3108.226
-3581.5993
-3205.2812
0
0
0
0
0
0
0
0
0
0
0
1780.6718
3364.5943
5756.1164
5236.0896
3961.3824
3100.1684
2507.1431
2107.7401
1830.6544
1632.9921
1488.4298
1380.7309
1299.5698
1238.1936
1192.0515
1157.9577
1133.7808
1118.7536
1112.9926
22.19162
42.166368
66.37107
91.285003
118.75251
149.54742
184.74344
225.50557
273.13274
329.83017
399.50035
478.02778
537.53084
536.24847
558.10792
702.38734
0
0
0
0
0
0
-1132.0674
-1103.5231
-1011.3054
-917.55612
-790.08499
-495.29884
-94.947259
697.08388
2026.4398
3361.9106
4750.9873
4489.8576
3714.8021
3058.6866
2552.6655
2182.2203
1911.4457
1711.6615
1562.3547
1449.5321
1363.6925
1298.3451
1248.9835
1212.3855
1186.3705
1170.178
1163.9663
19.953998
50.022202
74.970531
100.54388
127.96169
158.0569
191.47983
228.66514
269.57227
313.41835
357.90019
396.56286
406.14986
338.09302
142.01922
-338.13394
-1284.4154
-1227.4733
-1147.1004
-1100.4773
-1051.0805
-1021.6123
-1010.3639
-803.28902
-838.68201
-583.18162
-362.34498
-204.6173
259.08283
904.85459
1960.2926
3049.3233
3956.5654
3851.8967
3404.2981
2933.5972
2528.4617
2206.0157
1956.7041
1765.4225
1618.5289
1505.3809
1418.1055
1351.0014
1299.9424
1261.8834
1234.7285
1217.7886
1211.284
20.663338
46.485448
72.120321
97.971861
125.28649
154.81527
187.1393
222.62517
261.25939
302.13452
342.03554
373.7363
384.81963
353.1595
205.21698
-227.92091
-792.30372
-920.95776
-962.54695
-966.14986
-887.80217
-842.31977
-818.54912
-691.79983
-620.94349
-417.5402
-179.14322
77.742982
510.88699
1096.4663
1896.1868
2721.5882
3334.8855
3356.8268
3105.6568
2777.1432
2463.3575
2193.8102
1973.5975
1797.6787
1658.5139
1548.9432
1463.0389
1396.1805
1344.8436
1306.3178
1278.698
1261.4186
1254.7758
14.996598
36.230628
58.797044
81.291096
104.29093
128.03561
152.53063
177.41616
201.79027
223.68955
238.89741
240.18182
218.24983
159.2155
15.076254
-283.91084
-606.90201
-732.46353
-784.5175
-794.28559
-753.12456
-703.47365
-642.23458
-537.76182
-423.88614
-238.24297
-11.49845
269.88392
668.60852
1187.7223
1823.2423
2450.8965
2889.5205
2967.0587
2834.9721
2613.0012
2376.1815
2157.6763
1969.1885
1812.3857
1684.4723
1581.3763
1499.091
1434.1698
1383.8001
1345.704
1318.2395
1300.9996
1294.3628
23.838373
46.444921
70.189925
93.656226
117.54432
141.96111
166.72611
191.21067
214.09603
232.81553
242.68486
236.67063
205.98957
135.39854
-7.2583042
-236.54993
-460.15366
-579.8048
-635.38231
-644.54013
-615.83399
-568.29221
-497.28064
-394.45966
-264.34884
-82.932686
139.16117
416.11359
777.0267
1223.7721
1735.5103
2221.7455
2557.2301
2658.5602
2599.6227
2454.8463
2280.1779
2107.1229
1949.7498
1813.469
1698.7943
1604.1109
1527.1063
1465.4577
1417.0851
1380.1847
1353.418
1336.5535
1330.0513
12.024212
29.927736
50.032246
70.035825
90.041126
109.92738
129.38634
147.74715
163.76107
175.18314
178.31622
168.06223
137.63933
74.655222
-40.054171
-203.50669
-358.80625
-456.74664
-506.07825
-514.23293
-488.9295
-440.00512
-365.68885
-262.60053
-128.53826
46.964407
261.85466
525.1911
849.67443
1232.3375
1648.6363
2032.8058
2301.9489
2411.5833
2398.1277
2308.5356
2183.1596
2048.9511
1920.3869
1804.4655
1703.8312
1618.6752
1548.0642
1490.6663
1445.0905
1410.0052
1384.387
1368.1815
1361.9234
21.407268
40.632454
60.854146
80.367802
99.453691
117.84359
135.02382
150.10195
161.62927
167.32406
163.94594
147.54918
113.08182
52.274463
-43.556061
-165.61443
-279.00253
-356.124
-395.68932
-400.4561
-375.18691
-324.72514
-248.67368
-145.28237
-11.773929
156.79266
361.0593
606.02211
895.9519
1224.4161
1567.8665
1878.5077
2101.9972
2212.1876
2227.1467
2176.7607
2089.8438
1988.0678
1885.1
1788.3899
1701.7413
1626.5698
1562.9909
1510.4911
1468.2867
1435.486
1411.37
1396.0509
1390.125
11.864148
27.968682
45.959802
63.611699
80.820624
97.232069
112.31684
125.22229
134.61743
138.51005
134.22535
118.55969
87.502994
35.680442
-40.001454
-130.43095
-213.52404
-271.83003
-300.84842
-300.62595
-273.46155
-221.63346
-145.03157
-42.510811
87.994477
248.90883
441.01391
666.3006
924.57429
1207.7345
1495.177
1752.1624
1942.6283
2049.764
2082.4754
2059.9383
2002.6783
1927.6336
1846.8495
1767.6917
1694.4094
1629.1884
1572.894
1525.6525
1487.1886
1456.9989
1434.6432
1420.3807
1414.8539
17.140364
33.237345
50.220052
66.364847
81.714423
95.88686
108.32943
118.22237
124.38357
125.18601
118.61274
102.36302
73.691713
29.626159
-29.988127
-97.381427
-158.1358
-200.4615
-219.38435
-213.53391
-183.55729
-130.34279
-53.763958
46.960628
173.1058
325.77684
505.17514
711.24652
941.41844
1187.1583
1431.2314
1648.3115
1813.9323
1916.494
1960.2188
1957.498
1922.9612
1869.6953
1807.8368
1744.3106
1683.4267
1627.7752
1578.7192
1536.8594
1502.3258
1474.944
1454.5176
1441.4279
1436.3465
11.965882
26.365742
42.104241
57.216675
71.535855
84.633879
95.95567
104.72803
109.89873
110.11386
103.80248
89.277217
64.758916
28.908007
-17.018952
-66.702994
-110.24944
-139.22828
-148.994
-137.55085
-104.5474
-50.079217
26.068283
124.39912
245.54614
389.7857
556.64751
744.7878
950.46884
1165.4735
1375.7036
1562.5377
1708.9274
1806.45
1856.8892
1868.2992
1851.1312
1815.4435
1769.5687
1719.7249
1670.096
1623.407
1581.325
1544.7832
1514.2211
1489.7316
1471.324
1459.4743
1454.866
13.672527
27.359605
41.871714
55.55083
68.315823
79.771314
89.415612
96.581362
100.40746
99.849331
93.764037
81.007718
60.560151
32.099093
-2.5887498
-38.475967
-68.501115
-86.407136
-88.10954
-71.430803
-35.489189
20.054421
95.479704
191.07408
307.00155
442.97375
597.9632
769.86589
954.48588
1144.302
1327.8971
1491.4047
1622.6063
1715.1568
1769.5578
1791.0638
1787.1666
1765.5773
1733.0734
1695.0581
1655.4636
1616.9946
1581.4711
1550.0423
1523.3735
1501.7675
1485.4001
1474.8152
1470.6914
11.353754
24.027863
37.645169
50.500636
62.432472
73.046914
81.88021
88.352241
91.760978
91.313007
86.206528
75.73325
59.446591
37.651659
12.276634
-12.651815
-31.896337
-40.644638
-35.404615
-14.037428
24.575834
80.988707
155.49879
248.21885
358.97874
487.10043
631.16279
788.66221
955.34915
1124.5376
1287
1432.2483
1551.2805
1639.1811
1695.7798
1724.5054
1730.7502
1720.4244
1699.0135
1671.127
1640.3516
1609.2938
1579.8157
1553.1934
1530.248
1511.4415
1497.08
1487.7494
1484.1078
11.407422
23.296026
35.923521
47.754415
58.666285
68.305151
76.268624
82.076938
85.182843
85.010725
81.03368
72.876836
60.48964
44.52263
26.847816
10.72168
0.16296155
-1.0278399
10.105818
35.554313
76.499129
133.57383
207.05536
296.91511
402.74698
523.60936
657.8356
802.75927
954.2973
1106.6007
1252.1846
1382.9756
1492.1646
1575.8548
1633.5316
1667.4215
1681.4225
1680.0722
1667.8004
1648.5065
1625.3923
1600.9186
1576.9179
1554.7271
1535.268
1519.1188
1506.6847
1498.5705
1495.3987
10.343706
21.515242
33.418524
44.560606
54.805758
63.829547
71.285891
76.787228
79.923118
80.301982
77.621029
71.763161
62.951601
52.020057
40.712273
31.705331
28.18254
33.206872
49.281683
78.204764
121.12249
178.66823
251.0729
338.19354
439.45925
553.75838
679.29337
813.3827
952.21557
1090.7116
1222.7516
1342.0033
1443.1852
1523.1436
1581.1973
1618.774
1638.7039
1644.483
1639.6905
1627.6168
1611.0829
1592.3714
1573.2516
1555.0723
1538.8131
1525.1351
1514.5166
1507.5612
1504.8395
9.9406156
20.47639
31.670352
42.130078
51.740152
60.213418
67.259864
72.575372
75.865521
76.887048
75.510804
71.807934
66.178799
59.538735
53.482023
50.250509
52.432271
62.544466
82.715621
114.54333
159.08989
216.9443
288.27842
372.85712
469.99633
578.48243
696.46794
821.34196
949.60231
1076.8387
1197.9928
1307.9984
1402.6586
1479.3701
1537.3816
1577.5853
1602.046
1613.4718
1614.7643
1608.7018
1597.7598
1584.0285
1569.1944
1554.5867
1541.2125
1529.7898
1520.8527
1514.9874
1512.6936
9.3564978
19.364714
30.008365
39.956395
49.101955
57.191969
63.988425
69.261696
72.81621
74.529606
74.408376
72.661629
69.802168
66.770234
65.018553
66.460081
73.249978
87.495977
111.02158
145.23613
191.09868
249.13319
319.44881
401.73688
495.23735
598.68234
710.22669
827.3733
946.92395
1065.0321
1177.4573
1280.0606
1369.4254
1443.3602
1501.0943
1543.1584
1571.0668
1586.9347
1593.1295
1592.0071
1585.7419
1576.2385
1565.0921
1553.5961
1542.7637
1533.3525
1525.9437
1521.0961
1519.2106
8.9349355
18.485968
28.650124
38.160533
46.922919
54.715787
61.346698
66.64874
70.50657
72.892583
73.915562
73.882182
73.373395
73.324165
75.062604
80.252537
90.730379
108.29491
134.52507
170.66377
217.56554
275.68354
345.06698
425.34935
515.72118
614.89198
721.0489
831.82351
944.29396
1055.0747
1160.5507
1257.2642
1342.3652
1413.9708
1471.3166
1514.6886
1545.2059
1564.5398
1574.6428
1577.5292
1575.1202
1569.1528
1561.1299
1552.3027
1543.6753
1536.0298
1529.9957
1526.1076
1524.6263
8.5491005
17.743469
27.539724
36.720674
45.201225
52.788227
59.328927
64.708888
68.87735
71.880268
73.902591
75.31875
76.749201
79.110144
83.626079
91.773429
105.15368
125.33352
153.69965
191.35503
239.05888
297.1973
365.76642
444.35525
532.12352
627.77738
729.54993
835.1977
942.03545
1047.0437
1147.0793
1239.1828
1320.9149
1390.6226
1447.5584
1491.8427
1524.312
1546.3087
1559.4682
1565.5346
1566.2223
1563.1246
1557.6593
1551.0354
1544.239
1538.0666
1533.2131
1530.2281
1529.1733
8.1798073
17.102111
26.616424
35.549444
43.821775
51.264983
57.759091
63.231338
67.680635
71.20789
74.053001
76.636248
79.599899
83.837893
90.492844
100.90279
116.49834
138.67489
168.67248
207.4822
255.78307
313.90332
381.79512
459.01429
544.70209
637.57133
735.90281
837.56245
940.05619
1040.6448
1136.5327
1225.119
1304.2585
1372.4661
1429.014
1473.9122
1507.7984
1531.7774
1547.2492
1555.7521
1558.8388
1557.9876
1554.5459
1549.689
1544.3862
1539.4368
1535.617
1533.5684
1533.0778
7.8074782
16.603289
25.940324
34.71254
42.847073
50.199455
56.676727
62.238195
66.919512
70.861089
74.340904
77.809052
81.918722
87.542821
95.762115
107.81646
125.01779
148.64109
179.82053
219.46375
268.18794
326.2761
393.64683
469.83257
553.96435
644.76519
740.55767
839.29461
938.62584
1036.0149
1128.9112
1214.9615
1292.2231
1359.3288
1415.5685
1460.8802
1495.767
1521.1691
1538.3194
1548.6079
1553.4682
1554.292
1552.3723
1548.859
1544.7055
1540.6823
1537.6141
1536.3937
1536.6789
7.3041733
16.167722
25.424222
34.111461
42.165288
49.465692
55.940496
61.571178
66.417492
70.644894
74.554692
78.614057
83.480414
90.010935
99.246483
112.36694
130.61068
155.17405
187.12095
227.30354
276.29723
334.35416
401.37042
476.86357
559.95929
649.38953
743.50701
840.32409
937.58609
1032.888
1123.8348
1208.2294
1284.2564
1350.6235
1406.6336
1452.1815
1487.6871
1513.9862
1532.2049
1543.6368
1549.6372
1551.5383
1550.5927
1547.9361
1544.5156
1541.0472
1538.3507
1537.9201
1540.1132
6.0814731
15.835505
25.143222
33.822874
41.846014
49.124663
55.600865
61.268293
66.199009
70.570995
74.697309
79.053871
84.300977
91.290628
101.04847
114.71824
133.49064
158.52513
190.8557
231.30763
280.43544
338.47559
405.31271
480.45678
563.03095
651.772
745.04838
840.90299
937.12951
1031.3887
1121.3626
1204.9314
1280.3425
1346.3408
1402.2365
1447.9045
1483.7239
1510.4799
1529.2466
1541.2704
1547.8635
1550.3272
1549.9022
1547.7276
1544.7605
1541.6761
1539.2604
1539.7834
1545.6256
-2227.7589
-2483.6255
-2699.5396
-2881.4843
-3023.9681
-3106.2151
-3108.226
-3029.2217
-2857.2789
-2664.0036
-3205.3893
-3205.2812
-3198.4358
-3187.4489
-3173.3347
-3160.5819
-3148.7461
-3158.2128
-3158.8149
-3131.4106
-3183.0316
-3181.9071
-3167.1527
-3150.1895
-3133.2744
-3124.2836
-3105.991
-3113.2081
-3100.0765
-3046.5504
-3137.8422
-3135.1801
-3126.5769
-3117.8812
-3109.0876
-3112.0998
-3101.0042
-3098.9716
-3085.5704
-3048.7085
-3078.15
-3076.7155
-3072.1699
-3066.2526
-3057.747
-3058.1471
-3057.8127
-3057.1426
-3055.6641
-3059.4009
-3030.1693
-3029.377
-3023.6162
-3013.455
-2998.2001
-2968.6377
-2990.8018
-3003.1026
-3009.7482
-3023.097
-3013.413
-3015.1071
-3018.3588
-3021.746
-3032.6627
-3008.5368
-3008.2149
-3004.5876
-2989.6694
-2966.6813
-3027.9233
-3029.5541
-3035.6399
-3044.3363
-3068.3863
-3076.1028
-3056.7216
-3030.7041
-3000.8673
-2965.4634
-3848.4529
-3860.7653
-3831.7265
-3787.3169
-3749.757
-3717.6919
-3696.1886
-3682.4624
-3673.5225
-3675.2646
-2986.9815
-2985.7894
-2977.9084
-2960.9534
-2921.5851
-2946.9461
-2958.9509
-2961.1436
-2950.6578
-2923.5509
-3009.2481
-3012.3246
-3018.6879
-3037.9312
-3013.9711
-3005.2507
-3001.299
-2993.8835
-2979.8933
-2964.7516
-3048.5067
-3050.9593
-3056.1372
-3080.7264
-3093.4961
-3069.4239
-3042.6919
-3022.4073
-3003.5385
-2987.0528
-2999.6595
-2995.8308
-2976.9419
-2951.661
-2974.598
-2992.079
-3003.3181
-3010.738
-3013.0011
-3020.0185
-3033.2652
-3035.7256
-3034.862
-2997.9708
-3007.1042
-3020.717
-3031.5172
-3038.7503
-3041.7997
-3051.3644
-3156.8902
-3164.6842
-3188.9175
-3187.4467
-3159.5469
-3131.7558
-3111.0624
-3095.6695
-3080.2521
-3063.0193
-3141.978
-3137.1433
-3129.6597
-3149.8308
-3150.4247
-3144.6319
-3138.4094
-3132.9744
-3126.9763
-3128.8787
-3162.7556
-3162.035
-3137.7505
-3147.9046
-3159.3503
-3167.4864
-3171.9065
-3173.7103
-3173.0008
-3177.7022
-3277.1164
-3289.5197
-3285.4689
-3271.1277
-3255.8059
-3243.765
-3235.0335
-3229.2399
-3222.4245
-3213.8642
-3282.489
-3286.5605
-3294.0151
-3285.9372
-3276.2941
-3270.7941
-3270.5589
-3275.0001
-3280.0408
-3292.3432
-3186.325
-3172.215
-3189.5514
-3215.4283
-3244.9017
-3273.5986
-3300.5725
-3325.1454
-3345.2982
-3370.2634
-3326.0533
-3302.4341
-3312.0416
-3332.3492
-3359.1126
-3384.3605
-3406.826
-3425.2573
-3437.7757
-3453.4906
-3701.675
-3692.6557
-3661.9569
-3627.8858
-3602.807
-3583.3217
-3571.2316
-3564.0737
-3557.9587
-3555.0927
-3016.6787
-3015.1531
-3009.7381
-2998.1198
-2992.6338
-2999.8926
-2999.5298
-2994.1792
-2984.947
-2983.9233
-3540.5387
-3549.1355
-3563.5698
-3610.8536
-3667.0292
-3718.8607
-3739.943
-3721.8039
-3638.1032
-3466.2536
-3268.759
-3268.9938
-3271.9433
-3276.8114
-3277.9221
-3277.026
-3275.0647
-3269.9201
-3265.7624
-3219.2853
-3179.5264
-3227.5525
-3289.667
-3394.3702
-3505.6955
-3592.5212
-3635.0769
-3595.2075
-3447.0642
-3214.6353
-3480.2775
-3490.321
-3511.2517
-3547.9509
-3581.5993
-3610.2588
-3618.8299
-3618.3251
-3582.547
-3470.1579
-3367.3458
-3371.7358
-3385.9153
-3409.8735
-3430.8344
-3448.4903
-3456.6159
-3446.197
-3433.5793
-3381.8278
11318.722
10715.547
10129.574
9489.9392
8832.846
8179.539
7545.1803
6936.7837
6347.344
5770.3041
8301.8484
8224.5315
8101.2595
7839.6075
7501.7191
7111.2849
6689.6065
6254.5661
5816.399
5360.001
-3709.5009
-3727.9365
-3745.3442
-3751.3106
-3759.9993
-3763.2636
-3768.0591
-3771.4949
-3772.8201
-3776.3117
-3705.8521
-3709.7033
-3745.0496
-3776.2803
-3815.3393
-3842.511
-3866.4373
-3882.4673
-3891.1148
-3895.3027
-3946.5156
-3939.2802
-3955.509
-3963.0861
-3991.466
-4009.8458
-4029.6727
-4042.6489
-4048.0683
-4043.6184
-4222.4233
-4212.0684
-4226.3372
-4216.9237
-4232.9948
-4234.8767
-4241.3994
-4242.448
-4238.8759
-4234.5148
-4544.8768
-4526.7372
-4538.4823
-4511.4472
-4515.2329
-4497.3861
-4484.9279
-4464.9009
-4437.2334
-4404.8728
-4901.1056
-4873.8834
-4883.4905
-4837.0693
-4828.6373
-4790.1483
-4757.3174
-4713.8954
-4659.2258
-4599.0148
-5281.8497
-5243.3993
-5252.0394
-5185.2221
-5165.672
-5107.5833
-5056.1879
-4992.7189
-4916.4636
-4831.1516
-5682.8603
-5630.7852
-5639.6099
-5550.5888
-5519.7719
-5441.5439
-5370.8776
-5288.4427
-5198.4687
-5115.9183
-6105.0441
-6035.9216
-6045.7707
-5931.7764
-5888.3057
-5787.8969
-5693.5294
-5583.5009
-5458.1877
-5322.5873
-6548.5004
-6458.4126
-6470.8433
-6329.1984
-6271.9442
-6149.0595
-6030.8965
-5896.7844
-5747.1782
-5585.4189
-7019.3415
-6902.2105
-6917.9745
-6744.4917
-6670.3455
-6522.7546
-6376.8533
-6214.6284
-6036.1369
-5850.2664
-7516.4403
-7366.2089
-7388.3264
-7179.887
-7085.7239
-6911.6635
-6733.8686
-6537.7862
-6319.165
-6081.8849