/*--------------------------------*- C++ -*----------------------------------*\
| =========                 |                                                 |
| \\      /  F ield         | foam-extend: Open Source CFD                    |
|  \\    /   O peration     | Version:     4.1                                |
|   \\  /    A nd           | Web:         http://www.foam-extend.org         |
|    \\/     M anipulation  |                                                 |
\*---------------------------------------------------------------------------*/
FoamFile
{
    version     2.0;
    format      ascii;
    class       surfaceScalarField;
    location    "3";
    object      phi;
}
// * * * * * * * * * * * * * * * * * * * * * * * * * * * * * * * * * * * * * //

dimensions      [0 3 -1 0 0 0 0];

internalField   nonuniform List<scalar> 
31929
(
-2.6209585e-05
-5.8435869e-08
-2.611003e-05
-9.9554808e-08
-2.6050602e-05
-5.9428285e-08
-2.5960123e-05
-9.0479184e-08
-2.5879985e-05
-8.0137767e-08
-2.5786287e-05
-9.3697849e-08
-2.5692435e-05
-9.3852253e-08
-2.5594107e-05
-9.8327722e-08
-2.5493869e-05
-1.0023802e-07
-2.5393507e-05
-1.0036235e-07
-2.5292718e-05
-1.0078852e-07
-2.5194513e-05
-9.8205454e-08
-2.5098243e-05
-9.6269594e-08
-2.5006618e-05
-9.1625882e-08
-2.49194e-05
-8.7217299e-08
-2.4838568e-05
-8.0832074e-08
-2.4764464e-05
-7.4103858e-08
-2.4699039e-05
-6.5425237e-08
-2.4642665e-05
-5.6374173e-08
-2.4596265e-05
-4.6399699e-08
-2.4560665e-05
-3.5600133e-08
-2.4538403e-05
-2.226169e-08
-2.4531121e-05
-7.2821707e-09
-2.4540674e-05
9.5524197e-09
-2.4567335e-05
2.666186e-08
-2.4610643e-05
4.3307829e-08
-2.4671022e-05
6.0378829e-08
-2.4749354e-05
7.8331674e-08
-2.4846663e-05
9.730931e-08
-2.4964078e-05
1.1741523e-07
-2.5102668e-05
1.3858928e-07
-2.5263496e-05
1.6082841e-07
-2.544754e-05
1.840439e-07
-2.5655725e-05
2.081856e-07
-2.5888881e-05
2.3315592e-07
-2.6147751e-05
2.5886963e-07
-2.6432969e-05
2.8521765e-07
-2.6745061e-05
3.120919e-07
-2.7084436e-05
3.393755e-07
-2.7451383e-05
3.6694727e-07
-2.7846071e-05
3.94688e-07
-2.826854e-05
4.2246844e-07
-2.8718708e-05
4.5016854e-07
-2.9196365e-05
4.7765726e-07
-2.9701171e-05
5.0480564e-07
-3.023265e-05
5.3147936e-07
-3.079019e-05
5.5753924e-07
-3.137303e-05
5.8284065e-07
-3.198026e-05
6.0722987e-07
-3.2610808e-05
6.3054769e-07
-3.3263434e-05
6.526265e-07
-3.3936727e-05
6.7329263e-07
-3.4629095e-05
6.9236773e-07
-3.5338767e-05
7.0967181e-07
-3.606379e-05
7.2502356e-07
-3.6802038e-05
7.382477e-07
-3.7551214e-05
7.4917606e-07
-3.8308866e-05
7.5765247e-07
-3.9072403e-05
7.6353714e-07
-3.9839114e-05
7.6671102e-07
-4.0606191e-05
7.6707703e-07
-4.1370759e-05
7.645674e-07
-4.2129903e-05
7.5914393e-07
-4.2880704e-05
7.5080161e-07
-4.3620275e-05
7.3957017e-07
-4.4345791e-05
7.2551607e-07
-4.5054534e-05
7.0874374e-07
-4.5743928e-05
6.8939344e-07
-4.6411572e-05
6.676446e-07
-4.7055285e-05
6.4371269e-07
-4.7673133e-05
6.1784835e-07
-4.8263469e-05
5.903361e-07
-4.8824961e-05
5.6149191e-07
-4.935662e-05
5.316591e-07
-4.9857827e-05
5.0120698e-07
-5.0328354e-05
4.7052681e-07
-5.0768381e-05
4.4002629e-07
-5.1178509e-05
4.1012827e-07
-5.1559771e-05
3.8126265e-07
-5.1913637e-05
3.538652e-07
-5.2242006e-05
3.2836927e-07
-5.2547212e-05
3.0520598e-07
-5.2832005e-05
2.8479283e-07
-5.3099543e-05
2.6753859e-07
-5.3353376e-05
2.5383222e-07
-5.3597424e-05
2.4404878e-07
-5.3835964e-05
2.385393e-07
-5.4073606e-05
2.3764244e-07
-5.431528e-05
2.4167353e-07
-5.4566224e-05
2.5094422e-07
-5.4831973e-05
2.6574934e-07
-5.5118371e-05
2.8639729e-07
-5.5431563e-05
3.131929e-07
-5.5778051e-05
3.4648802e-07
-5.6164703e-05
3.8665182e-07
-5.659886e-05
4.3415637e-07
-5.7088385e-05
4.8952571e-07
-5.7641886e-05
5.5350059e-07
-5.8268821e-05
6.2693479e-07
-5.8979962e-05
7.1114101e-07
-5.9787639e-05
8.076769e-07
-6.0706716e-05
9.1907748e-07
-6.1755116e-05
1.0484001e-06
-6.2955889e-05
1.2007728e-06
-6.4338233e-05
1.3823438e-06
-6.5941721e-05
1.6034881e-06
-6.7817941e-05
1.87622e-06
-7.0038573e-05
2.2206317e-06
-7.2696865e-05
2.6582925e-06
-7.5921796e-05
3.2249308e-06
-7.9875552e-05
3.9537556e-06
-8.4776208e-05
4.9006564e-06
-9.0880178e-05
6.1039704e-06
-9.8517468e-05
7.6372891e-06
-0.0001080349
9.5174363e-06
-0.00011985952
1.182462e-05
-0.00013435484
1.4495314e-05
-0.00015197377
1.7618928e-05
-0.00017290135
2.0927589e-05
-0.00019753608
2.4634722e-05
-0.00022530983
2.7773758e-05
-0.00025684453
3.1534692e-05
-0.00028730171
3.0457182e-05
3.5278891e-05
-7.9302951e-05
-1.3944066e-07
-7.9139287e-05
-2.6321867e-07
-7.899651e-05
-2.0220536e-07
-7.8816573e-05
-2.7041581e-07
-7.8637951e-05
-2.587602e-07
-7.8442435e-05
-2.892136e-07
-7.8243341e-05
-2.9294592e-07
-7.8038104e-05
-3.0356459e-07
-7.7831299e-05
-3.0704363e-07
-7.7625378e-05
-3.062829e-07
-7.7422429e-05
-3.0373778e-07
-7.7226045e-05
-2.945898e-07
-7.703788e-05
-2.8443439e-07
-7.6861858e-05
-2.6764756e-07
-7.6700439e-05
-2.4863636e-07
-7.6557294e-05
-2.2397707e-07
-7.6434415e-05
-1.969831e-07
-7.6334281e-05
-1.6555873e-07
-7.626039e-05
-1.3026574e-07
-7.6219139e-05
-8.7650424e-08
-7.6214655e-05
-4.0084038e-08
-7.6251191e-05
1.4274131e-08
-7.6328771e-05
7.0298152e-08
-7.6444278e-05
1.2505892e-07
-7.6598676e-05
1.8106021e-07
-7.6794582e-05
2.3921374e-07
-7.7034321e-05
3.0011757e-07
-7.7320357e-05
3.6436811e-07
-7.7655111e-05
4.3206331e-07
-7.8041063e-05
5.0336729e-07
-7.848062e-05
5.7814605e-07
-7.8976135e-05
6.5634354e-07
-7.9529816e-05
7.3772531e-07
-8.0143712e-05
8.2208112e-07
-8.081966e-05
9.0910438e-07
-8.1559253e-05
9.9846251e-07
-8.2363808e-05
1.0897727e-06
-8.3234324e-05
1.1826079e-06
-8.4171472e-05
1.2765232e-06
-8.5175548e-05
1.3710233e-06
-8.6246481e-05
1.4656217e-06
-8.738379e-05
1.5597772e-06
-8.8586594e-05
1.6529725e-06
-8.985359e-05
1.7446531e-06
-9.1183052e-05
1.8342677e-06
-9.2572828e-05
1.9212549e-06
-9.4020335e-05
2.0050469e-06
-9.5522569e-05
2.0850748e-06
-9.70761e-05
2.1607611e-06
-9.8677086e-05
2.2315337e-06
-0.00010032128
2.2968226e-06
-0.00010200406
2.3560688e-06
-0.00010372042
2.4087291e-06
-0.00010546504
2.4542891e-06
-0.00010723228
2.4922626e-06
-0.00010901624
2.5222129e-06
-0.00011081082
2.5437562e-06
-0.00011260974
2.5565738e-06
-0.00011440663
2.5604215e-06
-0.00011619506
2.5551424e-06
-0.00011796865
2.5406646e-06
-0.0001197211
2.5170196e-06
-0.00012144629
2.4843404e-06
-0.00012313836
2.4428665e-06
-0.00012479173
2.3929453e-06
-0.00012640125
2.3350323e-06
-0.0001279622
2.2696926e-06
-0.0001294704
2.1975897e-06
-0.00013092224
2.1194904e-06
-0.00013231478
2.0362549e-06
-0.00013364577
1.9488295e-06
-0.00013491367
1.8582407e-06
-0.00013611777
1.7655874e-06
-0.00013725813
1.6720263e-06
-0.00013833569
1.5787672e-06
-0.00013935223
1.4870613e-06
-0.00014031039
1.3981862e-06
-0.0001412137
1.3134397e-06
-0.00014206656
1.234123e-06
-0.00014287423
1.1615329e-06
-0.0001436428
1.0969456e-06
-0.00014437921
1.0416158e-06
-0.00014509117
9.967537e-07
-0.00014578717
9.6353321e-07
-0.00014647641
9.4307122e-07
-0.0001471688
9.3644159e-07
-0.00014787492
9.4465959e-07
-0.00014860599
9.6870891e-07
-0.00014937384
1.0095286e-06
-0.00015019095
1.0680564e-06
-0.00015107042
1.1452194e-06
-0.00015202602
1.2419951e-06
-0.00015307223
1.3594043e-06
-0.00015422435
1.4986071e-06
-0.00015549858
1.6608837e-06
-0.00015691221
1.8477846e-06
-0.00015848378
2.0610918e-06
-0.00016023336
2.3030774e-06
-0.00016218281
2.5763898e-06
-0.00016435621
2.8845447e-06
-0.00016678019
3.2316544e-06
-0.00016948449
3.6233734e-06
-0.00017250234
4.0662557e-06
-0.00017587121
4.5696374e-06
-0.00017963294
5.1440718e-06
-0.00018383451
5.8050657e-06
-0.00018852759
6.5692948e-06
-0.00019376889
7.4619285e-06
-0.00019961803
8.507436e-06
-0.00020613711
9.7440162e-06
-0.00021338495
1.1201592e-05
-0.00022141523
1.2930939e-05
-0.00023026403
1.4952767e-05
-0.00023994693
1.7320186e-05
-0.00025043348
2.0003984e-05
-0.00026164752
2.3038668e-05
-0.00027341239
2.6260184e-05
-0.00028547358
2.9680119e-05
-0.00029736385
3.2817852e-05
-0.00030852586
3.5796733e-05
-0.00031796376
3.7211655e-05
-0.00032462244
3.8193377e-05
-0.00032738076
3.3215495e-05
3.0478736e-05
-0.00013017919
-2.1220736e-07
-0.00013000661
-4.3580136e-07
-0.00012984239
-3.6641876e-07
-0.00012964423
-4.6857871e-07
-0.00012944418
-4.5881127e-07
-0.00012923088
-5.0251163e-07
-0.00012901642
-5.0740202e-07
-0.00012879956
-5.2042841e-07
-0.00012858631
-5.2029221e-07
-0.00012837905
-5.1354209e-07
-0.00012818231
-5.0047627e-07
-0.00012799987
-4.7703623e-07
-0.00012783566
-4.4864183e-07
-0.00012769354
-4.0976307e-07
-0.00012757698
-3.6519591e-07
-0.00012748992
-3.11037e-07
-0.00012743827
-2.4864102e-07
-0.00012742947
-1.7435446e-07
-0.00012746814
-9.1596511e-08
-0.00012755921
3.4212538e-09
-0.00012770268
1.0338166e-07
-0.0001278924
2.0399188e-07
-0.00012812942
3.0732296e-07
-0.00012841891
4.1454777e-07
-0.00012876451
5.266648e-07
-0.00012917003
6.4472929e-07
-0.00012963871
7.6879791e-07
-0.00013017373
8.993882e-07
-0.00013077817
1.0365043e-06
-0.00013145507
1.1802685e-06
-0.00013220735
1.330426e-06
-0.00013303778
1.486775e-06
-0.00013394892
1.648861e-06
-0.00013494303
1.8161903e-06
-0.00013602206
1.9881375e-06
-0.00013718757
2.163969e-06
-0.00013844068
2.3428825e-06
-0.00013978202
2.5239495e-06
-0.00014121172
2.7062228e-06
-0.00014272932
2.888628e-06
-0.00014433382
3.0701187e-06
-0.00014602357
3.2495274e-06
-0.00014779634
3.4257387e-06
-0.00014964926
3.5975718e-06
-0.00015157885
3.7638606e-06
-0.00015358103
3.923438e-06
-0.00015565113
4.0751467e-06
-0.00015778391
4.2178557e-06
-0.0001599736
4.3504509e-06
-0.00016221393
4.4718635e-06
-0.00016449818
4.5810696e-06
-0.00016681922
4.6771055e-06
-0.00016916956
4.7590781e-06
-0.00017154146
4.8261888e-06
-0.00017392693
4.8777283e-06
-0.00017631783
4.9131128e-06
-0.00017870596
4.9318871e-06
-0.00018108313
4.9337416e-06
-0.00018344123
4.9185225e-06
-0.00018577234
4.886252e-06
-0.00018806879
4.8371164e-06
-0.00019032326
4.7714933e-06
-0.00019252887
4.6899431e-06
-0.00019467921
4.5932125e-06
-0.0001967685
4.4822318e-06
-0.00019879158
4.358109e-06
-0.00020074401
4.2221307e-06
-0.00020262216
4.075736e-06
-0.00020442319
3.9205231e-06
-0.00020614517
3.7582283e-06
-0.00020778705
3.5907118e-06
-0.00020934875
3.4199441e-06
-0.00021083116
3.2479929e-06
-0.00021223613
3.0769952e-06
-0.00021356651
2.9091497e-06
-0.00021482614
2.7466955e-06
-0.00021601984
2.5918874e-06
-0.00021715339
2.4469848e-06
-0.00021823349
2.3142252e-06
-0.00021926777
2.1958083e-06
-0.0002202647
2.0938736e-06
-0.00022123357
2.0104938e-06
-0.00022218446
1.947639e-06
-0.00022312812
1.9071906e-06
-0.00022407595
1.8909091e-06
-0.00022503996
1.9004524e-06
-0.00022603266
1.9373507e-06
-0.00022706699
2.0030435e-06
-0.00022815632
2.0988592e-06
-0.00022931434
2.2260726e-06
-0.00023055501
2.3858916e-06
-0.00023189255
2.5795325e-06
-0.00023334135
2.8082121e-06
-0.00023491601
3.0732648e-06
-0.00023663125
3.3761183e-06
-0.00023850192
3.7184566e-06
-0.00024054301
4.1021782e-06
-0.00024276959
4.5296614e-06
-0.00024519684
5.0036391e-06
-0.00024783997
5.527678e-06
-0.0002507142
6.105887e-06
-0.00025383463
6.7437986e-06
-0.00025721606
7.4476836e-06
-0.00026087269
8.2262691e-06
-0.0002648177
9.089079e-06
-0.00026906242
1.0049785e-05
-0.00027361541
1.1122286e-05
-0.00027848067
1.2327194e-05
-0.00028365577
1.3682529e-05
-0.0002891283
1.521655e-05
-0.00029487269
1.6945979e-05
-0.00030084411
1.8902363e-05
-0.00030697396
2.1082621e-05
-0.00031316104
2.3507262e-05
-0.00031926659
2.6109534e-05
-0.00032510448
2.8876562e-05
-0.00033043641
3.1592108e-05
-0.00033496805
3.4211758e-05
-0.00033834061
3.6190416e-05
-0.00034014755
3.760367e-05
-0.00033995566
3.7019768e-05
-0.00033719267
3.5430386e-05
-0.00033227699
2.8299816e-05
2.0782547e-05
-0.00017681342
-2.4385963e-07
-0.00017669127
-5.5794804e-07
-0.00017657374
-4.8394734e-07
-0.00017643171
-6.1061421e-07
-0.00017629054
-5.999817e-07
-0.00017614438
-6.4866791e-07
-0.00017600367
-6.4811267e-07
-0.00017586865
-6.5544635e-07
-0.00017574574
-6.4320199e-07
-0.00017563733
-6.2195567e-07
-0.0001755484
-5.8940276e-07
-0.00017548216
-5.432795e-07
-0.00017544311
-4.8769322e-07
-0.00017543614
-4.1672837e-07
-0.00017546785
-3.3349026e-07
-0.00017554406
-2.3481903e-07
-0.00017566879
-1.2391096e-07
-0.0001758465
3.3545735e-09
-0.0001760763
1.3819615e-07
-0.00017635032
2.7744018e-07
-0.00017666971
4.2277412e-07
-0.00017704118
5.7546696e-07
-0.00017747021
7.3634673e-07
-0.00017796223
9.0656752e-07
-0.00017852112
1.0855585e-06
-0.00017915029
1.2738956e-06
-0.00017985308
1.4715964e-06
-0.00018063273
1.6790302e-06
-0.00018149229
1.8960678e-06
-0.0001824347
2.1226782e-06
-0.00018346267
2.358399e-06
-0.00018457868
2.6027823e-06
-0.00018578488
2.8550648e-06
-0.00018708305
3.1143611e-06
-0.00018847455
3.3796334e-06
-0.00018996022
3.6496343e-06
-0.00019154038
3.9230436e-06
-0.00019321475
4.1983193e-06
-0.00019498244
4.4739154e-06
-0.00019684188
4.7480729e-06
-0.00019879086
5.0190984e-06
-0.00020082645
5.2851084e-06
-0.00020294502
5.5443177e-06
-0.00020514231
5.7948571e-06
-0.00020741335
6.0348989e-06
-0.00020975255
6.2626416e-06
-0.00021215373
6.4763284e-06
-0.00021461016
6.6742778e-06
-0.00021711458
6.8548715e-06
-0.00021965931
7.0165998e-06
-0.0002222363
7.1580623e-06
-0.00022483719
7.2779895e-06
-0.00022745337
7.3752573e-06
-0.0002300761
7.4489193e-06
-0.00023269656
7.4981948e-06
-0.00023530597
7.5225165e-06
-0.00023789561
7.5215304e-06
-0.00024045698
7.4951137e-06
-0.00024298184
7.4433826e-06
-0.00024546231
7.3667166e-06
-0.00024789092
7.2657329e-06
-0.00025026075
7.14132e-06
-0.00025256543
6.9946201e-06
-0.00025479924
6.8270276e-06
-0.00025695719
6.6401806e-06
-0.00025903503
6.4359476e-06
-0.00026102933
6.216426e-06
-0.00026293749
5.9838998e-06
-0.00026475781
5.7408472e-06
-0.00026648949
5.4899081e-06
-0.00026813265
5.233863e-06
-0.00026968831
4.9756112e-06
-0.00027115847
4.7181524e-06
-0.00027254602
4.4645465e-06
-0.00027385478
4.217902e-06
-0.00027508943
3.9813474e-06
-0.00027625554
3.7579954e-06
-0.00027735948
3.5509276e-06
-0.00027840841
3.3631581e-06
-0.00027941021
3.1976106e-06
-0.00028037343
3.0570856e-06
-0.00028130719
2.9442552e-06
-0.00028222116
2.8616101e-06
-0.00028312544
2.8114765e-06
-0.0002840305
2.7959655e-06
-0.00028494705
2.8169976e-06
-0.00028588596
2.8762647e-06
-0.00028685819
2.9752761e-06
-0.00028787466
3.1153253e-06
-0.00028894614
3.2975586e-06
-0.00029008321
3.5229531e-06
-0.00029129607
3.7923994e-06
-0.00029259455
4.1066869e-06
-0.00029398791
4.4666299e-06
-0.00029548483
4.8730327e-06
-0.00029709323
5.3268572e-06
-0.00029882023
5.8291809e-06
-0.00030067202
6.3814478e-06
-0.00030265371
6.9853371e-06
-0.00030476924
7.6431985e-06
-0.00030702112
8.3577741e-06
-0.00030941028
9.1329552e-06
-0.00031193573
9.9731377e-06
-0.00031459413
1.0884668e-05
-0.00031737933
1.1874275e-05
-0.00032028138
1.2951838e-05
-0.00032328582
1.4126727e-05
-0.0003263717
1.5413075e-05
-0.00032951038
1.6821208e-05
-0.00033266199
1.8368153e-05
-0.00033577388
2.0057874e-05
-0.00033877499
2.1903474e-05
-0.00034157537
2.3882998e-05
-0.00034405864
2.5990527e-05
-0.0003460866
2.81375e-05
-0.00034749166
3.0281623e-05
-0.00034809463
3.2195073e-05
-0.00034769838
3.3815509e-05
-0.00034614149
3.4633525e-05
-0.00034326882
3.4731002e-05
-0.00033916328
3.2914234e-05
-0.00033378216
3.0049264e-05
-0.00032844878
2.2966432e-05
1.4914367e-05
-0.00021803482
-2.0109024e-07
-0.00021801773
-5.750442e-07
-0.0002180058
-4.958731e-07
-0.00021798348
-6.3293601e-07
-0.00021796774
-6.1572205e-07
-0.00021795677
-6.5963936e-07
-0.00021795823
-6.4664409e-07
-0.00021797316
-6.4052234e-07
-0.00021800689
-6.0946553e-07
-0.00021806196
-5.6688654e-07
-0.00021814393
-5.0744017e-07
-0.0002182567
-4.3050724e-07
-0.00021840542
-3.3897188e-07
-0.00021859337
-2.287737e-07
-0.00021882413
-1.0273411e-07
-0.0002191006
4.1646844e-08
-0.00021941991
1.9540508e-07
-0.00021977519
3.5863214e-07
-0.00022016932
5.3232102e-07
-0.00022060951
7.1763254e-07
-0.00022110187
9.1513809e-07
-0.00022165268
1.12628e-06
-0.00022226599
1.3496547e-06
-0.00022294491
1.5854856e-06
-0.00022369286
1.83351e-06
-0.00022451311
2.0941406e-06
-0.00022540871
2.367197e-06
-0.00022638252
2.6528422e-06
-0.00022743716
2.950712e-06
-0.00022857502
3.260535e-06
-0.00022979818
3.5815541e-06
-0.00023110839
3.9129955e-06
-0.00023250704
4.2537194e-06
-0.00023399506
4.6023804e-06
-0.00023557291
4.9574792e-06
-0.00023724048
5.3172047e-06
-0.00023899712
5.6796875e-06
-0.00024084155
6.0427435e-06
-0.00024277185
6.404217e-06
-0.00024478543
6.7616587e-06
-0.00024687908
7.1127399e-06
-0.00024904885
7.4548785e-06
-0.00025129018
7.7856531e-06
-0.00025359787
8.1025485e-06
-0.0002559661
8.4031305e-06
-0.00025838849
8.6850291e-06
-0.00026085813
8.9459651e-06
-0.00026336764
9.1837938e-06
-0.00026590926
9.3964901e-06
-0.00026847487
9.582209e-06
-0.0002710561
9.739287e-06
-0.00027364438
9.8662687e-06
-0.00027623104
9.9619216e-06
-0.0002788074
1.0025278e-05
-0.00028136481
1.005561e-05
-0.00028389479
1.0052491e-05
-0.00028638904
1.0015785e-05
-0.0002888396
9.9456682e-06
-0.00029123884
9.8426276e-06
-0.00029357962
9.7074903e-06
-0.00029585526
9.5413812e-06
-0.00029805971
9.345762e-06
-0.00030018749
9.1224022e-06
-0.00030223383
8.8733731e-06
-0.00030419468
8.6010314e-06
-0.00030606674
8.3079993e-06
-0.00030784747
7.9971589e-06
-0.00030953517
7.6715962e-06
-0.00031112893
7.3346075e-06
-0.00031262868
6.9896581e-06
-0.00031403517
6.6403532e-06
-0.00031534997
6.29041e-06
-0.00031657545
5.9436342e-06
-0.00031771477
5.6038689e-06
-0.00031877185
5.27498e-06
-0.00031975132
4.9608203e-06
-0.00032065851
4.6651843e-06
-0.00032149937
4.3917906e-06
-0.00032228045
4.1442333e-06
-0.00032300879
3.9259572e-06
-0.00032369192
3.7402147e-06
-0.00032433772
3.5900554e-06
-0.00032495437
3.4782539e-06
-0.00032555023
3.4073391e-06
-0.0003261338
3.379532e-06
-0.00032671357
3.3967683e-06
-0.00032729795
3.4606471e-06
-0.00032789516
3.572487e-06
-0.00032851311
3.7332782e-06
-0.00032915932
3.9437651e-06
-0.00032984078
4.2044115e-06
-0.00033056388
4.5154969e-06
-0.00033133428
4.8770919e-06
-0.00033215686
5.2892093e-06
-0.00033303559
5.7517606e-06
-0.00033397345
6.26472e-06
-0.00033497236
6.8280857e-06
-0.00033603302
7.4421164e-06
-0.0003371549
8.107213e-06
-0.00033833601
8.8243061e-06
-0.00033957283
9.5945976e-06
-0.00034086007
1.0420193e-05
-0.00034219044
1.1303514e-05
-0.00034355424
1.2248462e-05
-0.00034493896
1.3258992e-05
-0.00034632841
1.4341296e-05
-0.00034770221
1.5500519e-05
-0.00034903404
1.6744909e-05
-0.00035029109
1.8078259e-05
-0.00035143131
1.9508375e-05
-0.00035240338
2.1029943e-05
-0.00035314306
2.2643156e-05
-0.00035357586
2.4315792e-05
-0.00035361314
2.6027806e-05
-0.00035316193
2.7686291e-05
-0.00035212114
2.9240839e-05
-0.00035040644
3.048037e-05
-0.00034793972
3.1348794e-05
-0.00034471137
3.1405175e-05
-0.00034071399
3.0733615e-05
-0.00033617236
2.837261e-05
-0.00033112648
2.5003384e-05
-0.00032664902
1.8488973e-05
1.0845942e-05
-0.00025328721
-6.0840744e-08
-0.00025340969
-4.5256556e-07
-0.00025353848
-3.6708545e-07
-0.0002536712
-5.0021854e-07
-0.00025381442
-4.7249571e-07
-0.00025397004
-5.04024e-07
-0.00025414268
-4.7400165e-07
-0.00025433432
-4.4887899e-07
-0.00025454934
-3.9444565e-07
-0.0002547896
-3.266278e-07
-0.00025505867
-2.3837232e-07
-0.00025535853
-1.3064357e-07
-0.00025569304
-4.4655057e-09
-0.00025606071
1.388929e-07
-0.00025645762
2.941803e-07
-0.00025688159
4.6561337e-07
-0.00025733729
6.5110708e-07
-0.00025783128
8.5262734e-07
-0.0002583691
1.0701379e-06
-0.00025895679
1.3053195e-06
-0.00025959789
1.5562383e-06
-0.0002602948
1.8231961e-06
-0.00026105069
2.1055445e-06
-0.0002618688
2.4035939e-06
-0.00026275208
2.7167849e-06
-0.00026370322
3.0452818e-06
-0.0002647247
3.3886804e-06
-0.00026581873
3.7468744e-06
-0.00026698724
4.1192199e-06
-0.00026823185
4.5051434e-06
-0.00026955384
4.9035415e-06
-0.00027095411
5.313272e-06
-0.00027243318
5.7327898e-06
-0.00027399108
6.1602716e-06
-0.00027562735
6.5937553e-06
-0.00027734102
7.0308762e-06
-0.00027913058
7.4692412e-06
-0.0002809939
7.9060612e-06
-0.0002829283
8.3386213e-06
-0.00028493048
8.7638433e-06
-0.00028699658
9.1788341e-06
-0.00028912209
9.5803942e-06
-0.00029130199
9.9655537e-06
-0.00029353069
1.0331246e-05
-0.00029580209
1.0674529e-05
-0.00029810963
1.0992568e-05
-0.00030044633
1.1282667e-05
-0.00030280486
1.1542325e-05
-0.00030517759
1.1769216e-05
-0.00030755665
1.1961266e-05
-0.00030993401
1.2116653e-05
-0.00031230158
1.2233833e-05
-0.00031465122
1.2311564e-05
-0.00031697488
1.2348942e-05
-0.00031926465
1.2345376e-05
-0.00032151281
1.2300652e-05
-0.00032371194
1.2214915e-05
-0.00032585496
1.2088691e-05
-0.00032793521
1.1922878e-05
-0.0003299465
1.1718777e-05
-0.00033188315
1.1478035e-05
-0.00033374007
1.1202685e-05
-0.00033551278
1.0895109e-05
-0.00033719743
1.0558026e-05
-0.00033879087
1.0194469e-05
-0.00034029063
9.8077562e-06
-0.00034169495
9.4014848e-06
-0.00034300282
8.9794601e-06
-0.00034421391
8.5457027e-06
-0.00034532865
8.1043984e-06
-0.00034634816
7.6598624e-06
-0.00034727426
7.2165069e-06
-0.00034810944
6.778812e-06
-0.00034885684
6.3512676e-06
-0.00034952021
5.9383531e-06
-0.00035010389
5.5444992e-06
-0.00035061274
5.1740314e-06
-0.0003510521
4.8311528e-06
-0.00035142775
4.5198827e-06
-0.00035174582
4.2440341e-06
-0.00035201276
4.0071478e-06
-0.0003522352
3.8125023e-06
-0.00035241997
3.6630203e-06
-0.00035257393
3.5613015e-06
-0.00035270394
3.5095343e-06
-0.0003528167
3.5095338e-06
-0.00035291873
3.5626759e-06
-0.00035301621
3.6699714e-06
-0.00035311494
3.8320002e-06
-0.00035322019
4.0490159e-06
-0.00035333667
4.3208945e-06
-0.00035346843
4.6472549e-06
-0.00035361876
5.02742e-06
-0.00035379013
5.4605869e-06
-0.00035398414
5.9457622e-06
-0.00035420136
6.481949e-06
-0.0003544414
7.0681183e-06
-0.00035470271
7.7034337e-06
-0.00035498263
8.3871293e-06
-0.00035527718
9.1188592e-06
-0.00035558105
9.8984669e-06
-0.00035588737
1.0726508e-05
-0.00035618758
1.1603724e-05
-0.00035647108
1.2531968e-05
-0.00035672503
1.3512936e-05
-0.00035693361
1.4549875e-05
-0.0003570778
1.5644707e-05
-0.00035713416
1.6801275e-05
-0.00035707473
1.8018823e-05
-0.00035686518
1.9298834e-05
-0.00035646567
2.0630425e-05
-0.00035582853
2.2006015e-05
-0.00035490192
2.3389185e-05
-0.00035362754
2.4753432e-05
-0.0003519509
2.6009645e-05
-0.00034981787
2.710781e-05
-0.00034719936
2.7861863e-05
-0.00034407649
2.8225925e-05
-0.00034050492
2.7833604e-05
-0.00033653562
2.6764315e-05
-0.00033244077
2.4277754e-05
-0.00032832596
2.0888584e-05
-0.00032501745
1.5180459e-05
8.4090912e-06
-0.00028246256
1.7924384e-07
-0.00028272525
-1.8987735e-07
-0.00028299559
-9.6749087e-08
-0.00028328147
-2.1433267e-07
-0.00028357977
-1.7419818e-07
-0.00028389437
-1.8942064e-07
-0.00028422659
-1.4178146e-07
-0.00028457839
-9.7079249e-08
-0.00028495238
-2.0456468e-08
-0.00028534859
6.9580642e-08
-0.00028576614
1.7917824e-07
-0.00028620315
3.063671e-07
-0.00028665906
4.5144324e-07
-0.00028713595
6.1578397e-07
-0.0002876393
7.9752603e-07
-0.00028817261
9.9892742e-07
-0.00028874106
1.2195552e-06
-0.00028934932
1.4608846e-06
-0.00029000002
1.7208443e-06
-0.0002906949
2.0001989e-06
-0.00029143675
2.2980805e-06
-0.00029222849
2.6149418e-06
-0.00029307276
2.9498115e-06
-0.00029397189
3.3027228e-06
-0.00029492816
3.6730549e-06
-0.0002959436
4.0607281e-06
-0.00029702002
4.4650949e-06
-0.0002981589
4.8857558e-06
-0.00029936143
5.3217505e-06
-0.00030062847
5.7721789e-06
-0.00030196049
6.2355702e-06
-0.00030335763
6.7104081e-06
-0.00030481959
7.1947475e-06
-0.00030634563
7.686309e-06
-0.00030793457
8.182702e-06
-0.00030958475
8.6810583e-06
-0.00031129403
9.1785217e-06
-0.00031305975
9.6717732e-06
-0.00031487875
1.0157621e-05
-0.00031674736
1.0632454e-05
-0.00031866144
1.1092912e-05
-0.00032061633
1.1535286e-05
-0.00032260694
1.1956165e-05
-0.00032462773
1.2352042e-05
-0.00032667278
1.2719579e-05
-0.0003287358
1.3055585e-05
-0.00033081019
1.3357054e-05
-0.00033288909
1.3621228e-05
-0.00033496546
1.3845581e-05
-0.00033703209
1.4027898e-05
-0.00033908171
1.4166279e-05
-0.00034110705
1.425917e-05
-0.00034310087
1.430538e-05
-0.00034505605
1.4304127e-05
-0.00034696568
1.4255001e-05
-0.00034882306
1.4158035e-05
-0.00035062183
1.4013681e-05
-0.00035235596
1.3822825e-05
-0.00035401986
1.3586779e-05
-0.00035560839
1.3307307e-05
-0.00035711691
1.2986555e-05
-0.00035854132
1.2627096e-05
-0.0003598781
1.2231882e-05
-0.0003611243
1.1804225e-05
-0.0003622776
1.1347769e-05
-0.0003633363
1.0866457e-05
-0.00036429933
1.0364517e-05
-0.00036516626
9.8463871e-06
-0.00036593727
9.316715e-06
-0.00036661317
8.7803053e-06
-0.00036719539
8.2420765e-06
-0.00036768591
7.7070259e-06
-0.00036808729
7.180194e-06
-0.00036840263
6.6666032e-06
-0.0003686355
6.1712311e-06
-0.00036878998
5.6989712e-06
-0.00036887051
5.2545667e-06
-0.00036888195
4.842596e-06
-0.00036882947
4.4673939e-06
-0.00036871847
4.1330418e-06
-0.00036855462
3.8432919e-06
-0.00036834368
3.6015667e-06
-0.00036809149
3.4108287e-06
-0.00036780385
3.2736588e-06
-0.00036748647
3.1921605e-06
-0.00036714493
3.1679893e-06
-0.00036678452
3.2022655e-06
-0.00036641022
3.2956773e-06
-0.00036602661
3.4483903e-06
-0.00036563778
3.660183e-06
-0.00036524726
3.9303697e-06
-0.00036485795
4.2579491e-06
-0.00036447207
4.6415387e-06
-0.0003640911
5.0796148e-06
-0.00036371576
5.5704287e-06
-0.000363346
6.1121849e-06
-0.00036298089
6.7030106e-06
-0.00036261863
7.3411722e-06
-0.00036225648
8.0249823e-06
-0.00036189074
8.7531187e-06
-0.00036151667
9.5243902e-06
-0.00036112834
1.0338185e-05
-0.00036071861
1.1193995e-05
-0.00036027879
1.2092141e-05
-0.00035979851
1.3032657e-05
-0.00035926524
1.4016608e-05
-0.00035866412
1.5043591e-05
-0.00035797714
1.6114288e-05
-0.0003571832
1.7224887e-05
-0.00035625703
1.837266e-05
-0.00035517021
1.9543607e-05
-0.00035388991
2.0725721e-05
-0.00035238257
2.1881837e-05
-0.0003506123
2.2983165e-05
-0.0003485502
2.3947546e-05
-0.00034617016
2.4727773e-05
-0.00034347021
2.5161909e-05
-0.00034045385
2.5209564e-05
-0.00033718709
2.4566847e-05
-0.00033371807
2.3295292e-05
-0.00033027118
2.083087e-05
-0.00032693258
1.7549983e-05
-0.00032431414
1.2562018e-05
6.6757496e-06
-0.00030575649
5.1516767e-07
-0.00030614424
1.9787515e-07
-0.00030653166
2.9066401e-07
-0.00030694052
1.9453073e-07
-0.00030735946
2.4474137e-07
-0.00030779323
2.4434884e-07
-0.00030823944
3.0442505e-07
-0.00030869845
3.6193321e-07
-0.00030916996
4.5105213e-07
-0.0003096544
5.5402118e-07
-0.00031015474
6.7952432e-07
-0.00031067282
8.244457e-07
-0.00031121114
9.8975866e-07
-0.00031177251
1.1771551e-06
-0.00031236093
1.3859441e-06
-0.00031297904
1.61704e-06
-0.00031362858
1.8690962e-06
-0.0003143109
2.1431985e-06
-0.00031502849
2.4384423e-06
-0.00031578383
2.7555406e-06
-0.00031657906
3.0933096e-06
-0.00031741599
3.4518672e-06
-0.00031829656
3.830378e-06
-0.00031922258
4.2287467e-06
-0.00032019569
4.6461685e-06
-0.00032121727
5.0823084e-06
-0.00032228843
5.536253e-06
-0.00032340998
6.0073021e-06
-0.0003245824
6.4941772e-06
-0.00032580588
6.9956542e-06
-0.00032708022
7.5099074e-06
-0.00032840488
8.0350684e-06
-0.00032977896
8.5688263e-06
-0.00033120114
9.1084943e-06
-0.00033266975
9.6513113e-06
-0.00033418267
1.0193978e-05
-0.00033573741
1.0733256e-05
-0.00033733102
1.126539e-05
-0.00033896021
1.1786807e-05
-0.00034062122
1.2293468e-05
-0.00034230996
1.2781655e-05
-0.00034402194
1.3247261e-05
-0.00034575232
1.3686545e-05
-0.00034749595
1.409567e-05
-0.00034924738
1.4471008e-05
-0.0003510009
1.4809112e-05
-0.00035275061
1.5106762e-05
-0.00035449042
1.5361035e-05
-0.00035621412
1.5569278e-05
-0.00035791543
1.5729209e-05
-0.00035958806
1.5838911e-05
-0.00036122576
1.5896868e-05
-0.00036282235
1.5901978e-05
-0.00036437184
1.5853611e-05
-0.00036586839
1.5751556e-05
-0.00036730646
1.5596097e-05
-0.00036868076
1.5387988e-05
-0.0003699864
1.512846e-05
-0.00037121883
1.4819215e-05
-0.00037237397
1.4462442e-05
-0.00037344816
1.4060743e-05
-0.00037443824
1.3617178e-05
-0.00037534156
1.3135206e-05
-0.000376156
1.2618662e-05
-0.00037687996
1.2071728e-05
-0.00037751239
1.149889e-05
-0.0003780528
1.0904922e-05
-0.00037850121
1.0294803e-05
-0.00037885822
9.6737156e-06
-0.0003791249
9.0469897e-06
-0.00037930287
8.4200511e-06
-0.00037939424
7.7983879e-06
-0.00037940155
7.1875068e-06
-0.00037932782
6.5928721e-06
-0.00037917646
6.0198713e-06
-0.00037895126
5.4737781e-06
-0.00037865637
4.959675e-06
-0.00037829622
4.4824434e-06
-0.0003778755
4.0466725e-06
-0.00037739912
3.6566612e-06
-0.00037687211
3.3162839e-06
-0.00037629961
3.0290624e-06
-0.00037568679
2.7980123e-06
-0.00037503885
2.6257147e-06
-0.00037436085
2.5141669e-06
-0.00037365771
2.4648507e-06
-0.00037293408
2.478632e-06
-0.0003721943
2.5558965e-06
-0.00037144233
2.6964248e-06
-0.00037068172
2.8995705e-06
-0.0003699155
3.1641485e-06
-0.00036914619
3.4886364e-06
-0.00036837573
3.8710826e-06
-0.00036760549
4.3093784e-06
-0.00036683616
4.8010982e-06
-0.00036606773
5.3437467e-06
-0.00036529948
5.9347613e-06
-0.00036453003
6.5717211e-06
-0.00036375725
7.2522051e-06
-0.00036297823
7.9741002e-06
-0.00036218924
8.7353955e-06
-0.00036138561
9.5345622e-06
-0.00036056172
1.0370102e-05
-0.00035971072
1.1241136e-05
-0.00035882446
1.2146403e-05
-0.00035789314
1.3085284e-05
-0.00035690518
1.4055637e-05
-0.00035584669
1.505579e-05
-0.00035470158
1.6079783e-05
-0.00035345085
1.7121932e-05
-0.00035207361
1.8166359e-05
-0.00035054613
1.9198241e-05
-0.00034884516
2.0180871e-05
-0.00034694656
2.1084565e-05
-0.00034483342
2.1834404e-05
-0.00034249183
2.2386187e-05
-0.00033993047
2.2600542e-05
-0.00033716256
2.2441656e-05
-0.00033425875
2.1663035e-05
-0.00033127524
2.0311783e-05
-0.00032841406
1.7969688e-05
-0.00032577275
1.4908681e-05
-0.00032378054
1.0569802e-05
5.4758107e-06
-0.00032356307
9.2580608e-07
-0.00032403709
6.7189827e-07
-0.00032450266
7.5623926e-07
-0.0003249907
6.8257118e-07
-0.00032548278
7.3681745e-07
-0.00032598752
7.490856e-07
-0.00032650067
8.1757842e-07
-0.00032702485
8.8611615e-07
-0.00032756018
9.8637522e-07
-0.00032810836
1.1022026e-06
-0.00032867163
1.2427993e-06
-0.00032925189
1.4047016e-06
-0.00032985136
1.5892298e-06
-0.00033047113
1.7969287e-06
-0.00033111251
2.0273209e-06
-0.00033177693
2.2814605e-06
-0.00033246656
2.558726e-06
-0.00033318328
2.8599161e-06
-0.00033392872
3.1838822e-06
-0.00033470418
3.5310008e-06
-0.00033551124