/*--------------------------------*- C++ -*----------------------------------*\
| =========                 |                                                 |
| \\      /  F ield         | foam-extend: Open Source CFD                    |
|  \\    /   O peration     | Version:     4.1                                |
|   \\  /    A nd           | Web:         http://www.foam-extend.org         |
|    \\/     M anipulation  |                                                 |
\*---------------------------------------------------------------------------*/
FoamFile
{
    version     2.0;
    format      ascii;
    class       volScalarField;
    location    "3";
    object      rAU;
}
// * * * * * * * * * * * * * * * * * * * * * * * * * * * * * * * * * * * * * //

dimensions      [0 0 1 0 0 0 0];

internalField   nonuniform List<scalar> 
16126
(
0.00049588251
0.0004954646
0.00049546772
0.0004954696
0.00049547244
0.00049547497
0.00049547791
0.00049548087
0.00049548395
0.00049548712
0.00049549027
0.00049549345
0.00049549653
0.00049549957
0.00049550244
0.00049550519
0.00049550773
0.00049551007
0.00049551213
0.00049551391
0.00049551536
0.00049551649
0.00049551719
0.00049551713
0.00049551629
0.00049551493
0.00049551303
0.00049551058
0.00049550751
0.00049550383
0.00049549946
0.00049549441
0.00049548863
0.00049548208
0.00049547475
0.00049546661
0.00049545765
0.00049544783
0.00049543717
0.00049542562
0.00049541322
0.00049539993
0.00049538578
0.00049537077
0.0004953549
0.00049533819
0.00049532067
0.00049530235
0.00049528326
0.00049526345
0.00049524294
0.00049522178
0.00049520003
0.00049517773
0.00049515496
0.00049513177
0.00049510824
0.00049508444
0.00049506046
0.00049503639
0.0004950123
0.0004949883
0.00049496447
0.0004949409
0.00049491769
0.00049489492
0.00049487268
0.00049485105
0.0004948301
0.0004948099
0.00049479052
0.000494772
0.00049475439
0.00049473772
0.000494722
0.00049470724
0.00049469344
0.00049468058
0.00049466862
0.00049465753
0.00049464723
0.00049463766
0.00049462873
0.00049462035
0.00049461239
0.00049460474
0.00049459726
0.00049458981
0.00049458224
0.00049457437
0.00049456604
0.00049455706
0.00049454725
0.00049453639
0.00049452427
0.00049451067
0.00049449533
0.00049447799
0.00049445835
0.00049443607
0.00049441077
0.00049438198
0.00049434915
0.00049431155
0.00049426828
0.00049421809
0.00049415938
0.0004940899
0.00049400676
0.00049390594
0.00049378239
0.00049362933
0.00049343883
0.00049320067
0.00049290421
0.00049253638
0.00049208621
0.00049154015
0.00049089312
0.00049013365
0.00048928021
0.00048831481
0.00048738601
0.00048591085
0.00049515321
0.00049473596
0.00049474234
0.00049474586
0.00049475181
0.000494757
0.00049476312
0.00049476923
0.0004947756
0.0004947821
0.00049478853
0.000494795
0.00049480121
0.00049480727
0.00049481292
0.0004948182
0.0004948229
0.00049482704
0.00049483046
0.00049483311
0.00049483473
0.00049483487
0.00049483243
0.00049482853
0.00049482314
0.00049481649
0.00049480843
0.00049479892
0.00049478781
0.0004947751
0.00049476064
0.00049474441
0.00049472634
0.00049470633
0.00049468437
0.00049466038
0.00049463435
0.00049460622
0.00049457601
0.00049454367
0.00049450927
0.00049447277
0.00049443423
0.0004943937
0.00049435122
0.00049430688
0.00049426076
0.00049421296
0.00049416359
0.00049411277
0.00049406066
0.00049400739
0.00049395313
0.00049389806
0.00049384236
0.00049378621
0.00049372981
0.00049367337
0.00049361708
0.00049356115
0.00049350579
0.00049345119
0.00049339754
0.00049334502
0.00049329382
0.00049324407
0.00049319594
0.00049314954
0.00049310498
0.00049306235
0.00049302169
0.00049298306
0.00049294646
0.00049291189
0.00049287929
0.0004928486
0.00049281973
0.00049279255
0.00049276691
0.00049274263
0.00049271951
0.00049269733
0.00049267581
0.0004926547
0.00049263369
0.00049261247
0.00049259068
0.00049256798
0.00049254398
0.00049251829
0.0004924905
0.00049246016
0.00049242682
0.00049238999
0.00049234916
0.00049230378
0.00049225325
0.00049219695
0.00049213417
0.00049206412
0.00049198593
0.00049189862
0.00049180106
0.00049169196
0.00049156983
0.00049143293
0.00049127931
0.00049110663
0.00049091242
0.00049069371
0.00049044774
0.00049017121
0.00048986194
0.00048951731
0.00048913789
0.00048872373
0.00048828233
0.00048781888
0.00048735588
0.00048690378
0.00048652202
0.00048620621
0.0004861553
0.0004857512
0.00049355766
0.00049314027
0.00049314753
0.00049315054
0.00049315706
0.00049316236
0.00049316888
0.00049317525
0.00049318188
0.00049318857
0.00049319509
0.00049320153
0.00049320752
0.00049321319
0.00049321819
0.00049322262
0.00049322616
0.00049322878
0.00049323014
0.0004932302
0.00049322571
0.00049321939
0.00049321024
0.00049319954
0.00049318701
0.00049317259
0.00049315608
0.00049313744
0.00049311649
0.00049309321
0.00049306743
0.00049303914
0.00049300827
0.00049297467
0.0004929384
0.00049289933
0.00049285752
0.00049281288
0.0004927655
0.00049271534
0.00049266253
0.00049260706
0.00049254907
0.00049248864
0.0004924259
0.00049236101
0.00049229413
0.00049222544
0.00049215513
0.00049208342
0.00049201054
0.00049193673
0.00049186223
0.00049178731
0.00049171223
0.00049163725
0.00049156263
0.00049148865
0.00049141556
0.0004913436
0.00049127303
0.00049120405
0.00049113688
0.00049107171
0.0004910087
0.000490948
0.00049088973
0.00049083397
0.00049078079
0.00049073021
0.00049068225
0.00049063686
0.000490594
0.00049055356
0.00049051541
0.00049047941
0.00049044535
0.00049041302
0.00049038219
0.00049035255
0.00049032383
0.00049029568
0.00049026777
0.00049023973
0.00049021117
0.0004901817
0.00049015088
0.0004901183
0.00049008351
0.00049004607
0.00049000553
0.0004899614
0.00048991323
0.00048986053
0.0004898028
0.00048973956
0.00048967028
0.00048959445
0.00048951152
0.00048942092
0.00048932207
0.00048921434
0.00048909709
0.00048896962
0.0004888312
0.00048868104
0.00048851839
0.00048834238
0.00048815237
0.00048794761
0.00048772799
0.00048749338
0.00048724528
0.00048698519
0.00048671825
0.00048644909
0.00048618988
0.00048594916
0.00048575225
0.0004856076
0.00048557064
0.00048562447
0.00048592361
0.00048589637
0.00049210529
0.00049168598
0.00049169189
0.0004916924
0.00049169707
0.00049170012
0.00049170447
0.00049170846
0.00049171262
0.00049171666
0.0004917204
0.00049172391
0.00049172682
0.00049172927
0.00049173085
0.00049173157
0.00049173112
0.00049172951
0.00049172237
0.00049171383
0.00049170082
0.00049168623
0.00049166972
0.0004916512
0.0004916304
0.0004916073
0.00049158168
0.00049155354
0.00049152267
0.00049148909
0.00049145261
0.00049141326
0.00049137097
0.00049132562
0.00049127731
0.00049122592
0.00049117159
0.00049111423
0.00049105402
0.00049099092
0.00049092517
0.00049085677
0.00049078596
0.00049071287
0.00049063769
0.00049056064
0.00049048194
0.00049040185
0.00049032062
0.00049023851
0.00049015581
0.00049007281
0.00048998979
0.00048990707
0.00048982492
0.00048974363
0.00048966348
0.00048958475
0.00048950768
0.00048943253
0.00048935951
0.00048928881
0.00048922063
0.0004891551
0.00048909235
0.00048903246
0.00048897553
0.00048892156
0.00048887056
0.0004888225
0.00048877732
0.00048873493
0.0004886952
0.00048865797
0.00048862306
0.00048859026
0.00048855933
0.00048852999
0.00048850198
0.00048847496
0.00048844863
0.00048842263
0.00048839661
0.00048837021
0.00048834305
0.00048831475
0.00048828493
0.00048825323
0.00048821925
0.00048818264
0.00048814304
0.0004881001
0.00048805348
0.00048800287
0.00048794796
0.00048788845
0.00048782408
0.00048775459
0.00048767974
0.00048759932
0.00048751311
0.00048742095
0.00048732265
0.00048721809
0.00048710716
0.00048698975
0.00048686589
0.0004867356
0.00048659921
0.0004864571
0.00048631035
0.00048616017
0.00048600938
0.00048586088
0.00048572086
0.00048559478
0.00048549454
0.00048542739
0.00048541466
0.00048545873
0.00048560037
0.00048581108
0.00048618829
0.00048618987
0.00049083083
0.00049040862
0.0004904114
0.00049040789
0.00049040888
0.0004904079
0.00049040822
0.00049040798
0.00049040787
0.00049040752
0.0004904068
0.00049040573
0.00049040394
0.00049040158
0.00049039832
0.00049039303
0.00049038317
0.00049037218
0.00049035585
0.00049033804
0.00049031837
0.00049029674
0.00049027288
0.00049024677
0.0004902182
0.0004901872
0.00049015352
0.00049011721
0.00049007805
0.00049003611
0.00048999121
0.00048994341
0.00048989268
0.00048983894
0.00048978233
0.00048972277
0.00048966045
0.00048959532
0.00048952763
0.00048945737
0.00048938485
0.0004893101
0.00048923342
0.00048915499
0.00048907505
0.00048899385
0.00048891166
0.00048882877
0.00048874544
0.00048866199
0.0004885787
0.00048849589
0.00048841384
0.00048833286
0.00048825323
0.00048817522
0.0004880991
0.00048802511
0.00048795348
0.00048788442
0.0004878181
0.00048775468
0.0004876943
0.00048763705
0.000487583
0.00048753219
0.00048748465
0.00048744034
0.00048739922
0.00048736121
0.0004873262
0.00048729404
0.00048726459
0.00048723764
0.00048721299
0.00048719039
0.00048716959
0.00048715031
0.00048713227
0.00048711516
0.00048709866
0.00048708245
0.00048706622
0.00048704963
0.00048703236
0.0004870141
0.00048699454
0.00048697338
0.00048695034
0.00048692517
0.00048689762
0.00048686747
0.00048683453
0.00048679862
0.0004867596
0.00048671735
0.00048667178
0.00048662284
0.00048657048
0.0004865147
0.00048645553
0.000486393
0.0004863272
0.00048625826
0.00048618634
0.00048611163
0.00048603447
0.00048595523
0.0004858746
0.00048579333
0.00048571285
0.00048563472
0.00048556183
0.00048549704
0.00048544583
0.00048541252
0.00048540652
0.00048543207
0.00048550486
0.00048562268
0.00048581488
0.00048605424
0.00048640444
0.00048636768
0.00048974938
0.00048932421
0.00048932284
0.00048931472
0.00048931115
0.00048930544
0.00048930103
0.00048929596
0.000489291
0.00048928575
0.00048928017
0.00048927431
0.00048926789
0.00048925681
0.00048924461
0.00048923039
0.00048921167
0.00048919156
0.00048916971
0.00048914606
0.00048912032
0.00048909254
0.0004890625
0.00048903025
0.00048899556
0.00048895849
0.00048891881
0.00048887661
0.00048883168
0.00048878415
0.00048873384
0.00048868086
0.00048862524
0.0004885669
0.00048850605
0.00048844264
0.00048837692
0.00048830886
0.00048823878
0.0004881667
0.00048809295
0.00048801762
0.00048794104
0.00048786341
0.00048778499
0.00048770607
0.00048762692
0.00048754784
0.00048746911
0.00048739104
0.00048731391
0.00048723802
0.00048716365
0.00048709108
0.00048702056
0.00048695234
0.00048688665
0.00048682369
0.00048676365
0.0004867067
0.00048665296
0.00048660255
0.00048655555
0.000486512
0.00048647193
0.00048643533
0.00048640218
0.0004863724
0.00048634591
0.00048632257
0.00048630226
0.0004862848
0.00048627
0.00048625765
0.00048624751
0.00048623934
0.00048623288
0.00048622784
0.00048622397
0.00048622094
0.00048621848
0.00048621629
0.00048621407
0.00048621156
0.00048620846
0.00048620452
0.00048619949
0.00048619315
0.00048618529
0.00048617572
0.0004861643
0.00048615089
0.00048613539
0.00048611772
0.00048609784
0.00048607573
0.0004860514
0.00048602491
0.00048599631
0.00048596569
0.00048593319
0.00048589895
0.00048586314
0.00048582599
0.00048578775
0.00048574872
0.00048570932
0.00048567
0.0004856315
0.00048559462
0.00048556072
0.00048553123
0.0004855087
0.00048549548
0.00048549603
0.0004855135
0.00048555516
0.00048562327
0.00048572952
0.00048586985
0.00048606521
0.00048629188
0.00048658971
0.00048649102
0.00048885633
0.00048843458
0.00048842912
0.00048841683
0.0004884089
0.00048839886
0.00048839012
0.00048838078
0.00048837165
0.00048836023
0.00048834743
0.00048833412
0.00048832015
0.0004883014
0.00048828124
0.00048825976
0.0004882367
0.00048821201
0.00048818547
0.00048815712
0.00048812677
0.0004880945
0.00048806009
0.0004880236
0.00048798484
0.00048794389
0.00048790055
0.00048785495
0.0004878069
0.00048775656
0.00048770379
0.00048764874
0.00048759148
0.00048753195
0.00048747042
0.00048740685
0.00048734154
0.00048727449
0.00048720606
0.00048713627
0.00048706552
0.00048699388
0.00048692171
0.00048684923
0.00048677671
0.00048670444
0.00048663268
0.00048656174
0.00048649189
0.0004864234
0.00048635656
0.00048629164
0.00048622887
0.00048616852
0.0004861108
0.00048605592
0.00048600407
0.00048595541
0.00048591008
0.0004858682
0.00048582985
0.0004857951
0.00048576397
0.00048573648
0.0004857126
0.00048569228
0.00048567546
0.00048566201
0.00048565181
0.00048564472
0.00048564055
0.00048563912
0.00048564022
0.0004856436
0.00048564904
0.00048565627
0.00048566503
0.00048567504
0.00048568604
0.00048569773
0.00048570984
0.0004857221
0.00048573424
0.00048574601
0.00048575717
0.00048576749
0.00048577678
0.00048578486
0.00048579156
0.00048579675
0.00048580034
0.00048580224
0.00048580241
0.00048580083
0.00048579751
0.00048579248
0.00048578579
0.00048577754
0.00048576781
0.00048575675
0.00048574449
0.00048573119
0.00048571706
0.0004857023
0.00048568716
0.00048567194
0.00048565702
0.00048564283
0.00048563002
0.00048561933
0.00048561194
0.00048560906
0.00048561281
0.00048562508
0.00048564943
0.00048568818
0.000485747
0.0004858272
0.00048593789
0.00048607524
0.00048625493
0.00048645885
0.00048671145
0.00048656493
0.00048813871
0.00048772564
0.00048771379
0.00048770137
0.00048768856
0.00048767538
0.00048766174
0.0004876478
0.00048763339
0.00048761657
0.00048759795
0.00048757834
0.00048755748
0.00048753543
0.00048751193
0.00048748703
0.0004874605
0.00048743243
0.00048740263
0.00048737119
0.00048733789
0.00048730283
0.00048726582
0.00048722697
0.00048718608
0.00048714328
0.00048709838
0.00048705156
0.00048700265
0.00048695184
0.00048689902
0.00048684437
0.000486788
0.00048672987
0.00048667028
0.00048660922
0.00048654702
0.00048648369
0.00048641962
0.00048635484
0.00048628976
0.00048622446
0.00048615932
0.00048609454
0.0004860304
0.00048596716
0.0004859051
0.00048584449
0.00048578558
0.00048572863
0.00048567388
0.00048562158
0.00048557194
0.00048552517
0.00048548145
0.00048544095
0.00048540381
0.00048537015
0.00048534007
0.00048531364
0.0004852909
0.00048527187
0.00048525653
0.00048524486
0.00048523678
0.00048523221
0.00048523105
0.00048523315
0.00048523836
0.00048524649
0.00048525736
0.00048527073
0.00048528641
0.00048530413
0.00048532365
0.0004853447
0.00048536701
0.00048539031
0.00048541434
0.00048543882
0.00048546348
0.00048548807
0.00048551233
0.00048553605
0.00048555899
0.00048558096
0.00048560179
0.00048562132
0.00048563943
0.00048565601
0.000485671
0.00048568435
0.00048569605
0.00048570609
0.00048571451
0.00048572136
0.00048572672
0.00048573069
0.00048573338
0.00048573492
0.00048573545
0.00048573515
0.00048573418
0.00048573276
0.00048573112
0.00048572953
0.00048572835
0.00048572798
0.00048572901
0.00048573213
0.00048573837
0.00048574881
0.00048576528
0.00048578939
0.00048582413
0.00048587135
0.00048593571
0.00048601803
0.00048612539
0.00048625427
0.00048641567
0.00048659528
0.00048680714
0.00048661752
0.00048758552
0.00048717497
0.00048715794
0.00048714607
0.00048712954
0.00048711425
0.00048709678
0.00048707914
0.00048706011
0.00048704037
0.00048701939
0.0004869974
0.00048697412
0.00048694964
0.00048692377
0.00048689662
0.00048686798
0.00048683794
0.0004868063
0.00048677318
0.00048673838
0.00048670205
0.00048666398
0.00048662433
0.0004865829
0.00048653986
0.00048649506
0.00048644867
0.00048640057
0.00048635098
0.0004862998
0.00048624726
0.00048619346
0.0004861384
0.0004860824
0.00048602545
0.00048596793
0.00048590982
0.00048585155
0.00048579314
0.00048573501
0.00048567724
0.00048562019
0.00048556406
0.00048550911
0.0004854556
0.00048540376
0.00048535387
0.00048530614
0.00048526079
0.00048521805
0.00048517812
0.00048514117
0.00048510739
0.00048507691
0.00048504985
0.00048502633
0.00048500643
0.00048499018
0.00048497765
0.00048496882
0.00048496368
0.00048496217
0.00048496424
0.00048496979
0.00048497869
0.00048499083
0.00048500603
0.00048502411
0.00048504489
0.00048506814
0.00048509364
0.00048512117
0.00048515045
0.00048518124
0.00048521327
0.00048524627
0.00048527998
0.00048531413
0.00048534844
0.00048538268
0.00048541657
0.00048544989
0.00048548242
0.00048551395
0.00048554431
0.00048557333
0.00048560088
0.00048562685
0.00048565115
0.00048567374
0.00048569458
0.00048571366
0.000485731
0.00048574667
0.00048576071
0.0004857732
0.00048578426
0.00048579399
0.00048580252
0.00048581
0.00048581658
0.00048582243
0.00048582776
0.00048583279
0.00048583778
0.00048584308
0.00048584909
0.00048585635
0.00048586553
0.00048587758
0.00048589351
0.00048591495
0.0004859433
0.00048598114
0.00048603005
0.00048609383
0.00048617313
0.00048627349
0.00048639198
0.00048653627
0.00048669538
0.0004868764
0.00048665393
0.00048717763
0.00048676423
0.00048674597
0.00048673191
0.00048671383
0.00048669676
0.00048667769
0.00048665841
0.00048663778
0.00048661643
0.00048659388
0.00048657038
0.00048654568
0.0004865199
0.00048649282
0.00048646456
0.00048643491
0.00048640401
0.00048637167
0.00048633803
0.0004863029
0.00048626643
0.00048622845
0.00048618914
0.0004861483
0.00048610616
0.00048606254
0.00048601768
0.00048597145
0.00048592411
0.00048587556
0.00048582606
0.00048577572
0.00048572454
0.00048567289
0.00048562073
0.00048556845
0.00048551606
0.00048546396
0.00048541218
0.00048536113
0.00048531088
0.00048526177
0.00048521401
0.00048516782
0.00048512344
0.00048508109
0.000485041
0.00048500337
0.0004849684
0.00048493626
0.00048490714
0.00048488117
0.00048485851
0.00048483925
0.00048482349
0.00048481131
0.00048480274
0.00048479782
0.00048479657
0.00048479893
0.00048480487
0.00048481433
0.00048482721
0.0004848434
0.00048486275
0.00048488514
0.00048491036
0.00048493825
0.00048496858
0.00048500115
0.0004850357
0.00048507203
0.00048510985
0.00048514891
0.00048518895
0.0004852297
0.00048527089
0.00048531227
0.00048535355
0.00048539449
0.00048543484
0.00048547439
0.0004855129
0.00048555017
0.00048558605
0.00048562036
0.000485653
0.00048568386
0.00048571286
0.00048573997
0.00048576516
0.00048578843
0.00048580983
0.00048582938
0.00048584718
0.0004858633
0.00048587787
0.000485891
0.00048590282
0.00048591349
0.00048592317
0.00048593205
0.00048594034
0.00048594828
0.00048595614
0.00048596428
0.00048597312
0.00048598321
0.00048599519
0.00048600999
0.00048602854
0.00048605232
0.00048608261
0.0004861216
0.00048617062
0.00048623277
0.00048630843
0.00048640172
0.00048651002
0.00048663827
0.0004867779
0.00048693199
0.00048668159
0.00048688787
0.00048647209
0.00048645338
0.00048643785
0.00048641899
0.00048640087
0.00048638098
0.00048636084
0.00048633945
0.00048631738
0.00048629418
0.0004862701
0.00048624486
0.00048621862
0.00048619117
0.00048616266
0.00048613288
0.00048610199
0.00048606978
0.00048603644
0.00048600177
0.00048596595
0.00048592882
0.00048589056
0.00048585102
0.00048581042
0.00048576861
0.00048572585
0.000485682
0.00048563736
0.00048559183
0.00048554567
0.00048549902
0.00048545188
0.0004854046
0.00048535717
0.00048530997
0.00048526299
0.00048521665
0.00048517094
0.0004851263
0.00048508274
0.00048504062
0.0004850001
0.0004849614
0.00048492474
0.00048489031
0.00048485832
0.00048482894
0.00048480234
0.00048477868
0.00048475812
0.00048474075
0.00048472673
0.0004847161
0.00048470896
0.00048470536
0.00048470531
0.00048470883
0.00048471591
0.0004847265
0.00048474054
0.00048475796
0.00048477866
0.0004848025
0.00048482934
0.00048485904
0.0004848914
0.00048492624
0.00048496334
0.00048500248
0.00048504342
0.00048508594
0.00048512976
0.00048517463
0.00048522028
0.00048526645
0.00048531286
0.00048535925
0.00048540536
0.00048545092
0.0004854957
0.00048553154
0.00048556617
0.00048560159
0.00048563767
0.00048567427
0.00048571126
0.00048574853
0.00048578595
0.00048582344
0.00048585832
0.0004858838
0.00048590724
0.00048592869
0.00048594824
0.00048596597
0.00048598203
0.00048599652
0.00048600961
0.00048602146
0.00048603224
0.00048604216
0.00048605145
0.00048606036
0.00048606918
0.0004860783
0.00048608813
0.00048609924
0.00048611227
0.00048612807
0.00048614754
0.00048617201
0.0004862026
0.00048624121
0.00048628894
0.00048634828
0.00048641949
0.00048650561
0.00048660442
0.00048671897
0.00048684257
0.00048697565
0.00048670298
0.00048669017
0.00048627256
0.00048625404
0.0004862377
0.00048621875
0.00048620027
0.00048618024
0.00048615992
0.00048613843
0.00048611629
0.00048609306
0.00048606902
0.00048604389
0.00048601785
0.00048599066
0.0004859625
0.00048593316
0.00048590281
0.00048587127
0.00048583872
0.00048580498
0.00048577025
0.00048573435
0.00048569752
0.00048565959
0.00048562079
0.000485581
0.00048554047
0.00048549909
0.00048545715
0.00048541456
0.0004853716
0.00048532839
0.00048528493
0.00048524159
0.00048519833
0.00048515554
0.0004851132
0.0004850717
0.00048503105
0.00048499164
0.00048495349
0.00048491694
0.00048488213
0.00048484926
0.00048481854
0.00048479012
0.00048476421
0.00048474096
0.00048472051
0.00048470302
0.00048468862
0.0004846774
0.00048466948
0.00048466492
0.00048466378
0.00048466611
0.00048467192
0.00048468122
0.00048469398
0.00048471017
0.00048472971
0.00048475252
0.00048477851
0.00048480754
0.00048483946
0.00048487414
0.00048491137
0.00048495097
0.00048499273
0.00048503643
0.00048508181
0.00048512867
0.00048517671
0.00048522569
0.00048527533
0.00048532536
0.00048537551
0.00048542551
0.00048547014
0.00048550361
0.00048553826
0.00048556603
0.00048559474
0.00048562647
0.00048566112
0.00048569854
0.0004857386
0.00048578113
0.00048582594
0.00048587287
0.00048591914
0.00048595785
0.00048599627
0.00048602844
0.00048604867
0.00048606697
0.0004860835
0.00048609837
0.00048611177
0.00048612387
0.00048613488
0.00048614501
0.00048615453
0.00048616371
0.00048617286
0.00048618238
0.00048619269
0.00048620437
0.00048621802
0.00048623447
0.00048625453
0.00048627939
0.00048631003
0.00048634804
0.00048639431
0.00048645078
0.00048651754
0.0004865967
0.00048668631
0.00048678805
0.00048689672
0.00048701145
0.00048672005
0.00048656137
0.00048614254
0.00048612467
0.00048610804
0.00048608949
0.00048607112
0.00048605146
0.00048603142
0.00048601031
0.00048598857
0.00048596579
0.00048594223
0.00048591761
0.00048589213
0.00048586557
0.0004858381
0.00048580952
0.00048578002
0.00048574941
0.00048571789
0.00048568528
0.0004856518
0.00048561727
0.00048558193
0.00048554564
0.00048550862
0.00048547076
0.00048543232
0.00048539319
0.00048535367
0.00048531366
0.00048527343
0.00048523313
0.00048519273
0.0004851526
0.00048511269
0.00048507338
0.00048503465
0.00048499687
0.00048496004
0.00048492453
0.00048489036
0.00048485785
0.00048482711
0.00048479835
0.00048477175
0.00048474746
0.00048472567
0.00048470651
0.00048469015
0.0004846767
0.00048466629
0.00048465902
0.000484655
0.00048465429
0.00048465695
0.00048466302
0.00048467253
0.00048468547
0.00048470184
0.00048472158
0.00048474463
0.00048477093
0.00048480036
0.00048483281
0.00048486813
0.00048490617
0.00048494674
0.00048498966
0.00048503471
0.00048508166
0.00048513028
0.00048518032
0.00048523152
0.0004852836
0.00048533629
0.00048538931
0.00048544215
0.00048547417
0.0004855027
0.00048552211
0.00048554488
0.00048557096
0.00048560032
0.00048563284
0.00048566842
0.0004857069
0.00048574813
0.00048579192
0.00048583805
0.00048588635
0.00048593658
0.00048598853
0.000486042
0.00048609086
0.00048612931
0.00048616223
0.00048617878
0.00048619361
0.0004862069
0.00048621886
0.00048622971
0.00048623968
0.00048624905
0.00048625811
0.0004862672
0.00048627671
0.00048628709
0.00048629887
0.00048631266
0.00048632921
0.00048634927
0.00048637388
0.00048640392
0.00048644068
0.00048648492
0.00048653812
0.00048660029
0.00048667288
0.00048675421
0.00048684504
0.00048694122
0.00048704106
0.00048673414
0.00048648215
0.00048606262
0.00048604568
0.00048602915
0.00048601132
0.00048599339
0.00048597437
0.00048595491
0.00048593445
0.00048591334
0.00048589123
0.00048586836
0.00048584447
0.00048581975
0.00048579399
0.00048576735
0.00048573966
0.00048571111
0.0004856815
0.00048565105
0.00048561957
0.00048558731
0.00048555408
0.00048552013
0.0004854853
0.00048544986
0.00048541366
0.00048537699
0.00048533973
0.00048530216
0.00048526421
0.00048522614
0.00048518807
0.00048514999
0.00048511225
0.0004850748
0.000485038
0.00048500182
0.00048496663
0.0004849324
0.00048489952
0.00048486797
0.00048483806
0.00048480992
0.00048478372
0.00048475965
0.00048473786
0.00048471852
0.00048470177
0.00048468776
0.00048467662
0.00048466849
0.00048466345
0.00048466163
0.0004846631
0.00048466791
0.00048467613
0.00048468778
0.00048470286
0.00048472138
0.0004847433
0.00048476856
0.0004847971
0.00048482881
0.00048486358
0.00048490126
0.00048494171
0.00048498474
0.00048503015
0.00048507774
0.00048512727
0.00048517849
0.00048523115
0.00048528498
0.0004853397
0.00048539501
0.00048544172
0.00048547282
0.00048548499
0.00048550069
0.00048551996
0.0004855428
0.00048556915
0.00048559895
0.00048563209
0.00048566845
0.00048570785
0.00048575013
0.00048579507
0.00048584246
0.00048589207
0.00048594365
0.00048599697
0.00048605179
0.00048610787
0.00048616503
0.00048621805
0.00048625592
0.0004862819
0.00048629492
0.0004863066
0.00048631715
0.00048632684
0.00048633596
0.00048634482
0.00048635378
0.00048636322
0.00048637358
0.0004863854
0.00048639924
0.00048641578
0.00048643572
0.00048645995
0.00048648922
0.00048652459
0.00048656665
0.00048661651
0.00048667408
0.00048674027
0.00048681364
0.0004868943
0.00048697901
0.00048706583
0.00048674577
0.00048643703
0.00048601725
0.00048600137
0.00048598519
0.00048596821
0.00048595089
0.00048593266
0.0004859139
0.00048589421
0.00048587385
0.00048585252
0.00048583043
0.00048580733
0.00048578341
0.00048575847
0.00048573268
0.00048570587
0.00048567822
0.00048564956
0.00048562009
0.00048558964
0.00048555844
0.00048552633
0.00048549354
0.00048545994
0.00048542576
0.00048539089
0.00048535559
0.00048531974
0.00048528365
0.0004852472
0.00048521067
0.00048517417
0.00048513769
0.00048510156
0.00048506572
0.00048503053
0.00048499595
0.00048496235
0.00048492967
0.00048489831
0.00048486823
0.00048483975
0.00048481299
0.00048478812
0.00048476531
0.00048474473
0.00048472656
0.00048471093
0.000484698
0.00048468791
0.0004846808
0.00048467678
0.00048467597
0.00048467846
0.00048468432
0.00048469362
0.00048470641
0.00048472269
0.00048474248
0.00048476575
0.00048479245
0.00048482251
0.00048485586
0.00048489236
0.00048493188
0.00048497427
0.00048501934
0.00048506689
0.00048511671
0.00048516854
0.00048522214
0.00048527724
0.00048533355
0.00048539079
0.00048543554
0.00048545687
0.00048546467
0.00048547618
0.00048549145
0.0004855105
0.00048553332
0.00048555988
0.00048559008
0.00048562383
0.00048566097
0.00048570133
0.0004857447
0.00048579086
0.00048583956
0.00048589055
0.00048594357
0.00048599833
0.0004860546
0.00048611211
0.00048617063
0.00048622992
0.0004862898
0.00048633883
0.00048637577
0.00048638841
0.00048639854
0.00048640782
0.00048641655
0.00048642505
0.00048643367
0.00048644281
0.00048645291
0.00048646446
0.00048647801
0.00048649417
0.00048651358
0.000486537
0.00048656508
0.00048659869
0.00048663828
0.00048668469
0.00048673776
0.00048679805
0.00048686429
0.00048693619
0.00048701112
0.00048708702
0.00048675575
0.0004864143
0.00048599459
0.00048597979
0.00048596409
0.00048594801
0.00048593136
0.00048591395
0.00048589592
0.00048587701
0.00048585739
0.00048583682
0.00048581548
0.00048579313
0.00048576998
0.0004857458
0.00048572079
0.00048569477
0.00048566792
0.00048564007
0.00048561143
0.00048558183
0.00048555151
0.00048552029
0.00048548841
0.00048545573
0.00048542251
0.0004853886
0.00048535428
0.00048531942
0.00048528432
0.00048524888
0.00048521334
0.00048517783
0.00048514231
0.00048510712
0.00048507219
0.00048503788
0.00048500412
0.00048497129
0.00048493933
0.00048490862
0.00048487914
0.00048485119
0.0004848249
0.00048480043
0.00048477798
0.0004847577
0.00048473978
0.00048472437
0.00048471165
0.00048470176
0.00048469485
0.00048469105
0.0004846905
0.00048469331
0.00048469955
0.00048470932
0.00048472266
0.00048473961
0.0004847602
0.00048478438
0.00048481214
0.00048484341
0.00048487811
0.0004849161
0.00048495727
0.00048500144
0.00048504844
0.00048509804
0.00048515002
0.00048520414
0.00048526012
0.00048531768
0.00048537652
0.00048542394
0.0004854397
0.00048544271
0.00048544956
0.00048546035
0.00048547512
0.00048549391
0.00048551672
0.00048554348
0.00048557412
0.00048560851
0.00048564649
0.00048568787
0.00048573243
0.0004857799
0.00048583003
0.00048588253
0.0004859371
0.00048599344
0.00048605129
0.00048611033
0.00048617034
0.00048623104
0.00048629223
0.00048635369
0.00048641526
0.00048645315
0.00048647495
0.00048648374
0.000486492
0.00048650006
0.00048650828
0.00048651705
0.00048652679
0.00048653798
0.00048655112
0.00048656677
0.0004865855
0.00048660796
0.0004866347
0.0004866664
0.00048670341
0.00048674632
0.00048679494
0.00048684953
0.00048690897
0.00048697276
0.00048703878
0.00048710506
0.00048676421
0.00048640542
0.00048598601
0.00048597222
0.00048595707
0.00048594185
0.00048592585
0.00048590922
0.00048589188
0.0004858737
0.00048585478
0.00048583491
0.00048581424
0.00048579258
0.00048577009
0.00048574658
0.00048572224
0.00048569687
0.00048567069
0.0004856435
0.00048561553
0.0004855866
0.00048555693
0.00048552638
0.00048549517
0.00048546316
0.00048543059
0.00048539733
0.00048536364
0.00048532941
0.00048529491
0.00048526004
0.00048522505
0.00048519004
0.00048515499
0.00048512022
0.00048508565
0.00048505164
0.00048501813
0.00048498546
0.00048495361
0.00048492293
0.00048489341
0.00048486536
0.00048483889
0.0004848142
0.00048479147
0.00048477087
0.00048475262
0.00048473685
0.00048472378
0.00048471355
0.00048470634
0.00048470229
0.00048470156
0.00048470427
0.00048471052
0.00048472042
0.00048473403
0.00048475139
0.00048477255
0.00048479748
0.00048482615
0.00048485851
0.00048489448
0.00048493392
0.00048497671
0.00048502268
0.00048507163
0.00048512334
0.00048517758
0.00048523407
0.00048529254
0.0004853527
0.00048540773
0.00048542252
0.00048542037
0.00048542216
0.00048542801
0.00048543804
0.00048545231
0.00048547084
0.00048549364
0.00048552065
0.00048555178
0.00048558689
0.00048562582
0.00048566833
0.00048571419
0.00048576311
0.00048581481
0.00048586895
0.00048592523
0.00048598331
0.00048604287
0.0004861036
0.00048616523
0.00048622745
0.00048629006
0.00048635281
0.00048641551
0.00048647799
0.00048652609
0.00048655546
0.0004865631
0.00048657055
0.00048657817
0.00048658635
0.0004865955
0.00048660606
0.00048661852
0.00048663337
0.00048665111
0.00048667231
0.00048669743
0.00048672702