/*--------------------------------*- C++ -*----------------------------------*\
| =========                 |                                                 |
| \\      /  F ield         | foam-extend: Open Source CFD                    |
|  \\    /   O peration     | Version:     4.1                                |
|   \\  /    A nd           | Web:         http://www.foam-extend.org         |
|    \\/     M anipulation  |                                                 |
\*---------------------------------------------------------------------------*/
FoamFile
{
    version     2.0;
    format      ascii;
    class       volVectorField;
    location    "3";
    object      U;
}
// * * * * * * * * * * * * * * * * * * * * * * * * * * * * * * * * * * * * * //

dimensions      [0 1 -1 0 0 0 0];

internalField   nonuniform List<vector> 
16126
(
(0.081435566 4.5062615e-05 0)
(0.081052166 6.4207707e-05 0)
(0.080844262 1.0887035e-05 0)
(0.080655024 3.8051344e-05 0)
(0.080311104 2.1412604e-05 0)
(0.080133194 3.1922777e-05 0)
(0.079751521 2.8482468e-05 0)
(0.079533694 3.0354809e-05 0)
(0.079156089 3.0528573e-05 0)
(0.078900983 2.9756202e-05 0)
(0.078542625 3.1121243e-05 0)
(0.078269307 3.0575641e-05 0)
(0.077938962 3.2071756e-05 0)
(0.077668459 3.0692032e-05 0)
(0.07737391 2.9230747e-05 0)
(0.077125401 2.5778853e-05 0)
(0.076874513 2.492479e-05 0)
(0.076664637 2.6634903e-05 0)
(0.076469872 2.7470156e-05 0)
(0.076314343 2.0529302e-05 0)
(0.076182731 1.3801986e-05 0)
(0.076093307 1.8899338e-05 0)
(0.076044915 2.5406363e-05 0)
(0.076047985 2.1257541e-05 0)
(0.076104285 1.5107258e-05 0)
(0.076213196 1.0958505e-05 0)
(0.07637287 7.4317622e-06 0)
(0.07658749 3.9474163e-06 0)
(0.076858574 2.2019797e-07 0)
(0.077190776 -3.8563087e-06 0)
(0.077586574 -8.2228051e-06 0)
(0.078050013 -1.2883625e-05 0)
(0.078583727 -1.7769563e-05 0)
(0.079191073 -2.2873817e-05 0)
(0.079874489 -2.8146331e-05 0)
(0.080636631 -3.3573861e-05 0)
(0.081479489 -3.9121515e-05 0)
(0.082404975 -4.4778819e-05 0)
(0.083414466 -5.0526523e-05 0)
(0.084509097 -5.6363539e-05 0)
(0.085689546 -6.2287713e-05 0)
(0.086956159 -6.8306713e-05 0)
(0.088308856 -7.4435125e-05 0)
(0.089747204 -8.0686854e-05 0)
(0.091270334 -8.708107e-05 0)
(0.092877001 -9.3634579e-05 0)
(0.094565509 -0.00010036189 0)
(0.096333748 -0.00010727178 0)
(0.098179124 -0.00011436461 0)
(0.10009858 -0.00012163269 0)
(0.10208852 -0.00012905619 0)
(0.10414486 -0.00013660372 0)
(0.10626294 -0.00014423196 0)
(0.10843755 -0.00015188459 0)
(0.1106629 -0.00015949302 0)
(0.11293269 -0.00016697881 0)
(0.11524004 -0.00017425301 0)
(0.11757758 -0.00018121863 0)
(0.11993748 -0.00018777337 0)
(0.12231151 -0.00019381007 0)
(0.12469109 -0.00019921972 0)
(0.12706738 -0.00020389512 0)
(0.1294314 -0.00020773157 0)
(0.13177407 -0.00021063059 0)
(0.13408636 -0.00021250161 0)
(0.13635939 -0.00021326572 0)
(0.13858455 -0.00021285618 0)
(0.14075359 -0.00021122117 0)
(0.14285878 -0.00020832653 0)
(0.14489298 -0.0002041558 0)
(0.14684979 -0.00019871172 0)
(0.14872363 -0.00019201788 0)
(0.15050986 -0.00018411723 0)
(0.15220487 -0.0001750731 0)
(0.15380614 -0.00016496825 0)
(0.15531234 -0.00015390412 0)
(0.1567234 -0.00014199728 0)
(0.1580405 -0.0001293814 0)
(0.15926618 -0.00011619835 0)
(0.16040433 -0.00010260424 0)
(0.16146014 -8.8755594e-05 0)
(0.16244021 -7.4820037e-05 0)
(0.16335242 -6.0961382e-05 0)
(0.16420593 -4.7341645e-05 0)
(0.16501116 -3.4102512e-05 0)
(0.1657797 -2.137158e-05 0)
(0.16652427 -9.2476279e-06 0)
(0.16725865 2.1888682e-06 0)
(0.16799766 1.2895017e-05 0)
(0.16875703 2.2850096e-05 0)
(0.16955352 3.2086207e-05 0)
(0.17040468 4.0666551e-05 0)
(0.1713292 4.8734481e-05 0)
(0.17234648 5.6477671e-05 0)
(0.17347744 6.4207093e-05 0)
(0.17474372 7.2270668e-05 0)
(0.17616924 8.117909e-05 0)
(0.17777876 9.1421045e-05 0)
(0.179601 0.00010369172 0)
(0.18166569 0.00011844822 0)
(0.18401018 0.00013630957 0)
(0.18667315 0.00015700317 0)
(0.1897087 0.0001801022 0)
(0.19317293 0.00020260647 0)
(0.19715403 0.00022045753 0)
(0.20174282 0.00022322425 0)
(0.20709684 0.00019769187 0)
(0.21337395 0.0001167664 0)
(0.22086743 -5.1140012e-05 0)
(0.22985212 -0.00036434347 0)
(0.24086797 -0.00088290533 0)
(0.25435767 -0.001712682 0)
(0.27126555 -0.0029419704 0)
(0.29218321 -0.0047320749 0)
(0.31864836 -0.007168001 0)
(0.35114269 -0.010459214 0)
(0.39204032 -0.01460294 0)
(0.44088364 -0.019864108 0)
(0.50149847 -0.025962212 0)
(0.57025128 -0.033374555 0)
(0.65495762 -0.040694638 0)
(0.74104547 -0.049848155 0)
(0.85367852 -0.051314247 0)
(0.92415377 -0.06280201 0)
(0.24609523 0.00019600632 0)
(0.24557093 0.00034831656 0)
(0.24510749 0.0002352929 0)
(0.24465597 0.00033697879 0)
(0.24402049 0.000310767 0)
(0.24352309 0.00035651419 0)
(0.24282985 0.00036063797 0)
(0.24227101 0.00037735976 0)
(0.24157159 0.00038515268 0)
(0.24097762 0.00038646349 0)
(0.24030361 0.00038686674 0)
(0.2397126 0.00037668397 0)
(0.23909118 0.00036713607 0)
(0.23854205 0.00034927996 0)
(0.23800285 0.00033255368 0)
(0.23753897 0.00030961952 0)
(0.2371171 0.00028258114 0)
(0.23677574 0.00024468544 0)
(0.23649726 0.00020624016 0)
(0.23631701 0.00017224866 0)
(0.23624199 0.00013444497 0)
(0.23628869 7.3602966e-05 0)
(0.23646883 4.7456331e-06 0)
(0.23676962 -6.0794897e-05 0)
(0.23718503 -0.00012555019 0)
(0.2377268 -0.00019041572 0)
(0.23839973 -0.00025767456 0)
(0.23921313 -0.00032862988 0)
(0.2401732 -0.00040359428 0)
(0.24128858 -0.00048288446 0)
(0.24256612 -0.00056631856 0)
(0.24401382 -0.00065387393 0)
(0.24563833 -0.00074525106 0)
(0.24744662 -0.00084025856 0)
(0.2494445 -0.00093852845 0)
(0.25163749 -0.001039736 0)
(0.25402999 -0.0011434469 0)
(0.25662572 -0.0012492423 0)
(0.25942721 -0.0013566363 0)
(0.26243602 -0.00146515 0)
(0.26565249 -0.0015742667 0)
(0.2690758 -0.0016834669 0)
(0.27270382 -0.0017922203 0)
(0.27653319 -0.0018999773 0)
(0.2805592 -0.0020061823 0)
(0.28477585 -0.0021102613 0)
(0.28917581 -0.0022116234 0)
(0.29375041 -0.0023096571 0)
(0.29848966 -0.0024037271 0)
(0.3033823 -0.0024931798 0)
(0.30841578 -0.0025773396 0)
(0.31357632 -0.0026555176 0)
(0.31884899 -0.0027270184 0)
(0.32421777 -0.0027911483 0)
(0.32966562 -0.0028472271 0)
(0.33517465 -0.0028946051 0)
(0.34072621 -0.0029326737 0)
(0.34630105 -0.002960882 0)
(0.35187952 -0.0029787538 0)
(0.35744173 -0.0029858986 0)
(0.36296779 -0.0029820264 0)
(0.36843797 -0.0029669623 0)
(0.37383298 -0.0029406523 0)
(0.37913418 -0.0029031742 0)
(0.38432378 -0.0028547418 0)
(0.3893851 -0.0027957109 0)
(0.39430277 -0.0027265775 0)
(0.39906297 -0.0026479789 0)
(0.40365358 -0.002560692 0)
(0.40806441 -0.0024656267 0)
(0.41228733 -0.0023638196 0)
(0.41631648 -0.0022564279 0)
(0.42014833 -0.0021447157 0)
(0.42378186 -0.0020300463 0)
(0.4272186 -0.0019138671 0)
(0.43046273 -0.0017976988 0)
(0.43352111 -0.0016831155 0)
(0.43640331 -0.0015717373 0)
(0.43912163 -0.0014652026 0)
(0.44169104 -0.0013651648 0)
(0.44412917 -0.0012732628 0)
(0.44645622 -0.0011911168 0)
(0.44869491 -0.0011202942 0)
(0.45087038 -0.0010623276 0)
(0.45301007 -0.0010186888 0)
(0.45514366 -0.0009908056 0)
(0.45730291 -0.00098003576 0)
(0.45952162 -0.00098770448 0)
(0.46183553 -0.0010150778 0)
(0.46428233 -0.0010634295 0)
(0.46690164 -0.0011340152 0)
(0.46973505 -0.0012281808 0)
(0.47282636 -0.0013473367 0)
(0.47622156 -0.0014931338 0)
(0.47996952 -0.0016674203 0)
(0.4841218 -0.0018725091 0)
(0.48873404 -0.0021110944 0)
(0.49386549 -0.0023867448 0)
(0.49958147 -0.0027037113 0)
(0.50595206 -0.0030679064 0)
(0.51305669 -0.0034864214 0)
(0.52098059 -0.0039695026 0)
(0.52982355 -0.0045294019 0)
(0.53969103 -0.0051843545 0)
(0.55071102 -0.0059557499 0)
(0.56301313 -0.0068760626 0)
(0.57676192 -0.0079817193 0)
(0.59210885 -0.0093286268 0)
(0.60926047 -0.010974232 0)
(0.6283705 -0.013007709 0)
(0.64968439 -0.015506024 0)
(0.67329986 -0.018594067 0)
(0.69948477 -0.022341795 0)
(0.72814464 -0.026892021 0)
(0.75954817 -0.032229634 0)
(0.79311611 -0.038477217 0)
(0.82914841 -0.045376436 0)
(0.86593907 -0.053032388 0)
(0.90412467 -0.060621276 0)
(0.939326 -0.068534295 0)
(0.97389037 -0.074213109 0)
(0.99690033 -0.080404752 0)
(1.0166047 -0.074765272 0)
(1.0120325 -0.080165284 0)
(0.40378789 0.00037942255 0)
(0.40330657 0.00073898096 0)
(0.40275186 0.0005996926 0)
(0.40225356 0.00077984978 0)
(0.4015551 0.0007578505 0)
(0.400986 0.00083790496 0)
(0.40025512 0.00084913353 0)
(0.39963833 0.00087625528 0)
(0.39892481 0.00088276865 0)
(0.39830509 0.00087831797 0)
(0.39764838 0.00086744415 0)
(0.39707875 0.00083994041 0)
(0.39652222 0.00080767891 0)
(0.39605687 0.00075624609 0)
(0.39564397 0.00069431039 0)
(0.395332 0.00061520557 0)
(0.39510585 0.00053074499 0)
(0.39501056 0.00043944055 0)
(0.39505231 0.00033253353 0)
(0.39524933 0.00018956113 0)
(0.39561745 3.0168046e-05 0)
(0.39613884 -0.00013285068 0)
(0.39679375 -0.00029497966 0)
(0.39760816 -0.00045566998 0)
(0.39858877 -0.0006221976 0)
(0.39975081 -0.00079750168 0)
(0.40110304 -0.00098177102 0)
(0.40265657 -0.0011761595 0)
(0.40442021 -0.0013807777 0)
(0.40640408 -0.0015959612 0)
(0.40861701 -0.0018213698 0)
(0.4110682 -0.0020567692 0)
(0.4137657 -0.0023014871 0)
(0.41671722 -0.0025548844 0)
(0.41992919 -0.0028160099 0)
(0.42340721 -0.0030838741 0)
(0.42715535 -0.0033572652 0)
(0.43117646 -0.0036349097 0)
(0.43547168 -0.0039153787 0)
(0.44004058 -0.0041971888 0)
(0.44488085 -0.0044787572 0)
(0.44998844 -0.0047584568 0)
(0.45535731 -0.0050346158 0)
(0.46097958 -0.005305522 0)
(0.4668454 -0.0055694482 0)
(0.47294305 -0.0058246491 0)
(0.47925893 -0.0060693742 0)
(0.48577767 -0.0063018746 0)
(0.49248217 -0.0065204105 0)
(0.49935374 -0.0067232688 0)
(0.50637221 -0.0069087715 0)
(0.51351607 -0.0070752974 0)
(0.52076263 -0.0072213034 0)
(0.52808823 -0.0073453465 0)
(0.5354684 -0.007446111 0)
(0.54287811 -0.0075224389 0)
(0.55029197 -0.007573354 0)
(0.55768451 -0.0075980912 0)
(0.5650304 -0.0075961225 0)
(0.57230473 -0.0075671774 0)
(0.57948327 -0.0075112623 0)
(0.58654272 -0.0074286785 0)
(0.59346099 -0.0073200284 0)
(0.60021744 -0.0071862242 0)
(0.60679312 -0.0070284868 0)
(0.613171 -0.0068483455 0)
(0.61933618 -0.0066476265 0)
(0.6252761 -0.0064284441 0)
(0.63098068 -0.0061931851 0)
(0.63644249 -0.0059444909 0)
(0.64165689 -0.0056852341 0)
(0.64662214 -0.0054184994 0)
(0.65133944 -0.0051475516 0)
(0.65581304 -0.0048758137 0)
(0.66005023 -0.004606832 0)
(0.6640614 -0.0043442522 0)
(0.66785995 -0.0040917765 0)
(0.67146234 -0.0038531474 0)
(0.67488792 -0.0036320924 0)
(0.67815896 -0.0034323225 0)
(0.68130042 -0.0032574643 0)
(0.68433991 -0.0031110805 0)
(0.68730746 -0.0029966018 0)
(0.6902354 -0.0029173446 0)
(0.69315814 -0.0028764501 0)
(0.696112 -0.0028769244 0)
(0.699135 -0.0029216021 0)
(0.70226668 -0.0030132191 0)
(0.70554788 -0.0031543862 0)
(0.70902054 -0.003347702 0)
(0.71272759 -0.0035957318 0)
(0.71671271 -0.0039011696 0)
(0.72102033 -0.0042668144 0)
(0.72569532 -0.0046958011 0)
(0.73078322 -0.0051915594 0)
(0.73632977 -0.0057581689 0)
(0.7423814 -0.0064002833 0)
(0.74898448 -0.0071236883 0)
(0.75618627 -0.0079350611 0)
(0.76403338 -0.0088429769 0)
(0.77257378 -0.009857303 0)
(0.7818535 -0.010991114 0)
(0.79192062 -0.012259215 0)
(0.80281812 -0.01368189 0)
(0.81459218 -0.015281386 0)
(0.82727664 -0.017089309 0)
(0.84091045 -0.019138265 0)
(0.85550404 -0.021476488 0)
(0.8710773 -0.024148029 0)
(0.88758697 -0.027221822 0)
(0.90501188 -0.0307453 0)
(0.92319583 -0.034803684 0)
(0.94204557 -0.03941347 0)
(0.9611853 -0.044650846 0)
(0.98043067 -0.050410852 0)
(0.99900047 -0.056710664 0)
(1.0166879 -0.063131437 0)
(1.0319576 -0.069609321 0)
(1.0449466 -0.074987582 0)
(1.0526026 -0.079375709 0)
(1.0565768 -0.079549161 0)
(1.0507523 -0.077498608 0)
(1.0403507 -0.06256807 0)
(1.0190188 -0.047396655 0)
(0.54823218 0.00049732633 0)
(0.54798607 0.0010626616 0)
(0.54752375 0.00091519291 0)
(0.54721295 0.0011575387 0)
(0.54668067 0.0011392237 0)
(0.54630729 0.0012399391 0)
(0.5457986 0.001249024 0)
(0.5454161 0.0012758775 0)
(0.54497598 0.0012689368 0)
(0.54464298 0.0012455801 0)
(0.54431224 0.0012024188 0)
(0.54408528 0.001132916 0)
(0.54390629 0.0010475556 0)
(0.54383955 0.00093816268 0)
(0.54386589 0.00081614202 0)
(0.54403407 0.000671861 0)
(0.5443401 0.00049861475 0)
(0.54480592 0.00028162555 0)
(0.54544266 4.5356644e-05 0)
(0.54623056 -0.000203284 0)
(0.54714187 -0.00045609351 0)
(0.54821021 -0.00070953551 0)
(0.54944538 -0.00097495328 0)
(0.55087001 -0.0012575667 0)
(0.55249601 -0.0015546151 0)
(0.55433507 -0.0018674344 0)
(0.55639691 -0.0021961458 0)
(0.55869238 -0.0025416731 0)
(0.56123072 -0.0029039866 0)
(0.56402166 -0.0032831885 0)
(0.56707367 -0.0036786429 0)
(0.57039509 -0.0040896897 0)
(0.57399294 -0.0045151144 0)
(0.57787353 -0.0049535997 0)
(0.58204162 -0.0054033933 0)
(0.58650078 -0.0058625818 0)
(0.59125277 -0.0063289181 0)
(0.59629776 -0.0067999915 0)
(0.60163389 -0.0072731484 0)
(0.60725743 -0.0077456086 0)
(0.61316248 -0.0082144377 0)
(0.61934108 -0.0086766229 0)
(0.62578309 -0.0091290872 0)
(0.63247627 -0.0095687205 0)
(0.63940627 -0.009992417 0)
(0.64655672 -0.010397096 0)
(0.65390933 -0.010779731 0)
(0.66144405 -0.011137372 0)
(0.66913915 -0.011467173 0)
(0.67697146 -0.01176642 0)
(0.68491652 -0.012032557 0)
(0.69294882 -0.012263219 0)
(0.70104201 -0.012456265 0)
(0.70916914 -0.012609809 0)
(0.71730294 -0.012722258 0)
(0.72541603 -0.012792345 0)
(0.73348124 -0.012819165 0)
(0.74147182 -0.012802201 0)
(0.74936175 -0.01274135 0)
(0.75712596 -0.012636951 0)
(0.76474062 -0.012489789 0)
(0.77218338 -0.012301117 0)
(0.77943354 -0.012072646 0)
(0.78647237 -0.011806553 0)
(0.79328319 -0.011505461 0)
(0.79985164 -0.011172429 0)
(0.80616579 -0.010810929 0)
(0.81221626 -0.010424817 0)
(0.81799639 -0.010018309 0)
(0.82350226 -0.00959594 0)
(0.8287328 -0.009162531 0)
(0.83368979 -0.0087231502 0)
(0.83837792 -0.0082830651 0)
(0.84280477 -0.0078477067 0)
(0.84698073 -0.0074226142 0)
(0.85091903 -0.0070134006 0)
(0.85463557 -0.0066256881 0)
(0.85814889 -0.0062650814 0)
(0.86148001 -0.0059370912 0)
(0.86465227 -0.0056471201 0)
(0.86769118 -0.0054003805 0)
(0.87062419 -0.0052018833 0)
(0.8734805 -0.0050563442 0)
(0.87629081 -0.0049682252 0)
(0.87908707 -0.0049416669 0)
(0.88190217 -0.0049805191 0)
(0.88476965 -0.0050882773 0)
(0.88772344 -0.0052681613 0)
(0.8907975 -0.0055230575 0)
(0.89402554 -0.0058556451 0)
(0.89744073 -0.0062683475 0)
(0.90107533 -0.0067635152 0)
(0.90496051 -0.007343382 0)
(0.90912588 -0.0080103365 0)
(0.91359939 -0.0087668646 0)
(0.91840676 -0.0096158645 0)
(0.9235715 -0.010560557 0)
(0.92911417 -0.011604992 0)
(0.93505263 -0.012753838 0)
(0.94140066 -0.014013294 0)
(0.94816895 -0.015390519 0)
(0.95536228 -0.016895353 0)
(0.9629819 -0.018538977 0)
(0.97101991 -0.020337186 0)
(0.97946438 -0.022307176 0)
(0.98828771 -0.024473849 0)
(0.99745798 -0.026862019 0)
(1.0069143 -0.029508553 0)
(1.0165923 -0.03244374 0)
(1.0263719 -0.035715082 0)
(1.0361364 -0.039343989 0)
(1.0456602 -0.043375117 0)
(1.0547526 -0.047778839 0)
(1.0630092 -0.052563329 0)
(1.0701701 -0.057557614 0)
(1.0755493 -0.062691154 0)
(1.0789331 -0.067489625 0)
(1.0792047 -0.071832491 0)
(1.076604 -0.074623569 0)
(1.0693505 -0.076055057 0)
(1.0590868 -0.073435551 0)
(1.0434854 -0.068802616 0)
(1.0261613 -0.054119219 0)
(1.0099694 -0.037777386 0)
(0.67579741 0.00051072373 0)
(0.67597811 0.0012432751 0)
(0.67576514 0.0010848914 0)
(0.67584488 0.0013658766 0)
(0.67567289 0.0013402825 0)
(0.67571206 0.0014406671 0)
(0.67563152 0.0014292334 0)
(0.67570115 0.0014325432 0)
(0.67573903 0.0013887087 0)
(0.67589911 0.0013240905 0)
(0.67608883 0.0012327618 0)
(0.67640105 0.0011118118 0)
(0.67679269 0.00096798062 0)
(0.6773197 0.0007844301 0)
(0.67796055 0.00056203633 0)
(0.6787483 0.00029741918 0)
(0.67967597 1.1558863e-05 0)
(0.68072751 -0.00029590307 0)
(0.68187936 -0.00061548266 0)
(0.68317019 -0.00094318086 0)
(0.68460909 -0.0012918272 0)
(0.68622263 -0.0016691507 0)
(0.68802431 -0.0020684181 0)
(0.69002497 -0.0024892156 0)
(0.69223373 -0.0029318493 0)
(0.69466219 -0.0033973274 0)
(0.69731931 -0.0038856492 0)
(0.70021488 -0.0043973339 0)
(0.70335697 -0.0049319777 0)
(0.70675367 -0.0054892308 0)
(0.71041169 -0.0060679537 0)
(0.71433722 -0.0066668468 0)
(0.71853504 -0.0072839583 0)
(0.72300886 -0.0079170915 0)
(0.72776078 -0.008563507 0)
(0.73279148 -0.0092201844 0)
(0.73809974 -0.0098836748 0)
(0.74368265 -0.010550275 0)
(0.7495352 -0.011215972 0)
(0.75565049 -0.011876572 0)
(0.76201946 -0.012527697 0)
(0.76863105 -0.013164881 0)
(0.77547205 -0.013783601 0)
(0.78252733 -0.014379337 0)
(0.78977975 -0.014947625 0)
(0.79721037 -0.015484099 0)
(0.80479855 -0.015984538 0)
(0.81252212 -0.016444907 0)
(0.82035756 -0.016861399 0)
(0.82828016 -0.017230476 0)
(0.83626434 -0.017548908 0)
(0.84428376 -0.017813813 0)
(0.85231167 -0.018022701 0)
(0.86032109 -0.018173507 0)
(0.8682851 -0.018264639 0)
(0.87617707 -0.018295004 0)
(0.88397094 -0.018264048 0)
(0.89164145 -0.018171781 0)
(0.89916437 -0.018018797 0)
(0.90651677 -0.017806293 0)
(0.91367717 -0.017536069 0)
(0.92062578 -0.017210536 0)
(0.9273447 -0.0168327 0)
(0.93381803 -0.016406151 0)
(0.94003204 -0.015935035 0)
(0.94597529 -0.015424027 0)
(0.95163875 -0.01487829 0)
(0.95701583 -0.01430344 0)
(0.96210246 -0.013705492 0)
(0.96689713 -0.013090822 0)
(0.9714009 -0.012466098 0)
(0.97561736 -0.011838244 0)
(0.97955264 -0.011214362 0)
(0.98321534 -0.010601692 0)
(0.98661643 -0.010007533 0)
(0.98976921 -0.0094392003 0)
(0.99268915 -0.0089039342 0)
(0.99539378 -0.0084088715 0)
(0.9979025 -0.0079609356 0)
(1.0002364 -0.0075668323 0)
(1.0024182 -0.007232905 0)
(1.0044718 -0.0069651867 0)
(1.0064222 -0.0067692581 0)
(1.008295 -0.0066502703 0)
(1.0101165 -0.0066128084 0)
(1.0119132 -0.0066609565 0)
(1.0137111 -0.0067982087 0)
(1.0155363 -0.0070275794 0)
(1.0174138 -0.0073515249 0)
(1.0193676 -0.0077721038 0)
(1.0214203 -0.0082909099 0)
(1.0235927 -0.0089092861 0)
(1.0259035 -0.0096282542 0)
(1.0283692 -0.010448786 0)
(1.0310036 -0.01137171 0)
(1.0338173 -0.012398089 0)
(1.0368183 -0.01352915 0)
(1.0400106 -0.014766766 0)
(1.0433945 -0.016113216 0)
(1.0469662 -0.01757198 0)
(1.0507175 -0.019147205 0)
(1.0546344 -0.020845107 0)
(1.0586985 -0.022672669 0)
(1.0628826 -0.024640252 0)
(1.0671544 -0.026758529 0)
(1.0714675 -0.029043424 0)
(1.0757698 -0.031508911 0)
(1.0799842 -0.034176633 0)
(1.0840287 -0.037059173 0)
(1.0877761 -0.040179493 0)
(1.0911015 -0.043532934 0)
(1.0937983 -0.047129145 0)
(1.0956952 -0.050907279 0)
(1.0964704 -0.054834648 0)
(1.0959439 -0.058716394 0)
(1.0936454 -0.062447661 0)
(1.0895329 -0.065561833 0)
(1.0829482 -0.067921762 0)
(1.0743381 -0.068521072 0)
(1.0627821 -0.067512037 0)
(1.0497612 -0.062654864 0)
(1.0343513 -0.055538213 0)
(1.0187236 -0.041024975 0)
(1.0063668 -0.024390561 0)
(0.78479108 0.00032106442 0)
(0.78552792 0.0011333638 0)
(0.78565794 0.0009651434 0)
(0.7862477 0.0012505767 0)
(0.78653789 0.0012051369 0)
(0.7870944 0.0012863094 0)
(0.7875326 0.0012441357 0)
(0.78814313 0.0012156832 0)
(0.78873652 0.0011314593 0)
(0.78946485 0.0010204136 0)
(0.79023442 0.00086604274 0)
(0.79112708 0.00066879023 0)
(0.79209782 0.00043325534 0)
(0.79319774 0.00016044358 0)
(0.79437992 -0.00013777502 0)
(0.79565696 -0.00046851451 0)
(0.79700977 -0.0008171495 0)
(0.7984811 -0.0011855422 0)
(0.80007332 -0.0015850238 0)
(0.80181518 -0.002022895 0)
(0.80371733 -0.002490236 0)
(0.80578966 -0.0029857845 0)
(0.80803844 -0.0035099871 0)
(0.81047604 -0.0040640472 0)
(0.81311081 -0.0046467339 0)
(0.81595228 -0.0052586043 0)
(0.81900794 -0.0058990735 0)
(0.82228546 -0.0065681338 0)
(0.82579096 -0.0072648629 0)
(0.8295302 -0.0079882953 0)
(0.83350754 -0.0087366541 0)
(0.83772652 -0.0095078736 0)
(0.84218927 -0.010299177 0)
(0.84689673 -0.011107418 0)
(0.85184822 -0.011928836 0)
(0.85704162 -0.012759291 0)
(0.86247301 -0.013594153 0)
(0.86813683 -0.014428472 0)
(0.87402561 -0.015256952 0)
(0.88013012 -0.016074084 0)
(0.88643918 -0.016874172 0)
(0.89293988 -0.017651443 0)
(0.8996174 -0.018400095 0)
(0.90645526 -0.019114386 0)
(0.91343533 -0.019788693 0)
(0.92053794 -0.020417585 0)
(0.92774207 -0.020995876 0)
(0.9350255 -0.021518689 0)
(0.94236497 -0.021981505 0)
(0.9497364 -0.022380219 0)
(0.95711513 -0.022711185 0)
(0.96447607 -0.022971266 0)
(0.97179403 -0.023157876 0)
(0.97904386 -0.023269024 0)
(0.98620075 -0.02330335 0)
(0.99324042 -0.023260158 0)
(1.0001394 -0.023139445 0)
(1.006875 -0.022941925 0)
(1.0134261 -0.022669033 0)
(1.0197726 -0.022322943 0)
(1.0258961 -0.021906553 0)
(1.0317798 -0.021423477 0)
(1.037409 -0.020878023 0)
(1.0427706 -0.020275163 0)
(1.0478538 -0.019620494 0)
(1.0526499 -0.018920195 0)
(1.0571523 -0.018180973 0)
(1.0613567 -0.017410013 0)
(1.065261 -0.01661491 0)
(1.0688655 -0.015803617 0)
(1.0721724 -0.014984366 0)
(1.0751864 -0.014165613 0)
(1.0779142 -0.013355956 0)
(1.0803645 -0.012564074 0)
(1.0825481 -0.011798638 0)
(1.0844774 -0.011068263 0)
(1.0861669 -0.010381395 0)
(1.0876323 -0.0097462756 0)
(1.0888909 -0.0091708174 0)
(1.0899613 -0.0086625838 0)
(1.090863 -0.0082286656 0)
(1.0916163 -0.0078756422 0)
(1.0922421 -0.0076094022 0)
(1.0927618 -0.0074352421 0)
(1.0931967 -0.0073577598 0)
(1.0935679 -0.0073808739 0)
(1.0938959 -0.0075077034 0)
(1.0942005 -0.0077406899 0)
(1.0945003 -0.0080814759 0)
(1.0948125 -0.0085310922 0)
(1.0951528 -0.0090898464 0)
(1.0955348 -0.0097575744 0)
(1.0959697 -0.01053354 0)
(1.0964668 -0.011416823 0)
(1.0970323 -0.012406241 0)
(1.0976696 -0.013500637 0)
(1.0983791 -0.014698807 0)
(1.0991578 -0.015999923 0)
(1.0999993 -0.017403414 0)
(1.1008933 -0.018909658 0)
(1.1018256 -0.020519494 0)
(1.1027772 -0.022235428 0)
(1.1037249 -0.024060525 0)
(1.1046384 -0.026000499 0)
(1.105483 -0.028061075 0)
(1.1062126 -0.030251869 0)
(1.1067768 -0.032580112 0)
(1.1071059 -0.035058153 0)
(1.1071276 -0.037688951 0)
(1.1067358 -0.040481533 0)
(1.1058313 -0.043418434 0)
(1.104255 -0.046490546 0)
(1.1018873 -0.049625283 0)
(1.0985006 -0.052772354 0)
(1.0940005 -0.0557425 0)
(1.0880829 -0.058432037 0)
(1.080809 -0.060434904 0)
(1.0717962 -0.061655474 0)
(1.0615212 -0.061275889 0)
(1.0495435 -0.059486916 0)
(1.0370497 -0.054550939 0)
(1.0239888 -0.047683491 0)
(1.011662 -0.035196113 0)
(1.0034087 -0.020171418 0)
(0.87494057 -6.8541187e-05 0)
(0.87623961 0.00073753488 0)
(0.87671568 0.00055228285 0)
(0.87781503 0.00081678546 0)
(0.87855778 0.00074778573 0)
(0.87961612 0.00079677702 0)
(0.88054207 0.00071485566 0)
(0.88165223 0.00063923147 0)
(0.88273988 0.00049799242 0)
(0.88395906 0.00032806557 0)
(0.8852049 0.00011748823 0)
(0.88654174 -0.00013039848 0)
(0.8879189 -0.00041513205 0)
(0.88936524 -0.00073367842 0)
(0.89087769 -0.0010774913 0)
(0.89248439 -0.001456415 0)
(0.89418539 -0.001875331 0)
(0.89600805 -0.0023392303 0)
(0.89795717 -0.0028381857 0)
(0.9000419 -0.0033725004 0)
(0.90226578 -0.0039424799 0)
(0.9046411 -0.0045502217 0)
(0.90717476 -0.0051929804 0)
(0.90987543 -0.0058707218 0)
(0.91274945 -0.0065824982 0)
(0.91580424 -0.0073282728 0)
(0.91904526 -0.0081071404 0)
(0.92247799 -0.0089184551 0)
(0.92610634 -0.0097607171 0)
(0.92993367 -0.010632254 0)
(0.93396195 -0.011530574 0)
(0.93819224 -0.012452793 0)
(0.94262421 -0.01339528 0)
(0.94725635 -0.014353938 0)
(0.95208566 -0.015324012 0)
(0.95710779 -0.016300303 0)
(0.96231681 -0.017277086 0)
(0.96770531 -0.018248276 0)
(0.97326424 -0.019207427 0)
(0.97898308 -0.020147875 0)
(0.98484965 -0.021062778 0)
(0.99085033 -0.021945248 0)
(0.99696998 -0.022788403 0)
(1.0031921 -0.023585486 0)
(1.0094989 -0.024329932 0)
(1.0158714 -0.025015451 0)
(1.0222896 -0.025636106 0)
(1.0287326 -0.02618638 0)
(1.0351788 -0.026661239 0)
(1.0416061 -0.027056197 0)
(1.0479919 -0.027367366 0)
(1.0543138 -0.02759151 0)
(1.060549 -0.027726092 0)
(1.0666754 -0.027769315 0)
(1.0726712 -0.027720157 0)
(1.0785151 -0.027578405 0)
(1.0841869 -0.027344669 0)
(1.0896674 -0.027020406 0)
(1.0949386 -0.026607915 0)
(1.0999836 -0.026110341 0)
(1.1047874 -0.025531651 0)
(1.1093364 -0.024876618 0)
(1.1136188 -0.02415078 0)
(1.1176244 -0.023360402 0)
(1.1213452 -0.022512423 0)
(1.1247749 -0.021614397 0)
(1.1279091 -0.020674433 0)
(1.1307456 -0.019701126 0)
(1.133284 -0.01870348 0)
(1.1355259 -0.017690843 0)
(1.1374747 -0.016672817 0)
(1.1391356 -0.015659196 0)
(1.1405159 -0.01465986 0)
(1.1416242 -0.013684724 0)
(1.1424709 -0.012743615 0)
(1.143068 -0.011846233 0)
(1.1434286 -0.011002008 0)
(1.1435673 -0.010220075 0)
(1.1434996 -0.0095091062 0)
(1.1432419 -0.0088773342 0)
(1.1428114 -0.0083322725 0)
(1.142226 -0.0078808897 0)
(1.1415036 -0.0075293817 0)
(1.1406624 -0.0072832055 0)
(1.1397202 -0.0071468076 0)
(1.1386947 -0.0071237692 0)
(1.1376027 -0.0072166517 0)
(1.1364602 -0.0074271865 0)
(1.135282 -0.0077561202 0)
(1.1340818 -0.0082034695 0)
(1.1328713 -0.0087683863 0)
(1.1316606 -0.0094494755 0)
(1.1304576 -0.010244672 0)
(1.1292681 -0.011151585 0)
(1.1280956 -0.012167278 0)
(1.126941 -0.013288773 0)
(1.1258031 -0.014513013 0)
(1.1246774 -0.015837327 0)
(1.1235571 -0.017259145 0)
(1.1224321 -0.018776632 0)
(1.1212896 -0.020388287 0)
(1.1201128 -0.022093891 0)
(1.1188821 -0.023893453 0)
(1.1175724 -0.025788861 0)
(1.1161554 -0.027781472 0)
(1.1145944 -0.029875097 0)
(1.1128497 -0.0320705 0)
(1.110867 -0.034371294 0)
(1.1085914 -0.036771529 0)
(1.1059433 -0.039268351 0)
(1.1028515 -0.041834483 0)
(1.0992018 -0.044447821 0)
(1.0949188 -0.047030579 0)
(1.0898484 -0.049523634 0)
(1.0839548 -0.051748136 0)
(1.0770453 -0.053601131 0)
(1.0692247 -0.054720236 0)
(1.0602656 -0.055012381 0)
(1.0505782 -0.053782205 0)
(1.0399333 -0.051171256 0)
(1.0291631 -0.045856085 0)
(1.0184581 -0.038762313 0)
(1.0085224 -0.027700218 0)
(1.0022194 -0.014792104 0)
(0.94687172 -0.00067149542 0)
(0.94870568 4.6724341e-05 0)
(0.9494636 -0.00015202171 0)
(0.95098344 6.9308637e-05 0)
(0.95208126 -2.7675909e-05 0)
(0.95352523 -1.3801319e-05 0)
(0.95480836 -0.00012883479 0)
(0.95626589 -0.00023783719 0)
(0.95767205 -0.00041277037 0)
(0.95917698 -0.00061422195 0)
(0.96068409 -0.00085641275 0)
(0.96227311 -0.0011343344 0)
(0.96390039 -0.0014502642 0)
(0.96560766 -0.0018119375 0)
(0.96738307 -0.0022193087 0)
(0.96925437 -0.0026722607 0)
(0.97121645 -0.003164834 0)
(0.97328066 -0.0036987474 0)
(0.9754474 -0.0042746568 0)
(0.97772938 -0.0048949625 0)
(0.98013081 -0.0055562136 0)
(0.98265957 -0.0062582065 0)
(0.98531991 -0.0069997138 0)
(0.98811898 -0.0077807084 0)
(0.99106134 -0.0085997924 0)
(0.99415224 -0.0094564244 0)
(0.99739517 -0.010349107 0)
(1.0007934 -0.011276541 0)
(1.0043488 -0.012236578 0)
(1.0080624 -0.013226821 0)
(1.0119343 -0.014244062 0)
(1.0159633 -0.015284621 0)
(1.0201472 -0.016344066 0)
(1.0244826 -0.017417439 0)
(1.0289648 -0.018499106 0)
(1.033588 -0.019582951 0)
(1.0383449 -0.020662319 0)
(1.0432273 -0.021730184 0)
(1.0482254 -0.022779158 0)
(1.0533282 -0.023801647 0)
(1.0585237 -0.024789902 0)
(1.0637984 -0.02573616 0)
(1.0691379 -0.026632709 0)
(1.0745268 -0.027472024 0)
(1.0799484 -0.028246837 0)
(1.0853856 -0.02895024 0)
(1.0908203 -0.029575768 0)
(1.0962338 -0.030117478 0)
(1.1016071 -0.030570022 0)
(1.1069208 -0.030928711 0)
(1.1121553 -0.031189581 0)
(1.1172911 -0.031349441 0)
(1.122309 -0.031405926 0)
(1.12719 -0.031357536 0)
(1.1319158 -0.031203668 0)
(1.1364687 -0.030944642 0)
(1.1408318 -0.030581719 0)
(1.1449894 -0.030117104 0)
(1.1489267 -0.029553945 0)
(1.1526305 -0.028896317 0)
(1.1560885 -0.028149194 0)
(1.1592904 -0.027318418 0)
(1.162227 -0.026410647 0)
(1.164891 -0.025433308 0)
(1.1672766 -0.024394527 0)
(1.1693796 -0.023303064 0)
(1.1711976 -0.022168236 0)
(1.1727301 -0.020999844 0)
(1.1739778 -0.019808078 0)
(1.1749434 -0.01860345 0)
(1.1756312 -0.01739669 0)
(1.1760469 -0.016198674 0)
(1.1761977 -0.015020317 0)
(1.1760922 -0.013872507 0)
(1.1757405 -0.012765975 0)
(1.1751538 -0.011711253 0)
(1.1743443 -0.010718515 0)
(1.1733254 -0.0097975608 0)
(1.1721113 -0.0089576127 0)
(1.170717 -0.008207329 0)
(1.1691578 -0.0075547074 0)
(1.1674495 -0.0070069416 0)
(1.1656082 -0.0065700759 0)
(1.1636501 -0.0062492966 0)
(1.161591 -0.006048856 0)
(1.1594465 -0.0059720143 0)
(1.1572315 -0.0060208464 0)
(1.15496 -0.0061964737 0)
(1.1526449 -0.006498842 0)
(1.1502978 -0.006927035 0)
(1.1479291 -0.0074790546 0)
(1.1455473 -0.0081521849 0)
(1.1431593 -0.0089427548 0)
(1.1407705 -0.0098468378 0)
(1.1383839 -0.010860155 0)
(1.1360006 -0.011978283 0)
(1.1336196 -0.013196573 0)
(1.1312375 -0.014510493 0)
(1.128849 -0.015915676 0)
(1.1264463 -0.017408498 0)
(1.1240192 -0.01898554 0)
(1.1215545 -0.020644497 0)
(1.1190368 -0.022383278 0)
(1.1164463 -0.024201263 0)
(1.1137608 -0.026097263 0)
(1.1109513 -0.028071816 0)
(1.107987 -0.03012244 0)
(1.1048256 -0.032248265 0)
(1.1014252 -0.034439402 0)
(1.0977248 -0.036687236 0)
(1.0936726 -0.03896112 0)
(1.0891832 -0.041233377 0)
(1.0842064 -0.043428029 0)
(1.0786308 -0.045485101 0)
(1.0724443 -0.047243713 0)
(1.0655149 -0.048611408 0)
(1.0579466 -0.049280905 0)
(1.0496039 -0.049177737 0)
(1.0408255 -0.04774 0)
(1.0315454 -0.045079551 0)
(1.0223883 -0.040186788 0)
(1.0137447 -0.033694231 0)
(1.0060367 -0.024110003 0)
(1.001412 -0.012682989 0)
(1.0018556 -0.0014574536 0)
(1.0040986 -0.00086461628 0)
(1.0050202 -0.0010493348 0)
(1.0068389 -0.00087361468 0)
(1.0081417 -0.00098383098 0)
(1.0098267 -0.00099616864 0)
(1.0113131 -0.0011293296 0)
(1.0129801 -0.0012581934 0)
(1.014582 -0.0014520311 0)
(1.0162861 -0.0016768034 0)
(1.0179896 -0.0019535576 0)
(1.0197723 -0.0022745575 0)
(1.0215915 -0.0026413442 0)
(1.0234861 -0.0030536826 0)
(1.0254361 -0.0035093174 0)
(1.0274612 -0.004011837 0)
(1.0295565 -0.0045613794 0)
(1.0317362 -0.0051602212 0)
(1.0340006 -0.0058045247 0)
(1.0363575 -0.00649484 0)
(1.0388088 -0.0072297688 0)
(1.0413611 -0.0080097094 0)
(1.0440179 -0.0088327231 0)
(1.0467838 -0.0096981928 0)
(1.0496617 -0.010604467 0)
(1.0526548 -0.011550403 0)
(1.0557648 -0.012534051 0)
(1.0589931 -0.013553457 0)
(1.0623398 -0.014605874 0)
(1.0658043 -0.015688214 0)
(1.069385 -0.0167966 0)
(1.0730793 -0.017926629 0)
(1.0768836 -0.019073155 0)
(1.0807932 -0.02023047 0)
(1.0848027 -0.021392191 0)
(1.0889053 -0.022551439 0)
(1.0930935 -0.023700804 0)
(1.0973588 -0.024832504 0)
(1.1016914 -0.025938413 0)
(1.106081 -0.027010215 0)
(1.1105161 -0.028039469 0)
(1.1149845 -0.029017754 0)
(1.1194731 -0.029936747 0)