/*--------------------------------*- C++ -*----------------------------------*\
| =========                 |                                                 |
| \\      /  F ield         | foam-extend: Open Source CFD                    |
|  \\    /   O peration     | Version:     4.1                                |
|   \\  /    A nd           | Web:         http://www.foam-extend.org         |
|    \\/     M anipulation  |                                                 |
\*---------------------------------------------------------------------------*/
FoamFile
{
    version     2.0;
    format      ascii;
    class       volScalarField;
    location    "0.55";
    object      p;
}
// * * * * * * * * * * * * * * * * * * * * * * * * * * * * * * * * * * * * * //

dimensions      [0 2 -2 0 0 0 0];

internalField   nonuniform List<scalar> 
4393
(
-46.387194
-92.951168
-146.70747
-201.49045
-258.47242
-317.96432
-380.3492
-445.93685
-514.95177
-587.50453
-663.56356
-742.92708
-825.19771
-909.7637
-995.79066
-1082.2268
-1167.8223
-1251.1599
-1330.6926
-1404.782
-1471.7359
-1529.8422
-1577.4042
-1612.7822
-1634.4467
-1641.0526
-1631.5444
-1605.301
-1562.2154
-1502.7878
-1428.23
-1340.4483
-1241.9382
-1135.6015
-1024.5201
-911.73016
-800.03225
-691.86014
-589.21188
-493.63642
-406.26176
-327.84942
-258.86027
-199.52037
-149.89121
-109.94178
-79.452941
-57.514301
-43.307002
-45.135102
-92.36546
-145.995
-200.62672
-257.43954
-316.77659
-379.03455
-444.53526
-513.51509
-586.09663
-662.25994
-741.81328
-824.36636
-909.30992
-995.80642
-1082.7951
-1169.0126
-1253.0251
-1333.2688
-1408.0897
-1475.7805
-1534.6146
-1582.8787
-1618.9112
-1641.1534
-1648.2271
-1639.041
-1612.8995
-1569.6319
-1509.7313
-1434.4153
-1345.6252
-1245.9223
-1138.294
-1025.9124
-911.89346
-799.09798
-689.99637
-586.60111
-490.45776
-402.67865
-324.00272
-254.86818
-195.48828
-145.916
-106.05998
-75.649562
-54.542917
-43.941738
-44.33099
-91.468528
-144.73646
-199.00735
-255.46926
-314.49496
-376.50323
-441.83816
-510.75926
-583.41278
-659.80163
-739.75372
-822.8921
-908.61143
-996.0663
-1084.1762
-1171.6481
-1257.0143
-1338.676
-1414.9472
-1484.0921
-1544.3558
-1593.9929
-1631.2982
-1654.6526
-1662.5976
-1653.9533
-1627.9411
-1584.2986
-1523.4472
-1446.5986
-1355.7636
-1253.6401
-1143.3942
-1028.3842
-911.88928
-796.89038
-685.92838
-581.03986
-483.75783
-395.157
-315.92466
-246.44517
-186.88809
-137.26293
-97.384295
-66.942355
-46.379695
-37.59415
-43.540348
-90.172808
-142.83272
-196.52503
-252.44281
-310.98743
-372.60646
-437.67597
-506.49022
-579.23197
-655.93993
-736.47345
-820.47772
-907.35499
-996.24882
-1086.0485
-1175.4157
-1262.8292
-1346.6374
-1425.1069
-1496.4606
-1558.9049
-1610.6495
-1649.9285
-1675.0344
-1684.386
-1676.6573
-1650.9184
-1606.7588
-1544.4935
-1465.321
-1371.3585
-1265.5207
-1151.2589
-1032.2276
-911.96255
-793.63094
-679.87939
-572.77724
-473.83369
-384.06217
-304.06922
-234.15537
-174.41495
-124.78239
-84.98265
-54.701566
-34.605847
-26.458693
-42.715025
-88.555222
-140.36212
-193.25005
-248.41969
-306.30322
-367.38367
-432.07857
-500.72878
-573.56691
-650.68147
-731.97635
-817.12909
-905.554
-996.38008
-1088.454
-1180.3725
-1270.539
-1357.2277
-1438.6417
-1512.9518
-1578.3179
-1632.8965
-1674.8471
-1702.349
-1713.6589
-1707.2489
-1681.9685
-1637.1818
-1573.0357
-1490.6955
-1392.4234
-1281.4465
-1161.63
-1037.055
-911.62118
-788.7523
-671.23358
-561.16862
-460.02267
-368.71583
-287.73784
-217.27024
-157.29807
-107.6541
-67.981012
-37.972186
-18.348018
-10.588564
-41.706274
-86.505959
-137.21347
-189.06604
-243.27316
-300.30218
-360.67888
-424.87253
-493.28355
-566.20968
-643.80575
-726.03655
-812.62548
-903.00611
-996.28999
-1091.2666
-1186.4442
-1280.1229
-1370.479
-1455.6348
-1533.7005
-1602.7859
-1660.9919
-1706.394
-1737.0355
-1750.9681
-1746.3955
-1721.8644
-1676.4171
-1609.9457
-1523.5439
-1419.6601
-1301.9539
-1174.8682
-1043.0744
-910.96407
-782.29569
-660.02248
-546.27398
-442.43914
-349.30062
-267.18463
-196.10878
-135.90727
-86.278698
-46.766252
-17.032447
2.2394549
9.7813373
-40.564087
-84.09612
-133.45147
-184.02196
-237.0304
-292.98523
-352.4627
-415.99461
-484.05508
-557.02409
-635.14232
-718.45565
-806.75137
-899.49324
-995.77359
-1094.3073
-1193.4834
-1291.4641
-1386.298
-1476.0092
-1558.6419
-1632.2604
-1694.9164
-1744.6019
-1779.2088
-1796.5409
-1794.4569
-1771.0991
-1725.0587
-1655.8444
-1564.4095
-1453.4312
-1327.1564
-1190.8229
-1049.9029
-909.437
-773.6047
-645.54992
-527.4054
-420.4355
-325.22779
-241.88849
-170.22105
-109.86712
-60.361557
-21.126116
8.2508274
27.178284
34.548621
-39.154318
-81.174417
-128.91669
-177.95342
-229.51934
-284.16915
-342.53717
-405.22902
-472.80785
-545.75545
-624.42144
-708.95804
-799.24055
-894.77943
-994.64791
-1097.4644
-1201.4582
-1304.6071
-1404.7938
-1499.9248
-1587.9785
-1666.9872
-1734.9726
-1789.8567
-1829.3737
-1851.0396
-1852.2819
-1830.715
-1784.3072
-1711.9947
-1614.4713
-1494.6819
-1357.6699
-1209.7643
-1057.5166
-906.81146
-762.34246
-627.45279
-504.23178
-393.7461
-296.30961
-211.73655
-139.55625
-79.17169
-29.922844
8.9124337
37.849136
56.41069
63.618529
-37.621502
-77.899773
-123.75717
-170.98474
-220.83252
-273.90708
-330.90838
-392.52749
-459.43348
-532.23253
-611.41107
-697.25989
-789.77551
-888.54082
-992.61471
-1100.4925
-1210.1893
-1319.4345
-1425.8954
-1527.339
-1621.6849
-1706.9612
-1781.1963
-1842.2734
-1887.7782
-1914.9056
-1920.556
-1901.6651
-1855.3497
-1779.6944
-1674.9311
-1544.2998
-1393.9292
-1231.657
-1065.4913
-902.4052
-747.70362
-604.91333
-475.9992
-361.72418
-262.02401
-176.33171
-103.83249
-43.639807
5.1356124
43.384473
71.747824
89.875078
96.900975
-35.716615
-73.973705
-117.65256
-162.78369
-210.62438
-261.83588
-317.19008
-377.47508
-443.48399
-515.9729
-595.59823
-682.82965
-777.82971
-880.29253
-989.2747
-1103.1148
-1219.5374
-1335.9319
-1449.6812
-1558.387
-1659.9279
-1752.3745
-1833.8225
-1902.1748
-1954.901
-1988.8545
-2000.3093
-1985.342
-1939.9209
-1860.87
-1747.6166
-1603.6908
-1436.7175
-1256.6468
-1073.4628
-895.53362
-728.86626
-577.11274
-441.98016
-323.77609
-221.92085
-135.35701
-62.846238
-3.1589758
44.856652
82.281066
109.89642
127.48574
134.29252
-33.766212
-69.77523
-110.98868
-153.72049
-199.23777
-248.25925
-301.63383
-360.25734
-425.06565
-496.99341
-576.90613
-665.50263
-763.17243
-869.78045
-984.40811
-1105.1981
-1229.4775
-1354.1658
-1476.2652
-1593.1851
-1702.7974
-1803.2892
-1892.9162
-1969.6939
-2031.0399
-2073.4665
-2092.5312
-2083.2334
-2040.0176
-1957.8525
-1834.7831
-1674.548
-1486.8673
-1284.7047
-1080.7441
-885.13091
-704.63798
-542.91286
-401.19475
-279.12264
-175.42333
-88.417068
-16.353043
42.396282
89.276359
125.57324
152.21792
169.13169
175.6675
-31.290211
-64.717699
-103.12544
-143.12058
-185.96191
-232.4234
-283.43359
-340.00567
-403.23804
-474.27644
-554.24208
-644.12564
-744.62585
-855.86962
-977.01686
-1105.9695
-1239.503
-1373.8712
-1505.5534
-1631.7296
-1750.3218
-1859.74
-1958.531
-2044.9642
-2116.5197
-2169.408
-2198.4119
-2197.1963
-2158.2255
-2073.7841
-1939.5537
-1759.2269
-1545.5141
-1315.7778
-1086.4208
-869.83212
-673.54683
-500.96045
-352.52246
-226.90913
-121.92742
-35.120887
35.868831
93.119609
138.39508
173.19496
198.59924
214.66899
220.86953
-28.902675
-59.544671
-94.860181
-131.80123
-171.62024
-215.1442
-263.38076
-317.46651
-378.67968
-448.41058
-528.0877
-619.06658
-722.46055
-838.79279
-967.39977
-1105.8965
-1250.2831
-1395.8532
-1538.3566
-1674.7102
-1802.9935
-1922.0072
-2030.7789
-2128.0417
-2211.5283
-2277.2346
-2319.1054
-2329.252
-2297.6586
-2212.7154
-2066.1119
-1860.8649
-1614.0378
-1349.5998
-1089.1101
-847.74892
-633.66482
-449.56389
-294.62383
-166.15999
-60.778968
24.926743
94.018396
149.06797
192.17055
225.03632
248.88495
263.9142
269.70433
-25.801678
-53.263959
-85.096887
-118.58983
-154.9561
-195.06418
-239.99494
-291.01051
-349.58479
-417.3897
-496.22237
-587.89217
-694.0659
-815.86853
-953.00026
-1102.7666
-1260.0733
-1418.8054
-1573.6722
-1721.2887
-1860.0602
-1989.4008
-2109.0416
-2218.4433
-2315.8736
-2397.2834
-2455.7587
-2481.6925
-2462.148
-2380.0184
-2220.2819
-1983.8411
-1694.2062
-1385.6206
-1086.808
-816.33742
-582.53308
-386.67381
-225.95863
-95.815436
8.685464
92.08811
158.24185
210.23903
250.50176
280.93228
302.86929
316.63773
321.93338
-22.955861
-47.076881
-75.159001
-104.88884
-137.44158
-173.71849
-214.86502
-262.26534
-317.59857
-382.85246
-460.25702
-552.16977
-660.97102
-788.67385
-935.66058
-1098.9436
-1271.844
-1446.112
-1614.918
-1774.5372
-1924.0024
-2063.6951
-2194.364
-2316.5948
-2429.6806
-2529.8724
-2609.4414
-2656.9543
-2656.267
-2582.7829
-2410.2764
-2134.3766
-1788.2367
-1422.7616
-1076.5563
-772.13405
-517.00609
-309.82027
-144.78222
-14.757099
87.103359
166.65857
228.60425
276.54946
313.21324
340.65185
360.28854
372.55798
377.26856
-19.202112
-39.53892
-63.45109
-88.989489
-117.23824
-149.1039
-185.77302
-228.73316
-279.86289
-341.49152
-416.35064
-507.44993
-618.06814
-751.51703
-909.43955
-1088.7342
-1280.4527
-1473.0969
-1657.5734
-1829.8542
-1990.1691
-2140.4003
-2282.6304
-2418.9546
-2550.2892
-2673.6148
-2780.3879
-2857.3247
-2885.3077
-2830.3563
-2647.9339
-2321.6393
-1898.9225
-1459.0785
-1053.9911
-710.43969
-433.10235
-216.08723
-49.18613
78.128313
175.02377
248.81524
305.05139
347.80849
380.03765
403.88698
420.81407
431.33661
435.36825
-15.878718
-32.341969
-51.859074
-72.909776
-96.483833
-123.4762
-155.09609
-192.91776
-239.01175
-296.07568
-367.42568
-456.83857
-568.67103
-708.05835
-878.86933
-1078.3633
-1294.2551
-1509.8863
-1712.6422
-1898.193
-2068.8663
-2228.7703
-2381.5478
-2531.1906
-2681.2891
-2830.6166
-2970.241
-3085.4016
-3155.1125
-3134.9337
-2950.7542
-2559.7921
-2029.7446
-1491.1694
-1012.6345
-624.88592
-325.83936
-102.11983
62.818971
183.85097
272.8223
338.55324
387.36609
423.68978
450.59868
470.24275
484.04699
492.57564
495.83532
-11.453935
-23.567863
-38.267085
-54.405756
-72.808154
-94.31487
-120.11197
-151.80603
-191.59814
-242.51853
-308.50799
-394.19211
-505.10378
-648.78665
-832.93422
-1056.3873
-1302.035
-1544.9517
-1767.15
-1964.2646
-2142.6143
-2309.974
-2471.8529
-2634.5101
-2805.8417
-2987.9776
-3171.5996
-3339.7416
-3471.0883
-3512.3321
-3345.0595
-2871.5259
-2184.6439
-1513.149
-942.8327
-506.89416
-189.10489
35.783242
193.14155
303.16554
380.58507
435.60711
475.11909
503.70282
524.39555
539.22987
549.51526
555.817
558.21748
-7.519682
-15.380832
-25.192433
-36.245564
-49.174263
-64.725987
-84.017966
-108.63829
-140.86156
-184.02489
-242.79282
-322.83177
-430.94085
-577.66448
-777.09239
-1032.4475
-1319.6469
-1599.8715
-1846.6262
-2055.7469
-2240.8025
-2415.3074
-2586.1005
-2760.6504
-2952.8275
-3170.2236
-3403.3109
-3632.1172
-3841.3116
-3980.7034
-3869.1028
-3294.9786
-2368.4344
-1515.7441
-830.35857
-345.05191
-15.63438
201.42935
343.33279
436.35114
497.96052
539.36092
567.6189
587.1673
600.79164
610.26114
616.67427
620.54507
622.01057
-2.4700197
-5.6390885
-10.08549
-15.548695
-22.41309
-31.303323
-43.227808
-59.696957
-82.955096
-116.50303
-165.67637
-237.25243
-339.02268
-484.41229
-697.28788
-991.13904
-1332.2535
-1657.7753
-1928.4834
-2140.9986
-2322.4725
-2495.7052
-2667.7108
-2844.6666
-3050.7065
-3304.8873
-3600.8261
-3915.902
-4243.0116
-4554.681
-4584.3014
-3904.4861
-2589.9556
-1483.5162
-653.45893
-124.18524
202.80555
398.24076
514.14551
582.91089
623.98254
648.75481
663.86755
673.19551
679.01044
682.65382
684.91207
686.1931
686.66526
2.9728731
3.9789951
4.5549819
4.3867297
3.4078994
1.1818961
-3.0871611
-10.687077
-23.614728
-45.226182
-81.336838
-140.07263
-230.18374
-367.26421
-589.56626
-933.95762
-1355.9001
-1748.1396
-2052.6873
-2265.4811
-2438.9599
-2611.5982
-2789.7819
-2971.3541
-3196.0599
-3501.9686
-3885.2911
-4315.0668
-4765.7591
-5293.2363
-5575.3367
-4826.5843
-2838.0463
-1376.5306
-376.89477
175.1465
474.5231
628.29833
704.86538
741.18991
756.88045
762.20272
762.53239
760.68891
758.14212
755.63958
753.55991
752.15354
751.59729
8.2883178
13.266422
19.330394
25.173257
31.044819
36.709717
41.632024
44.800985
44.542515
37.816814
18.453259
-23.532475
-98.122189
-220.10898
-443.85225
-852.58127
-1394.8443
-1872.9482
-2207.8872
-2391.3958
-2529.2173
-2685.6225
-2864.412
-3030.4719
-3241.4804
-3575.7561
-4026.06
-4564.1208
-5091.8894
-5962.3656
-6825.5439
-6301.062
-3074.9025
-1171.2374
36.622643
572.9928
805.47957
890.71944
912.39514
907.94736
893.91354
877.54733
861.94893
848.3563
837.16432
828.38354
821.90877
817.79261
816.20122
17.821204
25.84573
36.753179
47.718934
59.423156
71.813504
84.646098
97.270789
108.52406
116.21194
114.90565
93.635306
41.531623
-49.772152
-245.09201
-714.72328
-1438.9399
-2028.6619
-2409.025
-2544.161
-2641.0267
-2786.773
-2984.5848
-3117.327
-3280.5492
-3679.8915
-4226.9644
-4964.4155
-5681.6885
-7245.1173
-8884.2319
-9070.3747
-3579.2869
-1038.5215
635.44148
1099.5676
1197.933
1179.6187
1130.2008
1077.9842
1031.2986
992.08886
960.17167
934.76098
914.97976
900.01317
889.23172
882.46866
879.86725
22.091784
30.865582
46.120435
62.238114
80.186402
100.13576
122.32764
146.78409
173.28683
201.22354
227.32664
240.5529
225.75621
179.89667
44.413107
-483.44578
-1551.0125
-2303.9599
-2766.717
-2771.5673
-2747.7168
-2812.5865
-3025.9834
-3103.9598
-3212.6599
-3764.9071
-4235.6938
-5188.3778
-6473.8521
-7866.1216
-9591.5686
-12105.97
-4824.8884
-72.482265
1723.3518
1812.6485
1641.8591
1479.5015
1346.9847
1243.9672
1164.3267
1102.7301
1055.0879
1018.4004
990.47067
969.65585
954.81105
945.55333
942.00021
36.837671
46.495726
66.435552
87.302718
110.74601
137.08047
166.90817
200.71159
238.82779
281.57473
327.38862
365.06935
371.54512
346.82025
292.21536
-192.79308
-1813.4426
-2608.9172
-3105.9661
-2777.9959
-2621.0978
-2728.192
-3133.7098
-3280.2502
-3310.626
0
0
0
0
0
0
0
0
6203.209
3403.3661
2583.369
2069.0957
1756.7051
1545.9631
1396.9208
1287.8297
1206.2802
1144.6006
1097.816
1062.5664
1036.4825
1017.9681
1006.4539
1002.0393
35.212307
42.119812
63.983138
87.052265
113.20254
142.75657
176.61223
215.72074
261.12259
314.45431
377.54824
445.83848
502.64918
560.41497
707.96506
547.83762
-1991.3488
-2765.9418
-3624.913
-2971.5923
-3041.7256
-3011.0379
0
0
0
0
0
0
0
0
0
0
10131.318
6287.7758
4125.1404
3001.3811
2362.2995
1970.1232
1709.9674
1528.4627
1397.172
1299.9189
1226.861
1171.7183
1130.3155
1099.7519
1078.0926
1064.6353
1059.4773
44.148135
54.914112
80.923465
106.96598
136.15479
169.04568
206.88911
251.11288
303.49724
367.02115
446.92543
545.69481
652.85349
753.7048
839.33964
567.09628
-3095.7812
-3572.4579
-3202.4648
0
0
0
0
0
0
0
0
0
0
0
1783.1241
3367.0096
5758.1596
5237.6846
3962.7326
3101.3609
2508.2396
2108.775
1831.6474
1633.9556
1489.3717
1381.6567
1300.4832
1239.0977
1192.9483
1158.8492
1134.6684
1119.6388
1113.8768
22.181337
42.125878
66.341302
91.270238
118.75311
149.56067
184.7651
225.53143
273.15946
329.84476
399.47708
478.07289
537.90701
537.4799
559.5877
697.49829
0
0
0
0
0
0
-1129.459
-1101.0095
-1008.8528
-915.13595
-787.67889
-492.90317
-92.556449
699.45505
2028.8521
3364.1911
4752.929
4491.5233
3716.2493
3059.9795
2553.8523
2183.3336
1912.5068
1712.6847
1563.3496
1450.5054
1364.6493
1299.2892
1249.9179
1213.3125
1187.2924
1171.0965
1164.8835
19.963181
50.029462
74.987223
100.57128
128.0001
158.10518
191.53632
228.7289
269.64444
313.50175
358.00132
396.67148
406.41219
339.06794
144.08975
-335.77135
-1279.0484
-1223.1691
-1143.4883
-1097.2892
-1048.1716
-1018.888
-1007.6547
-800.65486
-836.12857
-580.72443
-359.9423
-202.23709
261.42928
907.16787
1962.5278
3051.4504
3958.4716
3853.5921
3405.8075
2934.9645
2529.7211
2207.196
1957.8259
1766.5003
1619.5731
1506.3993
1419.1038
1351.9841
1300.9132
1262.8451
1235.6837
1218.7397
1212.2335
20.64336
46.467449
72.114465
97.98168
125.31285
154.85727
187.19524
222.69342
261.33905
302.2279
342.1549
373.89574
385.05277
353.5733
205.87246
-226.37635
-788.95836
-917.58539
-959.32432
-963.11248
-884.91734
-839.55408
-815.97057
-689.30333
-618.51518
-415.17815
-176.83074
80.021771
513.13391
1098.684
1898.3509
2723.6451
3336.7722
3358.5388
3107.2074
2778.5639
2464.6747
2195.0471
1974.7726
1798.8059
1659.6038
1550.0039
1464.0765
1397.2002
1345.8493
1307.313
1279.6856
1262.4013
1255.7566
15.016683
36.27066
58.859888
81.379876
104.40889
128.18609
152.71793
177.64666
202.07378
224.04182
239.34524
240.7716
219.06728
160.31604
16.458154
-281.88926
-604.02736
-729.47525
-781.58783
-791.46536
-750.40046
-700.8247
-639.68569
-535.28927
-421.48103
-235.89855
-9.2034983
272.13646
670.81893
1189.8877
1825.3458
2452.8992
2891.3848
2968.777
2836.5516
2614.4621
2377.5453
2158.9608
1970.41
1813.5571
1685.6039
1582.4761
1500.1656
1435.2244
1384.8392
1346.7312
1319.2582
1302.0128
1295.3738
23.82574
46.449065
70.214707
93.70478
117.6187
142.06333
166.859
191.37911
214.30877
233.08752
243.03946
237.14867
206.66344
136.34252
-5.9571733
-234.67368
-457.69848
-577.14496
-632.68316
-641.87934
-613.23347
-565.75601
-494.81519
-392.05452
-261.9998
-80.635045
141.41348
418.3238
779.1934
1225.8892
1737.5622
2223.7053
2559.0734
2660.2793
2601.2213
2456.3372
2281.5781
2108.447
1951.0114
1814.6797
1699.9637
1605.2469
1528.2153
1466.5452
1418.1558
1381.2425
1354.4664
1337.5959
1331.0914
12.049153
29.986759
50.125214
70.165418
90.210654
110.14079
129.64865
148.06524
164.14478
175.6465
178.87935
168.75784
138.51162
75.752125
-38.656239
-201.68655
-356.59222
-454.33262
-503.58466
-511.72861
-486.44715
-437.56203
-363.29476
-260.25431
-126.23913
49.218481
264.06607
527.36043
851.79925
1234.4111
1650.6453
2034.7308
2303.7732
2413.3002
2399.739
2310.0497
2184.5891
2050.3084
1921.6831
1805.7109
1705.0346
1619.8442
1549.2051
1491.7846
1446.1909
1411.0918
1385.4636
1369.2518
1362.9911
21.407409
40.664152
60.919528
80.470286
99.596802
118.03184
135.26332
150.40129
162.00066
167.7846
164.51879
148.26575
113.98025
53.396369
-42.153667
-163.87295
-276.95734
-353.8905
-393.35928
-398.08938
-372.81776
-322.37433
-246.35331
-142.99703
-9.5261165
159.00208
363.22983
608.15214
898.03775
1226.4508
1569.839
1880.4036
2103.8044
2213.9006
2228.7662
2178.2924
2091.2967
1989.4525
1886.4258
1789.6658
1702.9752
1627.7688
1564.1612
1511.638
1469.415
1436.5999
1412.4733
1397.1475
1391.219
11.88942
28.036797
46.0704
63.76718
81.024222
97.488053
112.63085
125.60197
135.07326
139.05639
134.88156
119.35189
88.461772
36.840603
-38.59823
-128.7549
-211.60349
-269.73807
-298.65329
-298.37719
-271.1927
-219.36673
-142.78096
-40.284257
90.19195
251.07402
443.14418
668.39276
926.62372
1209.7344
1497.1178
1754.0333
1944.4201
2051.4721
2084.1
2061.4833
2004.1505
1929.0413
1848.2009
1768.9943
1695.6705
1630.4146
1574.0911
1526.8258
1488.3428
1458.1381
1435.7715
1421.502
1415.9725
17.154227
33.295132
50.323328
66.516853
81.919001
96.149015
108.65565
118.62108
124.86572
125.76567
119.30737
103.1939
74.682916
30.804221
-28.595873
-95.761731
-156.31145
-198.48226
-217.30076
-211.38719
-181.37812
-128.15313
-51.578882
49.131126
175.25476
327.89921
507.26663
713.30271
943.43409
1189.1267
1433.1445
1650.1604
1815.7101
1918.1968
1961.8463
1959.0531
1924.4489
1871.1221
1809.2098
1745.6365
1684.712
1629.0259
1579.9407
1538.0568
1503.5039
1476.1068
1455.6692
1442.5723
1437.4881
11.992232
26.442302
42.231387
57.396935
71.772663
84.931853
96.320829
105.16817
110.4239
110.73672
104.53835
90.144128
65.776534
30.096764
-15.641034
-65.130579
-108.50042
-137.33887
-147.0026
-135.4914
-102.44721
-47.959167
28.192816
126.517
247.64906
391.86721
558.70211
746.81018
952.45327
1167.4136
1377.592
1564.3673
1710.6925
1808.1473
1858.5182
1869.8618
1852.6314
1816.8865
1770.9604
1721.0713
1671.4028
1624.6796
1582.5687
1546.0027
1515.4211
1490.9162
1472.4972
1460.6402
1456.0291
13.696459
27.43664
42.003168
55.739551
68.565415
80.086485
89.802326
97.047089
100.96146
100.50283
94.530003
81.90078
61.595767
33.29232
-1.2264306
-36.943412
-66.813244
-84.591075
-86.195046
-69.446042
-33.458218
22.112151
97.549005
193.14324
309.06141
445.01689
599.9832
771.85679
956.44166
1146.2164
1329.7635
1493.2171
1624.3599
1716.8486
1771.1872
1792.6322
1788.6769
1767.0338
1734.481
1696.4222
1656.7891
1618.2867
1582.7347
1551.2819
1524.5935
1502.9721
1486.5933
1476.001
1471.8743
11.38317
24.114231
37.789469
50.705399
62.701081
73.383832
82.291069
88.844007
92.342111
91.993473
86.997422
76.646631
60.494662
38.845422
13.623226
-11.153542
-30.259031
-38.888956
-33.554508
-12.116495
26.546445
82.991071
157.51822
250.24345
360.99885
489.10796
633.15071
790.62408
957.27875
1126.4288
1288.8468
1434.0454
1553.0235
1640.8676
1697.4089
1726.078
1732.2687
1721.8922
1700.4347
1672.5064
1641.6938
1610.6033
1581.0971
1554.451
1531.4862
1512.6643
1498.2913
1488.9533
1485.3088
11.437847
23.386306
36.074967
47.969538
58.948362
68.658436
76.698388
82.589566
85.7859
85.712867
81.844213
73.80553
61.54603
45.714584
28.179489
12.190524
1.7585283
0.67780888
11.901906
37.420825
78.417411
135.52743
209.03023
298.89946
404.73087
525.58431
659.79415
804.69467
956.20323
1108.4712
1254.0139
1384.759
1493.8982
1577.5362
1635.1598
1668.9972
1682.9475
1681.5494
1669.2333
1649.8991
1626.7489
1602.2433
1578.2151
1556.0009
1536.5225
1520.358
1507.9124
1499.7908
1496.6161
10.376859
21.61097
33.578118
44.78641
55.100873
64.197979
71.732547
77.31795
80.544664
81.021882
78.447218
72.703502
64.013378
53.208854
42.030225
33.149203
29.74337
34.870884
51.032412
80.024993
122.99565
180.57922
253.00838
340.14194
441.41056
555.70389
681.22537
815.29423
954.10024
1092.5635
1224.5654
1343.7745
1444.9102
1524.8201
1582.8244
1620.352
1640.2342
1645.9681
1641.1333
1629.0208
1612.452
1593.7095
1574.5627
1556.3604
1540.0821
1526.3889
1515.759
1508.7961
1506.0716
9.9753719
20.576028
31.836273
42.36451
52.046023
60.594469
67.720619
73.121123
76.50225
77.621249
76.349163
72.756871
67.243851
60.723662
54.787549
51.673209
53.964192
64.173869
84.428402
116.32445
160.9245
218.81848
290.17951
374.77387
471.91877
580.40176
698.37629
823.23226
951.46815
1078.6743
1199.793
1309.7589
1404.376
1481.0422
1539.0075
1579.165
1603.5805
1614.9633
1616.2153
1610.1155
1599.1397
1585.3782
1570.5176
1555.8873
1542.4942
1531.0565
1522.1081
1516.2354
1513.9388
9.3929291
19.468012
30.179965
40.198394
49.41711
57.583769
64.461043
69.819927
73.465363
75.275295
75.256215
73.616814
70.868914
67.951012
66.313173
67.864954
74.757922
89.09673
112.7028
146.98447
192.90069
250.97594
321.32031
403.62618
497.13462
600.57876
712.11433
829.24503
948.77335
1066.8535
1179.2456
1281.8117
1371.1361
1445.0283
1502.7188
1544.7392
1572.6048
1588.4315
1594.5874
1593.4289
1587.1309
1577.598
1566.4257
1554.9075
1544.0565
1534.6303
1527.2104
1522.3555
1520.4671
8.9726811
18.592243
28.826406
38.408799
47.245762
55.116463
61.829054
67.217132
71.165723
73.647379
74.770742
74.841952
74.440927
74.500977
76.347879
81.642622
92.218668
109.87223
136.18039
172.38505
219.34043
277.49996
346.9135
427.21536
517.597
616.76881
722.9188
833.67933
946.1293
1056.8839
1162.3289
1259.0073
1344.0702
1415.6355
1472.9398
1516.2702
1546.7465
1566.0409
1576.1064
1578.9578
1576.5168
1570.5206
1562.4723
1553.6232
1544.9774
1537.3172
1531.272
1527.3767
1525.8926
8.5879311
17.852196
27.71985
36.97407
45.530338
53.196106
59.819135
65.285401
69.544407
72.642153
74.763344
76.281804
77.816938
80.283385
84.903572
93.1515
106.62615
126.89202
155.33413
193.05442
240.81172
298.99219
367.59239
446.20201
533.98152
629.63791
731.40505
837.04028
943.8591
1048.8428
1148.8491
1240.9193
1322.6151
1392.2843
1449.1804
1493.4248
1525.8547
1547.8132
1560.9363
1566.9688
1567.6251
1564.4992
1559.0089
1552.3634
1545.5489
1539.3619
1534.4974
1531.5052
1530.4476
8.2195045
17.212791
26.799595
35.806882
44.155802
51.678472
58.255372
63.81408
68.353692
71.975077
74.917818
77.601546
80.667486
85.008093
91.764102
102.27143
117.95851
140.21877
170.29075
209.16452
257.51862
315.68124
383.60484
460.84575
546.5459
639.41884
737.74612
839.39443
941.8705
1042.4358
1138.2958
1226.8502
1305.9548
1374.1254
1430.6351
1475.4947
1509.3426
1533.2845
1548.7208
1557.1905
1560.2466
1559.3676
1555.9013
1551.023
1545.7022
1540.7384
1536.9077
1534.8519
1534.3585
7.847736
16.715362
26.125711
34.972948
43.184724
50.61709
57.177497
62.825541
67.596992
71.632171
75.208693
78.775975
82.986168
88.710751
97.028748
109.17815
126.46892
150.17425
181.42689
221.13349
269.91073
328.04145
395.44446
471.65263
555.79756
646.60296
742.39213
841.11865
940.43314
1037.8
1130.6692
1216.6887
1293.9165
1360.9863
1417.1887
1462.4628
1497.3123
1522.678
1539.7936
1550.0494
1554.8796
1555.676
1553.7319
1550.1975
1546.0261
1541.9886
1538.9095
1537.6821
1537.9645
7.3447548
16.280808
25.611181
34.373933
42.505419
49.886124
56.444256
62.161545
67.097827
71.41843
75.424272
79.581831
84.547504
91.177094
100.50983
113.72393
132.05586
156.70015
188.71945
228.96498
278.01157
336.11118
403.16003
478.67604
561.78543
651.22079
745.33556
842.14283
939.38872
1034.669
1125.5895
1209.9539
1285.9479
1352.2797
1408.2533
1453.7642
1489.2331
1515.4964
1533.6808
1545.0804
1551.051
1552.9249
1551.9551
1549.2775
1545.8394
1542.3566
1539.6493
1539.2116
1541.402
6.1220491
15.948964
25.330858
34.08628
42.187293
49.54641
56.106043
61.860104
66.880725
71.345743
75.567808
80.022146
85.368046
92.456221
102.31073
116.07326
134.93289
160.04771
192.45029
232.96493
282.14557
340.22846
407.09832
482.26547
564.85357
653.60003
746.87398
842.71909
938.92979
1033.1676
1123.1156
1206.6546
1282.0329
1347.9963
1403.8559
1449.4872
1485.2703
1511.9907
1530.7234
1542.7151
1549.2785
1551.7151
1551.266
1549.0704
1546.0857
1542.9871
1540.5606
1541.0765
1546.916
-2223.9051
-2478.0311
-2692.5403
-2873.1787
-3014.338
-3095.1707
-3095.7812
-3015.592
-2843.2531
-2651.2321
-3202.4965
-3202.4648
-3195.7001
-3184.8194
-3170.9267
-3158.5938
-3146.8044
-3156.8287
-3156.6954
-3128.3471
-3181.5126
-3180.4498
-3165.7211
-3149.0386
-3132.5858
-3124.3728
-3106.5772
-3113.1876
-3099.2892
-3044.9068
-3135.8468
-3133.1313
-3124.5505
-3115.9626
-3107.1857
-3110.1566
-3099.4334
-3097.1191
-3083.6079
-3046.5321
-3075.1014
-3073.748
-3069.2905
-3063.2237
-3054.1156
-3052.8131
-3053.8397
-3053.9974
-3053.205
-3057.1419
-3030.0558
-3029.3216
-3024.2039
-3015.0265
-3001.4489
-2971.5923
-2993.4449
-3004.882
-3010.6213
-3023.051
-3015.4826
-3017.2028
-3020.9624
-3025.0141
-3038.0477
-3016.1892
-3013.8946
-3008.3537
-2991.7333
-2967.3459
-3027.6777
-3029.0129
-3034.3344
-3041.7256
-3064.3036
-3073.1079
-3054.413
-3028.9686
-2999.4061
-2964.0625
-3850.994
-3863.7025
-3834.9322
-3790.6636
-3753.1949
-3721.1688
-3699.6682
-3685.904
-3676.8929
-3678.5177
-2983.3325
-2982.2736
-2975.2419
-2959.841
-2919.788
-2944.7055
-2956.3573
-2958.4811
-2948.1167
-2921.2284
-3007.8766
-3011.0379
-3017.7299
-3038.6677
-3016.4197
-3006.238
-3000.9398
-2992.5668
-2978.0012
-2962.6339
-3044.8097
-3046.8887
-3051.018
-3074.5934
-3087.9552
-3064.5544
-3038.4286
-3018.6544
-3000.2402
-2984.1736
-2992.7391
-2988.9306
-2969.0083
-2942.7835
-2965.6648
-2984.1653
-2996.8306
-3005.6418
-3009.1052
-3017.1037
-3028.4244
-3031.3879
-3030.0557
-2991.6402
-3001.4847
-3015.845
-3027.5107
-3035.6638
-3039.5578
-3049.8603
-3160.6613
-3169.0109
-3193.8139
-3191.4476
-3162.292
-3133.7098
-3112.4802
-3096.7294
-3081.0814
-3063.6619
-3149.6734
-3145.0463
-3137.6395
-3158.7341
-3158.6053
-3151.5684
-3144.1156
-3137.5842
-3130.667
-3131.85
-3172.5591
-3172.1601
-3148.252
-3157.7701
-3168.7081
-3176.0087
-3179.3175
-3179.9607
-3178.1911
-3182.0238
-3285.5262
-3297.9255
-3294.7712
-3280.2502
-3264.2392
-3251.4239
-3241.8894
-3235.2846
-3227.6862
-3218.4196
-3285.7656
-3289.3449
-3296.5906
-3289.3578
-3280.6117
-3275.6683
-3275.6539
-3280.0366
-3284.8095
-3296.7069
-3190.911
-3176.6666
-3194.0455
-3220.0444
-3249.7366
-3278.622
-3305.6506
-3330.1126
-3350.0121
-3374.6204
-3334.317
-3310.626
-3319.886
-3339.6672
-3365.8547
-3390.5472
-3412.5022
-3430.4562
-3442.5254
-3457.8075
-3709.3525
-3700.5366
-3669.4312
-3634.8079
-3609.1083
-3589.0081
-3576.3729
-3568.7472
-3562.2368
-3559.0293
-3012.0398
-3010.4001
-3004.3715
-2991.4986
-2983.7475
-2991.4691
-2992.677
-2989.0524
-2981.1505
-2980.9372
-3530.6331
-3539.2649
-3554.0157
-3601.2808
-3657.3617
-3708.8528
-3729.5079
-3710.7135
-3626.049
-3453.4458
-3264.3309
-3264.496
-3267.2736
-3271.8084
-3272.5962
-3271.4162
-3269.0934
-3264.8106
-3260.3787
-3213.4219
-3171.1892
-3218.784
-3280.7667
-3385.0056
-3495.6562
-3581.66
-3624.2432
-3583.3046
-3433.5494
-3200.8048
-3471.9974
-3481.9437
-3502.8026
-3539.1504
-3572.4579
-3600.6899
-3608.8837
-3608.4358
-3572.3198
-3459.3492
-3361.0389
-3365.3476
-3379.3455
-3402.9095
-3423.5416
-3440.9165
-3449.0043
-3438.4865
-3425.5612
-3373.3389
11320.442
10717.3
10131.318
9491.6657
8834.5512
8181.2215
7546.841
6938.4257
6348.9697
5771.9088
8304.3687
8226.9789
8103.6118
7841.8787
7503.916
7113.4144
6691.6753
6256.5809
5818.3657
5361.9268
-3708.3234
-3726.7019
-3744.7928
-3751.5835
-3761.0341
-3764.9071
-3770.1681
-3773.9197
-3775.4376
-3779.011
-3706.1304
-3709.9647
-3745.5014
-3777.0469
-3816.5283
-3844.0806
-3868.3436
-3884.6273
-3893.4515
-3897.7357
-3949.154
-3941.8039
-3957.8699
-3965.2844
-3993.6435
-4012.0322
-4031.9217
-4044.9579
-4050.4293
-4046.0059
-4225.3676
-4214.996
-4229.2328
-4219.6933
-4235.6938
-4237.4806
-4243.9521
-4244.9512
-4241.3386
-4236.9268
-4548.0938
-4529.9126
-4541.6284
-4514.477
-4518.1919
-4500.2234
-4487.6749
-4467.5499
-4439.7945
-4407.3418
-4904.4349
-4877.1739
-4886.75
-4840.2119
-4831.7114
-4793.0943
-4760.1614
-4716.6232
-4661.8437
-4601.5178
-5285.1841
-5246.6955
-5255.3072
-5188.3778
-5168.7661
-5110.5526
-5059.0558
-4995.4675
-4919.0945
-4833.6581
-5686.1345
-5634.023
-5642.8224
-5553.6957
-5522.8256
-5444.4804
-5373.7187
-5291.1695
-5201.0807
-5118.4072
-6108.2208
-6039.064
-6048.8909
-5934.7977
-5891.2814
-5790.7644
-5696.3083
-5586.1727
-5460.7493
-5325.0318
-6551.5601
-6461.4403
-6473.8521
-6332.1145
-6274.8207
-6151.8367
-6033.591
-5899.3784
-5749.6662
-5587.7928
-7022.2781
-6905.1168
-6920.8649
-6747.2946
-6673.1132
-6525.4313
-6379.4522
-6217.1338
-6038.5421
-5852.5608
-7519.2548
-7368.9948
-7391.0995
-7182.5769
-7088.3812
-6914.2367
-6736.3671
-6540.1964
-6321.4802
-6084.0982
-8060.8167
-7866.1216