/*--------------------------------*- C++ -*----------------------------------*\
| =========                 |                                                 |
| \\      /  F ield         | foam-extend: Open Source CFD                    |
|  \\    /   O peration     | Version:     4.1                                |
|   \\  /    A nd           | Web:         http://www.foam-extend.org         |
|    \\/     M anipulation  |                                                 |
\*---------------------------------------------------------------------------*/
FoamFile
{
    version     2.0;
    format      ascii;
    class       surfaceScalarField;
    location    "0.55";
    object      phi;
}
// * * * * * * * * * * * * * * * * * * * * * * * * * * * * * * * * * * * * * //

dimensions      [0 3 -1 0 0 0 0];

internalField   nonuniform List<scalar> 
8438
(
-0.5974293
0.0016714182
-0.59916612
0.0017368208
-0.60093797
0.0017718465
-0.60275385
0.0018158846
-0.60462355
0.0018696926
-0.6065575
0.0019339489
-0.60856512
0.0020076241
-0.61065405
0.0020889289
-0.61282942
0.0021753672
-0.61509317
0.0022637486
-0.61744335
0.002350185
-0.61987348
0.0024301249
-0.62237193
0.0024984561
-0.62492163
0.0025496974
-0.6274999
0.0025782746
-0.63007879
0.0025788837
-0.63262558
0.0025467902
-0.63510371
0.002478129
-0.63747374
0.0023700347
-0.63969438
0.0022206346
-0.64172335
0.0020289751
-0.64351828
0.0017949312
-0.64503747
0.00151919
-0.64624084
0.0012033712
-0.64709118
0.0008503397
-0.6475559
0.00046472004
-0.64760918
5.3278715e-05
-0.64723361
-0.00037557463
-0.64642416
-0.00080944425
-0.64519231
-0.001231854
-0.64356693
-0.0016253779
-0.64159409
-0.0019728356
-0.6393349
-0.002259199
-0.6368614
-0.0024734943
-0.63425139
-0.002610014
-0.63158283
-0.0026685586
-0.62892905
-0.0026537775
-0.62635513
-0.0025739208
-0.62391576
-0.0024393689
-0.62165451
-0.0022612533
-0.61960415
-0.0020503564
-0.61778779
-0.0018163578
-0.6162204
-0.0015673997
-0.6149104
-0.0013099973
-0.61386089
-0.0010495097
-0.61307008
-0.00079080599
-0.6125343
-0.00053577789
-0.6122587
-0.00027560825
-1.3746668e-05
-0.61122178
0.0031350455
-0.61267888
0.00319392
-0.61416324
0.003256209
-0.61568814
0.0033407853
-0.61726604
0.0034475923
-0.61890816
0.0035760663
-0.62062436
0.0037238224
-0.62242262
0.0038871879
-0.62430841
0.0040611597
-0.62628402
0.004239357
-0.62834782
0.0044139879
-0.6304936
0.0045759049
-0.63270995
0.0047148022
-0.63497985
0.0048195971
-0.63728057
0.0048789952
-0.63958392
0.0048822361
-0.64185685
0.0048197265
-0.64406239
0.0046836592
-0.64616063
0.0044682786
-0.64810985
0.0041698522
-0.64986737
0.0037864938
-0.65139038
0.0033179488
-0.65263673
0.0027655375
-0.65356575
0.0021323897
-0.65413947
0.0014240621
-0.65432429
0.00064954303
-0.65409346
-0.00017755485
-0.65343108
-0.0010379516
-0.65233401
-0.0019065206
-0.65081316
-0.0027527053
-0.64889659
-0.0035419445
-0.64663006
-0.0042393649
-0.644075
-0.0048142617
-0.64130429
-0.005244198
-0.63839674
-0.0055175648
-0.63543124
-0.0056340625
-0.63248173
-0.0056032882
-0.62961353
-0.0054421154
-0.62688126
-0.005171647
-0.62432812
-0.0048143896
-0.62198645
-0.0043920267
-0.6198789
-0.0039239126
-0.61802005
-0.0034262428
-0.61641813
-0.0029119154
-0.61507647
-0.0023911761
-0.61399531
-0.001871959
-0.61317419
-0.001356902
-0.61260482
-0.00084497479
-0.00037377136
-0.61226645
0.0045485895
-0.61367837
0.0046058416
-0.61511523
0.0046930705
-0.616592
0.0048175515
-0.61812198
0.0049775725
-0.61971699
0.0051710766
-0.62138738
0.0053942116
-0.62314162
0.0056414355
-0.62498576
0.005905298
-0.62692269
0.006176288
-0.62895145
0.0064427401
-0.63106643
0.0066908861
-0.63325675
0.0069051299
-0.63550577
0.0070686147
-0.63779087
0.0071640951
-0.64008375
0.0071751112
-0.64235103
0.0070870119
-0.64455531
0.0068879367
-0.64665625
0.0065692228
-0.64861172
0.0061253203
-0.65037867
0.0055534461
-0.6519139
0.0048531773
-0.65317466
0.0040262987
-0.6541194
0.0030771265
-0.65470879
0.0020134467
-0.65490734
0.00084810248
-0.65468588
-0.00039901893
-0.65402429
-0.0016995416
-0.6529151
-0.00301571
-0.65136725
-0.0043005613
-0.64940863
-0.0055005613
-0.64708672
-0.0065612729
-0.64446638
-0.0074346019
-0.64162505
-0.0080855289
-0.63864635
-0.0084962647
-0.63561349
-0.0086669273
-0.63260365
-0.0086131221
-0.62968414
-0.0083616253
-0.6269103
-0.007945485
-0.62432512
-0.0073995725
-0.62195999
-0.0067571543
-0.61983627
-0.00604764
-0.61796709
-0.0052954237
-0.61635927
-0.004519734
-0.6150152
-0.0037352408
-0.61393506
-0.0029521056
-0.61311712
-0.0021748421
-0.61255287
-0.0014092207
-0.00068169141
-0.61262282
0.0059327575
-0.61401438
0.0059973984
-0.61543152
0.0061102098
-0.6168892
0.0062752343
-0.61840121
0.0064895773
-0.61998005
0.0067499231
-0.62163686
0.0070510206
-0.62338096
0.0073855313
-0.62521929
0.0077436267
-0.6271557
0.0081127026
-0.62919015
0.0084771924
-0.63131785
0.0088185838
-0.63352847
0.009115746
-0.63580553
0.0093456777
-0.63812615
0.0094847189
-0.64046128
0.0095102325
-0.64277639
0.0094021228
-0.64503271
0.0091442619
-0.64718854
0.0087250562
-0.64920047
0.008137244
-0.6510243
0.0073772732
-0.6526157
0.0064445819
-0.65393066
0.0053412582
-0.65492594
0.0040724019
-0.65555989
0.0026474016
-0.65579398
0.0010821936
-0.65559518
-0.00059781592
-0.65493934
-0.0023553876
-0.65381526
-0.0041397909
-0.65222932
-0.0058865035
-0.65020911
-0.0075207689
-0.64780472
-0.00896566
-0.64508642
-0.010152905
-0.64213887
-0.011033081
-0.63905334
-0.011581795
-0.6359198
-0.011800466
-0.63282047
-0.01171245
-0.62982561
-0.011356483
-0.62699161
-0.010779486
-0.62436096
-0.01003022
-0.62196356
-0.009154562
-0.61981866
-0.0081925342
-0.61793718
-0.0071769098
-0.6163238
-0.0061331062
-0.61497923
-0.0050798101
-0.61390204
-0.0040292975
-0.61308865
-0.0029882376
-0.61253365
-0.0019642134
-0.00097039636
-0.6130468
0.0072898641
-0.61441512
0.0073657159
-0.61580998
0.0075050694
-0.61724654
0.007711789
-0.61873906
0.0079820973
-0.62030084
0.0083117098
-0.62194397
0.0086941429
-0.62367884
0.0091204061
-0.62551362
0.0095784113
-0.62745345
0.010052528
-0.62949952
0.010523263
-0.63164814
0.010967201
-0.63388974
0.011357347
-0.6362081
0.011664039
-0.63857992
0.01185654
-0.64097504
0.011905349
-0.64335728
0.011784371
-0.64568595
0.011472928
-0.64791741
0.010956514
-0.65000654
0.010226376
-0.65190772
0.009278451
-0.65357529
0.008112152
-0.65496372
0.0067296956
-0.65602775
0.0051364296
-0.65672281
0.0033424595
-0.65700631
0.0013656909
-0.65684006
-0.00076405858
-0.65619415
-0.003001303
-0.65505178
-0.0052821632
-0.65341528
-0.0075229986
-0.65131144
-0.0096246085
-0.64879387
-0.011483232
-0.64594056
-0.013006219
-0.64284661
-0.014127031
-0.63961428
-0.01481412
-0.63634312
-0.015071622
-0.63312228
-0.014933289
-0.63002592
-0.014452848
-0.62711157
-0.013693841
-0.62442076
-0.012721029
-0.62198106
-0.011594263
-0.61980872
-0.010364868
-0.61791149
-0.0090741433
-0.61629116
-0.0077534306
-0.614946
-0.0064249731
-0.61387241
-0.0051028872
-0.61306547
-0.0037951765
-0.61252128
-0.0025084111
-0.0012468719
-0.61358337
0.0086147205
-0.61492201
0.0087043544
-0.61628855
0.0088716073
-0.6176983
0.0091215414
-0.61916611
0.009449909
-0.62070618
0.0098517797
-0.62233172
0.010319681
-0.6240545
0.010843189
-0.62588424
0.011408145
-0.62782772
0.01199601
-0.62988782
0.012583366
-0.63206234
0.01314172
-0.6343428
0.013637804
-0.63671338
0.014034617
-0.63915028
0.014293444
-0.64162188
0.01437695
-0.64408978
0.014252266
-0.64651063
0.013893787
-0.64883829
0.013284168
-0.65102548
0.012413562
-0.65302487
0.011277841
-0.65478935
0.0098766315
-0.65627176
0.0082121055
-0.65742449
0.0062891644
-0.65819944
0.0041174138
-0.65854889
0.0017151338
-0.65842787
-0.00088507247
-0.65779862
-0.0036305583
-0.65663638
-0.0064444028
-0.65493739
-0.0092219875
-0.65272668
-0.011835316
-0.65006234
-0.014147579
-0.64703295
-0.016035604
-0.64374815
-0.017411827
-0.64032538
-0.018236895
-0.63687711
-0.018519888
-0.63350155
-0.018308853
-0.6302776
-0.017676796
-0.62726381
-0.016707636
-0.62449993
-0.015484903
-0.62201008
-0.01408412
-0.61980625
-0.012568697
-0.61789184
-0.010988551
-0.61626469
-0.0093805793
-0.61491963
-0.0077700345
-0.61385022
-0.0061722987
-0.61304986
-0.0045955304
-0.61251429
-0.0030439816
-0.0015162158
-0.61423563
0.0099035802
-0.61553865
0.010007371
-0.61687046
0.01020342
-0.61824709
0.01049817
-0.61968417
0.010886983
-0.62119694
0.011364559
-0.62279999
0.011922725
-0.62450672
0.012549923
-0.62632876
0.013230187
-0.62827502
0.013942265
-0.63035052
0.014658866
-0.63255505
0.015346252
-0.63488165
0.015964399
-0.63731514
0.016468111
-0.63983119
0.016809488
-0.64239626
0.016942027
-0.64496899
0.016824992
-0.64750256
0.016427356
-0.64994751
0.015729125
-0.65225397
0.014720016
-0.65437272
0.01339659
-0.65625523
0.011759141
-0.6578528
0.0098096778
-0.65911543
0.0075517986
-0.65999102
0.0049929957
-0.6604256
0.0021497159
-0.66036563
-0.0009450449
-0.65976286
-0.004233319
-0.65858146
-0.007625807
-0.65680854
-0.010994911
-0.65446571
-0.014178141
-0.65161644
-0.016996855
-0.64836361
-0.019288428
-0.64483676
-0.020938681
-0.64117386
-0.021899792
-0.6375045
-0.022189252
-0.63393827
-0.021875083
-0.63055954
-0.021055519
-0.62742735
-0.01983983
-0.62457848
-0.018333778
-0.62203206
-0.016630541
-0.61979437
-0.014806378
-0.61786318
-0.012919749
-0.61623122
-0.011012533
-0.61488902
-0.0091122411
-0.61382664
-0.0072346753
-0.61303514
-0.0053870322
-0.61250847
-0.0035706552
-0.0017797311
-0.61499802
0.011148001
-0.61625817
0.011267513
-0.61754846
0.011493719
-0.61888536
0.011835064
-0.62028532
0.012286944
-0.62176479
0.012844035
-0.6233399
0.013497834
-0.62502601
0.014236031
-0.62683706
0.015041231
-0.62878455
0.015889761
-0.63087628
0.016750591
-0.63311463
0.017584601
-0.63549472
0.018344487
-0.6380024
0.018975801
-0.64061278
0.019419864
-0.64328991
0.019619159
-0.64598847
0.019523553
-0.64865705
0.019095929
-0.65124194
0.018314017
-0.65369011
0.017168183
-0.6559504
0.015656887
-0.65797314
0.013781882
-0.65970848
0.011545012
-0.66110424
0.0089475564
-0.66210405
0.005992807
-0.66264672
0.0026923932
-0.66266804
-0.00092372749
-0.66210616
-0.0047951993
-0.66090996
-0.0088220088
-0.65905308
-0.012851795
-0.65655088
-0.01668034
-0.65347293
-0.020074798
-0.64994132
-0.022820039
-0.64611274
-0.024767259
-0.64215288
-0.02585966
-0.63821353
-0.026128599
-0.63441829
-0.025670318
-0.63085735
-0.024616462
-0.62758907
-0.023108112
-0.62464538
-0.021277472
-0.62203839
-0.019237525
-0.61976678
-0.017077987
-0.61782107
-0.014865465
-0.61618769
-0.012645905
-0.61485196
-0.010447978
-0.61379988
-0.0082867506
-0.6130196
-0.0061673187
-0.61250267
-0.0040875849
-0.0020375972
-0.61587164
0.01234458
-0.61708292
0.012478791
-0.61832481
0.012735611
-0.61961488
0.013125131
-0.62097063
0.0136427
-0.62240987
0.014283273
-0.62395047
0.015038437
-0.62561006
0.015895619
-0.62740532
0.016836495
-0.62935097
0.017835412
-0.63145824
0.01885786
-0.63373293
0.019859284
-0.636173
0.020784561
-0.63876593
0.021568735
-0.64148634
0.022140268
-0.64429525
0.02242807
-0.64714212
0.022370424
-0.6499694
0.021923208
-0.65271791
0.021062529
-0.65533086
0.019781136
-0.65775527
0.018081293
-0.65994089
0.015967501
-0.66183752
0.013441642
-0.66339148
0.01050152
-0.66454225
0.0071435757
-0.66522051
0.0033706565
-0.66534911
-0.00079513204
-0.66484868
-0.0052956259
-0.66364732
-0.010023365
-0.66169884
-0.014800277
-0.65900759
-0.019371592
-0.65564957
-0.023432821
-0.65177264
-0.026696967
-0.64757091
-0.028968987
-0.64324742
-0.030183154
-0.63898272
-0.030393294
-0.63491715
-0.029735895
-0.63114642
-0.028387187
-0.62772623
-0.026528305
-0.62468089
-0.024322816
-0.62201277
-0.021905645
-0.61971057
-0.019380187
-0.61775573
-0.016820297
-0.61612706
-0.014274583
-0.61480368
-0.011771357
-0.61376694
-0.0093234856
-0.61300156
-0.0069327029
-0.61249641
-0.0045927339
-0.002289056
-0.61684984
0.013481395
-0.61800353
0.013632475
-0.61918926
0.013921344
-0.62042484
0.014360716
-0.62172872
0.01494658
-0.62312009
0.015674642
-0.62461877
0.016537117
-0.62624495
0.017521791
-0.62801854
0.018610084
-0.62995811
0.019774986
-0.6320792
0.020978951
-0.63439201
0.022172091
-0.63689842
0.023290974
-0.63958838
0.024258696
-0.64243628
0.024988172
-0.64539937
0.025391158
-0.64842012
0.025391168
-0.65143268
0.024935767
-0.65437068
0.024000531
-0.65717287
0.022583323
-0.65978473
0.020693154
-0.66215651
0.018339285
-0.66423904
0.015524172
-0.66597841
0.012240893
-0.66731057
0.0084757345
-0.66815748
0.0042175676
-0.66842673
-0.00052589058
-0.66801668
-0.0057056734
-0.6668275
-0.011212548
-0.664784
-0.016843769
-0.66187166
-0.02228394
-0.65817216
-0.027132323
-0.65386832
-0.031000799
-0.64920639
-0.033630917
-0.64444011
-0.034949441
-0.63978701
-0.035046389
-0.63540681
-0.034116098
-0.63139943
-0.032394562
-0.62781446
-0.030113278
-0.62466464
-0.027472636
-0.62193899
-0.024631294
-0.61961337
-0.021705813
-0.61765805
-0.018775609
-0.61604277
-0.015889872
-0.61473961
-0.013074508
-0.61372473
-0.010338371
-0.61297904
-0.0076783875
-0.61248864
-0.0050831391
-0.0025327455
-0.61793166
0.01455773
-0.61902224
0.01472306
-0.62014457
0.015043672
-0.62131788
0.015534024
-0.62256173
0.016190434
-0.62389682
0.017009725
-0.62534504
0.017985338
-0.62692943
0.019106183
-0.62867364
0.020354292
-0.63060083
0.021702181
-0.63273186
0.023109977
-0.63508256
0.024522797
-0.63766017
0.025868581
-0.64045841
0.027056937
-0.64345205
0.027981808
-0.64659365
0.028532766
-0.64981633
0.028613841
-0.65304289
0.028162327
-0.6561974
0.027155047
-0.65921332
0.025599243
-0.66203533
0.023515158
-0.66461586
0.020919815
-0.66690889
0.017817211
-0.66886242
0.014194417
-0.67041024
0.010023557
-0.6714654
0.005272728
-0.67191818
-7.3113712e-05
-0.67163881
-0.00598504
-0.67049035
-0.012361006
-0.66835567
-0.018978457
-0.66518829
-0.02545132
-0.66107265
-0.031247961
-0.65623951
-0.035833934
-0.6510091
-0.03886133
-0.6457046
-0.040253942
-0.64059093
-0.040160061
-0.63584923
-0.038857796
-0.63158044
-0.036663355
-0.62782257
-0.033871146
-0.62457122
-0.030723981
-0.62179738
-0.027405138
-0.61946059
-0.024042605
-0.61751765
-0.020718549
-0.61592776
-0.017479758
-0.61465521
-0.014347058
-0.6136705
-0.01132308
-0.61295062
-0.0083982746
-0.61247884
-0.0055549105
-0.0027667894
-0.6191138
0.015556648
-0.62013043
0.01573969
-0.62118029
0.016093525
-0.62228224
0.016635982
-0.62345661
0.017364805
-0.62472548
0.018278593
-0.62611292
0.019372776
-0.62764508
0.020638337
-0.62934983
0.022059049
-0.63125581
0.023608162
-0.6333904
0.025244558
-0.63577667
0.026909066
-0.6384291
0.028521017
-0.64134722
0.029975058
-0.64450733
0.031141911
-0.6478564
0.031881842
-0.65131478
0.032072216
-0.65478944
0.03163699
-0.6581914
0.030557003
-0.66144766
0.028855513
-0.66450327
0.026570761
-0.66731532
0.023731866
-0.669844
0.020345895
-0.67204237
0.016392784
-0.67384471
0.011825902
-0.67515571
0.0065837236
-0.67584501
0.00061618871
-0.67574993
-0.0060801221
-0.67468659
-0.013424342
-0.6724764
-0.021188653
-0.66901953
-0.028908188
-0.66439541
-0.035872078
-0.65890135
-0.041327993
-0.65296508
-0.044797603
-0.6470059
-0.046213127
-0.64134896
-0.045816996
-0.6361973
-0.044009457
-0.63164652
-0.041214132
-0.62771468
-0.037802988
-0.62437249
-0.034066176
-0.62156695
-0.030210679
-0.61923727
-0.02637228
-0.61732432
-0.022631502
-0.61577544
-0.019028634
-0.61454649
-0.015576016
-0.61360213
-0.012267439
-0.61291542
-0.0090849816
-0.61246703
-0.0060033027
-0.0029888691
-0.62038604
0.016481885
-0.62132432
0.016677965
-0.62229439
0.017063599
-0.62331673
0.017658322
-0.62441259
0.018460661
-0.62560541
0.019471413
-0.62692144
0.020688812
-0.62839013
0.022107027
-0.63004407
0.023712987
-0.6319182
0.025482295
-0.63404782
0.02737417
-0.63646512
0.029326374
-0.63919432
0.031250215
-0.64224358
0.033024318
-0.64559281
0.034491142
-0.64918251
0.035471537
-0.6529154
0.03580511
-0.65667593
0.035397521
-0.66035694
0.034238006
-0.66387771
0.032376292
-0.66718587
0.029878918
-0.67024719
0.026793187
-0.67303258
0.023131286
-0.67550494
0.018865141
-0.67760335
0.013924312
-0.6792262
0.0082065707
-0.68022109
0.0016110851
-0.68038554
-0.0059156739
-0.67947502
-0.014334865
-0.67722466
-0.023439008
-0.67344677
-0.032686084
-0.66819823
-0.041120616
-0.66186977
-0.047656456
-0.65504994
-0.051617427
-0.64829244
-0.052970626
-0.64199814
-0.052111302
-0.63638873
-0.049618864
-0.63154311
-0.046059753
-0.62744668
-0.041899416
-0.62403481
-0.037478051
-0.6212232
-0.033022288
-0.61892623
-0.02866925
-0.61706639
-0.024491345
-0.61557811
-0.020516908
-0.61440852
-0.016745608
-0.61351658
-0.013159378
-0.61287169
-0.0097298721
-0.61245221
-0.006422784
-0.003196278
-0.62175214
0.017310456
-0.62259886
0.01752469
-0.62347874
0.017943477
-0.62441085
0.018590435
-0.62541662
0.019466424
-0.62652049
0.020575288
-0.62775075
0.021919073
-0.6291402
0.023496474
-0.63072654
0.025299327
-0.63255199
0.027307747
-0.63466138
0.029483559
-0.63709843
0.031763428
-0.63990035
0.034052134
-0.64308831
0.036212273
-0.64664977
0.038052604
-0.65051856
0.039340327
-0.65457323
0.039859784
-0.65866571
0.039489998
-0.66266307
0.038235363
-0.66647521
0.036188433
-0.67005583
0.033459541
-0.67338482
0.030122178
-0.67644925
0.026195717
-0.67922774
0.021643628
-0.68167038
0.016366952
-0.68367332
0.010209514
-0.68506138
0.0029991387
-0.68558584
-0.0053912156
-0.68492803
-0.014992672
-0.68270433
-0.025662712
-0.67858384
-0.036806564
-0.6725634
-0.047141063
-0.66516529
-0.055054565
-0.65722742
-0.0595553
-0.64949295
-0.060705091
-0.6424558
-0.059148458
-0.63634571
-0.055728948
-0.63120532
-0.051200149
-0.62696872
-0.046136012
-0.62352215
-0.04092462
-0.62074135
-0.035803093
-0.61851115
-0.030899449
-0.6167336
-0.026268895
-0.61532968
-0.021920827
-0.61423799
-0.017837292
-0.61341233
-0.013985039
-0.61281902
-0.01032318
-0.61243466
-0.0068071489
-0.003385987
-0.62317883
0.01805134
-0.6239309
0.018276765
-0.62471328
0.018725861
-0.62554647
0.01942362
-0.62645221
0.020372168
-0.6274558
0.021578871
-0.62858733
0.023050606
-0.62988294
0.024792088
-0.63138576
0.02680214
-0.63314616
0.029068155
-0.63522033
0.031557722
-0.63766624
0.034209338
-0.64053806
0.036923959
-0.64387589
0.039550096
-0.64768124
0.041857958
-0.6518821
0.043541186
-0.65632289
0.044300576
-0.66080689
0.043973994
-0.66516307
0.042591545
-0.66928939
0.04031475
-0.67315164
0.037321798
-0.67675243
0.033722968
-0.68010291
0.029546195
-0.68320624
0.024746958
-0.6860343
0.019195016
-0.6884896
0.012664807
-0.69037548
0.0048850173
-0.69139085
-0.0043758405
-0.69112934
-0.015254179
-0.68904885
-0.027743201
-0.68458859
-0.041266826
-0.67760731
-0.054122347
-0.66881024
-0.063851637
-0.65943868
-0.068926858
-0.65050391
-0.069639854
-0.64260948
-0.067042889
-0.63596815
-0.06237028
-0.6305539
-0.056614404
-0.62622281
-0.050467096
-0.62279446
-0.044352973
-0.62009493
-0.038502625
-0.61797517
-0.033019209
-0.61631554
-0.027928521
-0.61502388
-0.023212487
-0.61403123
-0.018829943
-0.61328727
-0.014729003
-0.61275623
-0.010854222
-0.6124137
-0.0071496813
-0.0035547322
-0.62470092
0.01867569
-0.62534383
0.018919683
-0.62601825
0.01940028
-0.62674174
0.020147101
-0.62753507
0.021165506
-0.62842357
0.022467364
-0.62943854
0.02406558
-0.630619
0.025972545
-0.63201333
0.028196468
-0.63368066
0.030735485
-0.63569026
0.033567328
-0.63811756
0.036636632
-0.64103845
0.039844855
-0.64452014
0.043031787
-0.64858964
0.045927454
-0.65317383
0.048125374
-0.65806997
0.049196714
-0.66300866
0.04891269
-0.66776325
0.047346133
-0.67221811
0.044769612
-0.67636302
0.041466709
-0.68023697
0.037596916
-0.68388433
0.033193551
-0.68734128
0.028203914
-0.6906139
0.022467633
-0.69362184
0.01567275
-0.69614851
0.0074116877
-0.69783407
-0.0026902853
-0.69817398
-0.014914264
-0.69643074
-0.029486441
-0.6916862
-0.046011371
-0.68350393
-0.062304613
-0.67282992
-0.07452565
-0.66159134
-0.080165439
-0.65117689
-0.080054303
-0.64230891
-0.075910869
-0.63513086
-0.069548328
-0.62949607
-0.062249194
-0.62514551
-0.054817654
-0.62181094
-0.04768755
-0.61925901
-0.041054546
-0.61730376
-0.034974463
-0.61580413
-0.029428148
-0.61465645
-0.024360172
-0.61378611
-0.019700286
-0.61314041
-0.015374699
-0.6126829
-0.011311732
-0.6123892
-0.0074433832
-0.0036991303
-0.62622797
0.019197264
-0.62675951
0.019451217
-0.62731813
0.0199589
-0.62792193
0.020750904
-0.62859078
0.021834355
-0.62934955
0.023226135
-0.63023029
0.024946323
-0.63127452
0.027016774
-0.63253582
0.029457772
-0.63408273
0.032282392
-0.63599984
0.035484431
-0.63838406
0.039020859
-0.64133891
0.042799699
-0.64496929
0.046662168
-0.64934627
0.050304437
-0.65440752
0.053186623
-0.65988394
0.05467313
-0.66539251
0.054421265
-0.67062021
0.052573831
-0.6754325
0.049581899
-0.67986
0.045894214
-0.68399613
0.041733044
-0.68792663
0.037124056
-0.69172845
0.032005731
-0.69546257
0.026201754
-0.69909142
0.019301595
-0.70239284
0.010713113
-0.70495171
-0.0001314225
-0.70616048
-0.013705486
-0.70506331
-0.030583613
-0.70019909
-0.050875598
-0.69052351
-0.071980186
-0.67724953
-0.087799631
-0.66353736
-0.093877608
-0.65129627
-0.092295398
-0.64135294
-0.085854201
-0.63367899
-0.077222276
-0.62792594
-0.068002246
-0.62367039
-0.059073201
-0.62053284
-0.050825105
-0.61821259
-0.043374794
-0.61648646
-0.036700594
-0.61519478
-0.030719824
-0.61422581
-0.025329141
-0.61350244
-0.020423653
-0.61297212
-0.015905023
-0.61259954
-0.011684315
-0.61236165
-0.0076812743
-0.0038158278
-0.62785287
0.019581875
-0.62825862
0.019856963
-0.62869263
0.020392911
-0.62916798
0.021226253
-0.62970184
0.022368218
-0.63031748
0.023841773
-0.63104648
0.02567532
-0.63193155
0.027901846
-0.6330301
0.030556318
-0.63441901
0.033671302
-0.63619882
0.037264249
-0.63849132
0.041313356
-0.64143275
0.045741132
-0.64517675
0.050406169
-0.64986649
0.054994177
-0.65547789
0.058798022
-0.66165087
0.0608461
-0.66782276
0.060593155
-0.67354936
0.058300441
-0.67867494
0.054707474
-0.68330881
0.050528084
-0.6876366
0.046060831
-0.69180155
0.041289016
-0.69593035
0.036134526
-0.70017027
0.030441676
-0.70456295
0.023694278
-0.70889286
0.015043015
-0.71265133
0.0036270507
-0.71512682
-0.011229994
-0.71517303
-0.030537404
-0.71056853
-0.055480102
-0.69908843
-0.08346028
-0.68207634
-0.10481172
-0.66503216
-0.11092179
-0.65054435
-0.10678321
-0.63947198
-0.096926571
-0.63142343
-0.085270827
-0.62572619
-0.073699488
-0.62173152
-0.063067874
-0.61892656
-0.053630059
-0.61694053
-0.045360822
-0.61551778
-0.038123349
-0.61448646
-0.031751141
-0.61373261
-0.026082997
-0.61318116
-0.020975101
-0.612783
-0.016303179
-0.61250629
-0.011961031
-0.6123308
-0.0078567604
-0.0039016791
-0.62930499
0.019841621
-0.62958166
0.020133627
-0.62988148
0.020692739
-0.63021545
0.021560223
-0.63059741
0.022750171
-0.63104777
0.024292132
-0.63159619
0.026223746
-0.63228509
0.028590746
-0.63317427
0.031445493
-0.63434805
0.034845085
-0.63592431
0.038840503
-0.63805581
0.043444859
-0.64092052
0.048605846
-0.64473414
0.054219787
-0.64975528
0.060015318
-0.65606059
0.065103333
-0.66317183
0.067957334
-0.67023007
0.067651393
-0.67658637
0.064656744
-0.68205388
0.060174982
-0.68688137
0.055355574
-0.69139838
0.050577846
-0.69580817
0.045698807
-0.70026052
0.04058687
-0.70501128
0.035192437
-0.71022474
0.028907744
-0.71572429
0.020542561
-0.72091247
0.0088152359
-0.72500079
-0.007141681
-0.72683097
-0.028707215
-0.7232615
-0.059049573
-0.70982403
-0.09689775
-0.68725622
-0.12737953
-0.66567146
-0.13250655
-0.64845382
-0.12400085
-0.63631018
-0.10907021
-0.62814252
-0.093438494
-0.62277708
-0.079064923
-0.61927305
-0.066571902
-0.61697144
-0.055931674
-0.6154393
-0.046892961
-0.61440122
-0.039161433
-0.61368459
-0.032467769
-0.61318184
-0.026585743
-0.61282601
-0.021330933
-0.61257545
-0.016553741
-0.61240437
-0.012132106
-0.61229707
-0.007964061
-0.0039539516
-0.63045808
0.019938233
-0.63058537
0.020260912
-0.63073396
0.020841336
-0.63090826
0.021734523
-0.63111732
0.022959228
-0.63137773
0.024552542
-0.63171599
0.026562006
-0.63217252
0.029047279
-0.63280722
0.032080184
-0.63370847
0.035746338
-0.63500833
0.040140361
-0.63689236
0.045328889
-0.63958541
0.051298899
-0.64336693
0.058001303
-0.64865495
0.065303337
-0.6557459
0.072194288
-0.66402289
0.076234321
-0.67211383
0.075742333
-0.67906224
0.071605157
-0.68463581
0.065748547
-0.6893434
0.060063166
-0.69375086
0.054985307
-0.69813417
0.050082117
-0.70261569
0.045068392
-0.70763835
0.0402151
-0.71362433
0.034893718
-0.72053697
0.027455202
-0.72776876
0.016047023
-0.73431637
-0.00059406653
-0.7392392
-0.023784386
-0.7383657
-0.059923074
-0.72352581
-0.11173764
-0.69250755
-0.15839779
-0.6647145
-0.1602996
-0.64431382
-0.14440154
-0.6314006
-0.12198343
-0.62358982
-0.10124927
-0.61897168
-0.083683067
-0.61626229
-0.069281287
-0.61466848
-0.057525487
-0.6137221
-0.04783934
-0.61315207
-0.03973147
-0.61280245
-0.032817386
-0.6125836
-0.026804591
-0.61244392
-0.021470608
-0.61235376
-0.016643906
-0.61229615
-0.012189714
-0.61226154
-0.0079986712
-0.0039705421
-0.63004583
0.019835415
-0.62999329
0.020208368
-0.62995846
0.02080651
-0.62993705
0.021713113
-0.62993114
0.022953322
-0.62995072
0.024572121
-0.63001513
0.026626415
-0.63015738
0.029189526
-0.63043052
0.032353323
-0.63091816
0.036233983
-0.63175672
0.040978919
-0.63316323
0.046735399
-0.63542353
0.053559192
-0.63888597
0.061463746
-0.64417499
0.070592362
-0.6520592
0.080078493
-0.66185396
0.086029079
-0.67124509
0.085133462
-0.67883998
0.079200048
-0.6842947
0.071203264
-0.68860442
0.064372889
-0.69272511
0.059106003
-0.6970557
0.054412702
-0.7015413
0.049553997
-0.70687655
0.04555035
-0.71389712
0.041914284
-0.72263729
0.036195378
-0.73266248
0.026072209
-0.74194723
0.008690687
-0.75057076
-0.015160861
-0.75425672
-0.056237115
-0.74051064
-0.12548372
-0.69644705
-0.20246138
-0.66057387
-0.19617277
-0.63704711
-0.1679283
-0.62416194
-0.1348686
-0.61752286
-0.10788835
-0.61424327
-0.086962653
-0.61270772
-0.070816836
-0.61205009
-0.058183116
-0.61182317
-0.048066263
-0.61179866
-0.039755977
-0.61186093
-0.032755115
-0.61195206
-0.026713462
-0.61204374
-0.021378929
-0.61212282
-0.016564831
-0.61218374
-0.012128786
-0.6122246
-0.0079578182
-0.0039501891
-0.62615166
0.019503082
-0.62586242
0.019919128
-0.62556878
0.020512865
-0.62526423
0.021408567
-0.62494356
0.02263265
-0.62460811
0.02423667
-0.62426682
0.026285125
-0.62394112
0.028863822
-0.62367266
0.032084861
-0.62353496
0.036096286
-0.62366058
0.041104538
-0.62429462
0.047369442
-0.62580643
0.055070998
-0.62861357
0.064270892
-0.63350392
0.075482703
-0.64209394
0.088668516
-0.65394192
0.097877063
-0.66475814
0.095949676
-0.67265321
0.087095121
-0.6770077
0.07555776
-0.67986379
0.067228979
-0.68280273
0.062044939
-0.6864501
0.058060077
-0.69009374
0.05319763
-0.69456659
0.050023207
-0.70166279
0.049010481
-0.71120702
0.045739608
-0.72415053
0.039015716
-0.73561487
0.020155032
-0.74990507
-0.00087066818
-0.76248946
-0.043652718
-0.7592024
-0.12877078
-0.69461809
-0.26704569
-0.6507516
-0.24003926
-0.62531446
-0.19336544
-0.61396938
-0.14621369
-0.60976765
-0.11209007
-0.60861301
-0.088117294
-0.60868648
-0.070743366
-0.60919376
-0.057675833
-0.60980409
-0.047455934
-0.61038536
-0.039174708
-0.61089019
-0.032250288
-0.61130674
-0.026296912
-0.61163737
-0.021048296
-0.61188927
-0.016312935
-0.61207031
-0.011947743
-0.61218727
-0.0078408632
-0.0038926543
-0.61273265
0.018684603
-0.61200229
0.019188772
-0.61125559
0.019766158
-0.61046572
0.020618702
-0.60961505
0.021781979
-0.60869158
0.023313196
-0.60768708
0.025280626
-0.60660102
0.027777764
-0.60544802
0.030931862
-0.60426768
0.034915939
-0.60314705
0.039983915
-0.60229452
0.046516911
-0.60212401
0.054900487
-0.60310972
0.065256603
-0.60599047
0.078363445
-0.61369463
0.09637268
-0.62745353
0.11163596
-0.63857999
0.10707613
-0.64534974
0.093864875
-0.64631485
0.076522865
-0.6457112
0.066625331
-0.64567481
0.062008546
-0.64734432
0.05972959
-0.64840077
0.054254077
-0.64954652
0.051168961
-0.65622822
0.055692181
-0.66613271
0.055644094
-0.6838987
0.056781712
-0.69893641
0.035192739
-0.72790282
0.028095741
-0.7503095
-0.021246034
-0.77327181
-0.10580848
-0.67718518
-0.36313231
-0.63078142
-0.28644302
-0.60623034
-0.21791653
-0.59992497
-0.15251906
-0.60026888
-0.11174616
-0.60225091
-0.086135257
-0.6043748
-0.068619478
-0.60623291
-0.055817726
-0.60775623
-0.045932617
-0.60897213
-0.0379588
-0.60992861
-0.031293813
-0.61067159
-0.025553934
-0.61123919
-0.02048069
-0.61166119
-0.01589094
-0.61195987
-0.011649057
-0.61215115
-0.0076495893
-0.0037988512
-0.58474826
0.017445101
-0.58348176
0.017922275
-0.58211587
0.018400269
-0.58064642
0.01914925
-0.57904724
0.020182803
-0.57728755
0.021553498
-0.57533082
0.023323905
-0.57313742
0.025584355
-0.57066997
0.028464417
-0.56790165
0.032147616
-0.56483168
0.036913945
-0.56156772
0.04325295
-0.55855293
0.0518857
-0.55655784
0.063261511
-0.55619284
0.077998446
-0.56157455
0.10175439
-0.58045948
0.1305209
-0.59256915
0.1191858
-0.59879959
0.10009531
-0.59414416
0.071867434
-0.58782933
0.060310506
-0.58251832
0.056697536
-0.58174146
0.058952729
-0.5796896
0.05220222
-0.57405239
0.045531752
-0.5853228
0.032545418
-0.59574381
0.037484418
-0.60477992
0.040346243
-0.60349611
0.020487741
-0.63529706
0.039889435
-0.71438057
0.019780531
-0.66921225
-0.054713615
-0.60687296
-0.22713855
-0.57380193
-0.31951404
-0.57150875
-0.22020971
-0.58113747
-0.14289033
-0.58945289
-0.10343074
-0.59561907
-0.079969076
-0.60008691
-0.064151639
-0.60336118
-0.052543453
-0.60579647
-0.043497323
-0.60762953
-0.036125741
-0.60901872
-0.029904626
-0.61007187
-0.024500785
-0.61086362
-0.019688934
-0.61144612
-0.015308442
-0.61185567
-0.011239503
-0.61211695
-0.0073883174
-0.0036708916
-0.52684806
0.015045548
-0.5243628
0.015437015
-0.52172257
0.015760043
-0.51888493
0.016311612
-0.51579564
0.017093512
-0.51238704
0.018144899
-0.50857371
0.019510573
-0.50425086
0.021261507
-0.49929474
0.023508297
-0.49356803
0.026420898
-0.48692848
0.030274399
-0.47927271
0.035597183
-0.47079687
0.043409856
-0.46246894
0.054933581
-0.45465269
0.070182194
-0.4479762
0.095077895
-0.47106686
0.15361155
-0.47035698
0.11847593
-0.46118114
0.090919469
-0.42790735
0.038593643
-0.39603134
0.028434497
-0.36869406
0.029360256
-0.3040681
0.021051367
-0.16345323
0.013425284
-0.041447107
0.0078162475
0
0
0
0
0
0
0
0
0
0