/*--------------------------------*- C++ -*----------------------------------*\
| =========                 |                                                 |
| \\      /  F ield         | foam-extend: Open Source CFD                    |
|  \\    /   O peration     | Version:     4.1                                |
|   \\  /    A nd           | Web:         http://www.foam-extend.org         |
|    \\/     M anipulation  |                                                 |
\*---------------------------------------------------------------------------*/
FoamFile
{
    version     2.0;
    format      ascii;
    class       volScalarField;
    location    "0.55";
    object      rAU;
}
// * * * * * * * * * * * * * * * * * * * * * * * * * * * * * * * * * * * * * //

dimensions      [0 0 1 0 0 0 0];

internalField   nonuniform List<scalar> 
4393
(
0.00022764579
0.00022727243
0.00022690682
0.00022653333
0.00022614987
0.00022575499
0.00022534633
0.00022492268
0.0002244832
0.00022402768
0.00022355672
0.00022307181
0.00022257546
0.00022207121
0.00022156341
0.00022105821
0.00022056142
0.00022008002
0.00021962165
0.0002191939
0.00021880452
0.0002184612
0.00021817146
0.0002179425
0.00021778097
0.00021769283
0.00021768271
0.00021768271
0.00021775394
0.00021790762
0.00021814193
0.00021845186
0.00021882922
0.00021926297
0.00021973984
0.00022024529
0.00022076449
0.00022128324
0.00022178872
0.00022226991
0.00022271783
0.00022312555
0.00022348798
0.00022380168
0.00022406454
0.00022427557
0.00022443485
0.00022454289
0.00022458505
0.00022451373
0.00022419367
0.00022388852
0.00022357428
0.00022324821
0.00022290864
0.00022255336
0.0002221815
0.00022179263
0.00022138713
0.00022096626
0.00022053229
0.0002200886
0.00021963964
0.00021919075
0.00021874893
0.00021832079
0.00021791393
0.00021753644
0.00021719618
0.000216901
0.00021665862
0.00021647646
0.00021636153
0.00021632017
0.00021635779
0.00021644488
0.00021641775
0.00021646058
0.00021658714
0.00021679895
0.00021709447
0.00021746854
0.00021791241
0.00021841408
0.00021895929
0.00021953253
0.00022011831
0.00022070202
0.00022127075
0.0002218136
0.00022232185
0.00022278891
0.00022321002
0.00022358194
0.00022390252
0.00022417088
0.00022438853
0.00022454267
0.00022400899
0.00022370072
0.00022340095
0.00022308959
0.00022276392
0.00022242245
0.00022206314
0.00022168543
0.0002212893
0.00022087566
0.00022044639
0.00022000455
0.00021955438
0.00021910133
0.00021865172
0.00021821357
0.00021779436
0.00021740244
0.00021704643
0.00021673452
0.00021647477
0.00021627493
0.00021614243
0.00021608419
0.00021610638
0.00021621408
0.00021630244
0.00021618288
0.00021614417
0.00021619334
0.00021633531
0.00021657175
0.00021690012
0.00021731325
0.00021779959
0.00021834425
0.00021893026
0.00021954013
0.00022015709
0.00022076604
0.00022135415
0.00022191104
0.0002224288
0.00022290167
0.00022332566
0.00022369814
0.00022401802
0.00022428539
0.00022448057
0.00022365417
0.00022335126
0.00022305139
0.00022273688
0.00022240526
0.00022205525
0.00022168497
0.0002212941
0.00022088296
0.00022045289
0.00022000637
0.00021954721
0.00021908054
0.00021861285
0.00021815161
0.00021770597
0.00021728451
0.00021689648
0.00021655121
0.00021625737
0.00021602333
0.00021585705
0.00021576608
0.00021575748
0.00021583752
0.00021601127
0.00021609519
0.00021588951
0.00021576642
0.00021573647
0.00021580836
0.00021598732
0.00021627349
0.00021666112
0.00021713867
0.00021769
0.00021829609
0.00021893691
0.00021959312
0.00022024724
0.0002208844
0.00022149265
0.00022206284
0.0002225884
0.00022306481
0.00022348925
0.00022386051
0.00022417759
0.00022442237
0.00022329281
0.00022299404
0.00022269447
0.00022237712
0.00022203971
0.00022168105
0.00022129942
0.00022089467
0.00022046738
0.00022001926
0.00021955335
0.00021907415
0.00021858771
0.00021810161
0.00021762456
0.00021716701
0.00021673877
0.00021635014
0.00021601125
0.00021573129
0.00021551897
0.00021538245
0.00021532953
0.00021536752
0.00021550305
0.0002157415
0.00021583181
0.00021553558
0.00021532414
0.00021521207
0.00021521247
0.00021533466
0.00021558176
0.00021594933
0.00021642532
0.00021699165
0.00021762641
0.00021830638
0.00021900916
0.00021971458
0.00022040569
0.00022106893
0.00022169413
0.00022227404
0.00022280387
0.00022328077
0.00022370342
0.00022407067
0.00022436666
0.00022291567
0.00022262157
0.00022232335
0.00022200413
0.0002216617
0.00022129495
0.0002209022
0.00022048341
0.00022003932
0.00021957197
0.00021908485
0.00021858313
0.00021807378
0.00021756554
0.00021706847
0.00021659452
0.00021615492
0.00021576119
0.00021542432
0.00021515408
0.00021495948
0.00021484891
0.00021483043
0.0002149118
0.00021510025
0.00021540196
0.00021551379
0.00021512119
0.00021481577
0.00021461678
0.00021454258
0.00021460744
0.00021481798
0.00021517098
0.0002156533
0.00021624396
0.00021691715
0.00021764561
0.0002184032
0.00021916679
0.00021991716
0.0002206393
0.00022132215
0.00022195807
0.00022254226
0.00022307208
0.00022354642
0.00022396455
0.00022431242
0.00022252324
0.00022223449
0.00022193865
0.00022161855
0.00022127195
0.00022089771
0.00022049413
0.00022006114
0.00021959961
0.00021911174
0.00021860141
0.00021807442
0.00021753863
0.00021700404
0.00021648225
0.00021598693
0.00021553099
0.00021512736
0.00021478801
0.00021452326
0.00021434237
0.0002142539
0.00021426618
0.00021438752
0.00021462613
0.00021498943
0.00021514316
0.0002146469
0.00021424001
0.00021394724
0.0002137934
0.00021379898
0.00021397493
0.00021431929
0.00021481701
0.00021544295
0.00021616608
0.00021695394
0.00021777595
0.00021860556
0.00021942123
0.00022020657
0.00022094986
0.0002216434
0.00022228264
0.00022286543
0.00022339119
0.00022386006
0.00022425937
0.00022211751
0.00022183547
0.00022154319
0.00022122323
0.00022087332
0.00022049218
0.000220078
0.00021963061
0.00021915083
0.00021864096
0.00021810513
0.00021754968
0.0002169834
0.00021641758
0.00021586562
0.00021534322
0.00021486533
0.00021444655
0.00021409992
0.00021383627
0.00021366496
0.00021359457
0.00021363363
0.00021379116
0.00021407662
0.00021449934
0.00021472148
0.00021411261
0.00021359459
0.00021319862
0.00021295763
0.0002129002
0.0002130429
0.00021338512
0.00021390885
0.00021458301
0.0002153696
0.00021622955
0.00021712692
0.00021803134
0.00021891888
0.00021977197
0.00022057859
0.00022133129
0.00022202614
0.0002226618
0.00022323856
0.00022375758
0.00022420749
0.00022170019
0.0002214257
0.00022113808
0.00022081934
0.00022046703
0.00022007968
0.00021965525
0.00021919334
0.00021869458
0.00021816119
0.00021759744
0.00021701009
0.0002164088
0.0002158063
0.00021521802
0.00021466214
0.00021415611
0.00021371655
0.00021335771
0.00021309078
0.00021292497
0.0002128686
0.00021293026
0.00021311971
0.00021344802
0.00021392712
0.00021425165
0.0002135194
0.00021287799
0.0002123663
0.00021202754
0.0002119011
0.00021201123
0.00021235887
0.00021292143
0.00021365952
0.00021452576
0.00021547268
0.00021645793
0.00021744689
0.00021841332
0.00021933878
0.00022021136
0.00022102437
0.00022177494
0.00022246287
0.00022308965
0.0002236577
0.00022415692
0.00022127328
0.00022100823
0.00022072667
0.00022041034
0.00022005666
0.00021966388
0.00021922962
0.00021875311
0.00021823463
0.00021767612
0.00021708179
0.00021645868
0.00021581725
0.00021517173
0.00021453994
0.00021394309
0.00021340183
0.00021293529
0.00021255905
0.00021228443
0.00021212005
0.00021207356
0.00021215333
0.00021236975
0.00021273591
0.0002132671
0.00021373706
0.00021286866
0.00021208862
0.00021144478
0.00021099349
0.00021078901
0.00021086641
0.00021122853
0.00021184587
0.00021266724
0.00021363268
0.00021468407
0.00021577144
0.00021685562
0.00021790828
0.00021891062
0.00021985149
0.0002207255
0.00022153134
0.00022227041
0.00022294573
0.00022356114
0.00022410793
0.00022083942
0.00022058441
0.00022031002
0.00021999729
0.00021964334
0.00021924603
0.00021880253
0.00021831154
0.00021777274
0.0002171876
0.00021656
0.00021589706
0.00021520986
0.00021451423
0.00021383071
0.00021318437
0.00021259999
0.00021209989
0.00021170112
0.00021141476
0.00021124818
0.00021120765
0.00021130082
0.0002115386
0.00021193631
0.00021251355
0.00021318301
0.00021216357
0.00021122612
0.00021042878
0.00020984469
0.00020954888
0.00020959229
0.00020998024
0.00021067269
0.00021160162
0.00021269008
0.0002138665
0.00021507209
0.00021626297
0.00021740925
0.00021849258
0.00021950338
0.00022043831
0.00022129823
0.00022208659
0.00022280825
0.00022346875
0.00022406091
0.00022039957
0.00022015716
0.00021989171
0.00021958409
0.00021923127
0.00021883066
0.00021837885
0.00021787381
0.00021731443
0.00021670135
0.00021603782
0.00021533071
0.0002145915
0.00021383754
0.00021309256
0.0002123865
0.00021174963
0.00021120852
0.0002107819
0.00021047997
0.00021030782
0.00021026941
0.00021037092
0.0002106234
0.0002110446
0.00021165942
0.00021248437
0.00021140869
0.00021029131
0.00020931301
0.00020856832
0.00020816181
0.00020816839
0.00020859698
0.0002093911
0.0002104585
0.0002116992
0.00021302486
0.00021436665
0.0002156763
0.00021692332
0.00021809098
0.00021917237
0.00022016712
0.00022107895
0.00022191387
0.00022267894
0.00022338158
0.0002240163
0.00021995895
0.00021972922
0.00021947377
0.00021917262
0.00021882229
0.00021841965
0.00021796057
0.0002174421
0.00021686202
0.00021621979
0.00021551765
0.00021476174
0.0002139636
0.00021314189
0.00021232394
0.00021154601
0.00021084587
0.0002102559
0.00020979676
0.00020947677
0.00020929715
0.00020925808
0.00020936327
0.00020962323
0.00021005807
0.00021069902
0.00021158605
0.00021061207
0.00020928764
0.00020809318
0.00020714975
0.0002066041
0.00020656865
0.00020705793
0.00020798923
0.00020923497
0.00021066397
0.00021216717
0.00021366494
0.00021510557
0.0002164596
0.00021771363
0.00021886486
0.00021991698
0.00022087734
0.00022175505
0.00022255969
0.00022330078
0.00022397466
0.00021951626
0.00021930256
0.00021905932
0.00021876657
0.0002184207
0.00021801801
0.00021755353
0.00021702316
0.00021642326
0.00021575169
0.00021500906
0.00021420026
0.00021333623
0.00021243645
0.00021153216
0.00021066772
0.00020989137
0.0002092437
0.00020874766
0.00020840804
0.00020821985
0.00020817755
0.00020828111
0.00020853957
0.0002089751
0.00020962622
0.00021054585
0.00020978544
0.00020822209
0.00020676691
0.00020557228
0.0002048453
0.00020475876
0.00020533701
0.00020645399
0.00020793021
0.00020959206
0.00021130563
0.00021298055
0.00021456375
0.00021602946
0.00021736994
0.00021858831
0.00021969362
0.00022069769
0.00022161321
0.00022245262
0.00022322764
0.00022393659
0.00021908224
0.00021888405
0.00021865404
0.00021837128
0.00021803168
0.00021763084
0.00021716279
0.00021662206
0.00021600321
0.00021530196
0.00021451661
0.00021365004
0.0002127117
0.00021172102
0.00021071306
0.00020974268
0.00020887322
0.00020815735
0.00020762093
0.00020726279
0.00020706803
0.00020702272
0.00020712142
0.00020737029
0.00020779237
0.00020843392
0.00020936362
0.00020894537
0.00020710688
0.00020533559
0.00020381771
0.00020284585
0.00020269244
0.0002034012
0.00020477148
0.0002065471
0.00020849675
0.00021045808
0.00021233178
0.00021406739
0.00021564673
0.00021707091
0.00021835119
0.00021950338
0.00022054463
0.00022149165
0.00022235994
0.00022316354
0.00022390273
0.00021864842
0.00021846972
0.00021825539
0.00021798486
0.000217654
0.00021725782
0.00021678923
0.0002162412
0.00021560618
0.0002148771
0.00021404916
0.00021312217
0.00021210292
0.0002110092
0.00020987896
0.00020878031
0.00020779861
0.00020700466
0.000206428
0.00020605716
0.00020586149
0.00020581469
0.00020590431
0.00020613214
0.00020652027
0.00020712309
0.00020802874
0.00020811752
0.00020596245
0.00020380748
0.00020186798
0.00020055393
0.0002003052
0.00020120812
0.00020292784
0.00020509479
0.00020739955
0.00020964995
0.00021174287
0.00021363712
0.00021532786
0.00021682908
0.00021816279
0.00021935303
0.00022042298
0.00022139374
0.00022228392
0.00022310988
0.00022387377
0.00021823764
0.00021807727
0.00021787972
0.0002176235
0.00021730406
0.00021691566
0.00021645
0.00021589824
0.00021525024
0.00021449548
0.00021362487
0.00021263376
0.00021152469
0.00021031128
0.00020903186
0.00020777061
0.0002066458
0.00020575682
0.00020513838
0.00020476245
0.00020457378
0.000204529
0.000204608
0.00020480701
0.00020514346
0.00020567792
0.00020652084
0.00020733046
0.0002048184
0.00020220304
0.00019970999
0.0001979024
0.00019750423
0.00019870308
0.00020091132
0.00020359314
0.00020633411
0.00020891687
0.00021124524
0.00021329809
0.00021509182
0.00021665828
0.00021803295
0.00021924946
0.00022033756
0.00022132279
0.00022222679
0.00022306802
0.00022385037
0.0002178293
0.00021769149
0.00021751309
0.00021727346
0.00021696823
0.00021659101
0.00021613232
0.00021558137
0.00021492524
0.00021414935
0.00021323917
0.00021218399
0.00021098032
0.00020963429
0.00020817922
0.00020671695
0.00020541563
0.00020442083
0.00020377413
0.00020342005
0.00020326329
0.00020323552
0.00020330872
0.00020347232
0.00020373159
0.00020414881
0.00020486141
0.00020603638
0.00020373459
0.00020056989
0.00019734843
0.00019480997
0.00019415317
0.00019581659
0.00019871687
0.00020207994
0.00020535192
0.00020830781
0.00021087879
0.0002130801
0.00021495973
0.00021657303
0.00021797153
0.00021919934
0.00022029286
0.00022128183
0.00022219054
0.00022303922
0.00022383315
0.00021748107
0.0002173641
0.00021720623
0.00021698612
0.00021669924
0.0002163386
0.00021589351
0.00021535122
0.00021469574
0.00021390774
0.00021296561
0.00021184997
0.00021054855
0.00020905539
0.00020738832
0.00020566334
0.00020412488
0.00020299643
0.00020232847
0.00020202164
0.00020191559
0.00020190721
0.00020196602
0.00020208045
0.00020223432
0.00020248556
0.00020300388
0.00020403605
0.00020277813
0.00019900022
0.00019484609
0.00019120683
0.00019005597
0.00019246494
0.00019635494
0.00020062279
0.00020453059
0.00020788907
0.00021069288
0.00021301715
0.00021495399
0.00021658773
0.00021798772
0.00021920855
0.0002202927
0.00022127337
0.00022217685
0.00022302455
0.00022382268
0.00021721401
0.00021712231
0.00021698891
0.00021679284
0.0002165299
0.00021619255
0.00021576895
0.00021524433
0.00021459949
0.00021381
0.00021284589
0.00021167632
0.00021027765
0.00020862855
0.00020671587
0.00020465459
0.00020280616
0.00020153288
0.0002008922
0.00020071574
0.00020073342
0.00020079283
0.00020087253
0.00020097408
0.00020103396
0.00020108218
0.00020131738
0.00020204905
0.00020232376
0.00019782109
0.00019244864
0.00018712049
0.00018495423
0.00018856763
0.0001938779
0.00019934198
0.00020398669
0.00020774866
0.00021074647
0.00021314603
0.00021509665
0.00021671533
0.00021808906
0.00021928156
0.00022033982
0.00022129918
0.00022218688
0.00022302477
0.00022381935
0.00021727363
0.00021721003
0.00021710709
0.00021694281
0.00021671337
0.00021641095
0.00021602309
0.00021553367
0.000214921
0.00021415614
0.00021320033
0.00021200771
0.00021053793
0.00020875055
0.00020657794
0.00020408585
0.00020180614
0.00020036624
0.0001998121
0.00019987592
0.00020009562
0.00020024872
0.00020034028
0.00020042477
0.00020034708
0.00020007445
0.00019986606
0.00020008731
0.00020117705
0.0001973979
0.00019065659
0.00018291152
0.00017860866
0.00018415808
0.00019146264
0.00019844816
0.00020389149
0.00020799919
0.00021110593
0.0002135031
0.00021540666
0.00021696537
0.00021828028
0.00021942071
0.00022043542
0.00022135995
0.00022222113
0.00022304025
0.00022382343
0.00021803134
0.00021800273
0.00021794485
0.0002178305
0.00021765589
0.00021741315
0.00021708972
0.00021666873
0.00021612636
0.00021542919
0.00021452867
0.00021335845
0.00021185105
0.00020994494
0.00020750126
0.00020443351
0.00020150015
0.00019990119
0.0001995877
0.00020016943
0.00020080799
0.00020118392
0.00020135305
0.00020154989
0.00020147335
0.00020091287
0.00020029675
0.00019984495
0.00020079514
0.00019975768
0.00019129156
0.00018001548
0.00017094144
0.00017965095
0.0001894732
0.00019826669
0.00020448433
0.00020877691
0.00021183867
0.00021411839
0.00021589595
0.00021734171
0.00021856195
0.00021962545
0.0002205788
0.00022145515
0.00022227931
0.00022307094
0.00022383497
0.00022067925
0.00022072751
0.00022075734
0.00022073673
0.0002206638
0.00022053155
0.00022032868
0.00022003925
0.00021963948
0.00021909452
0.00021835054
0.00021732306
0.00021590932
0.00021402624
0.00021147408
0.00020780138
0.00020390792
0.00020238898
0.00020273074
0.00020448371
0.00020598813
0.00020687793
0.00020727478
0.00020793044
0.00020828158
0.00020730235
0.00020616768
0.00020430645
0.00020494717
0.00020347733
0.00019649364
0.00018117598
0.00016221395
0.00017630077
0.0001886911
0.00019949162
0.00020614464
0.00021024255
0.00021300071
0.00021500618
0.00021656414
0.00021783986
0.00021892924
0.00021989181
0.00022076703
0.00022158283
0.00022236026
0.00022311626
0.00022385377
0.00022643926
0.00022658205
0.00022674414
0.00022687114
0.00022696079
0.00022700818
0.00022700609
0.00022694364
0.00022680241
0.00022655267
0.00022614332
0.00022547659
0.00022438994
0.0002227183
0.0002202178
0.00021577093
0.00020959248
0.00020827413
0.00020949181
0.0002134264
0.00021642068
0.00021829725
0.00021888124
0.00022033275
0.00022203975
9.2984823e-05
9.5432985e-05
9.7687374e-05
9.9876078e-05
0.00010287609
9.44603e-05
8.6201604e-05
0.00010657302
0.00017932561
0.00019342725
0.00020412197
0.00020945011
0.00021253088
0.00021460225
0.00021614913
0.00021739213
0.00021844456
0.00021937108
0.00022021207
0.00022099492
0.00022173964
0.00022246194
0.00022317513
0.00022387944
0.00023926236
0.00023970786
0.00024020602
0.00024068923
0.00024116657
0.00024164211
0.00024212055
0.00024260552
0.00024309571
0.00024358019
0.00024402601
0.0002443404
0.00024430306
0.00024357751
0.0002419456
0.00023801014
0.00022681056
0.00022931897
0.00023542171
0.00024989808
0.00026123647
0.00026997183
0.00012825183
0.00016662764
0.0003220356
0.00046132713
0.00049956686
0.00049956686
0.00049956686
0.00049956686
0.00049956686
0.00045031283
0.00033649618
6.8074662e-05
0.00021296833
0.00021345631
0.00021437488
0.00021549096
0.00021653339
0.00021747837
0.00021833739
0.00021912909
0.00021987032
0.00022057511
0.00022125523
0.00022192093
0.00022258154
0.00022324598
0.0002239113
0.0002643028
0.0002653044
0.00026645044
0.00026763903
0.0002688906
0.00027022962
0.00027169
0.00027331448
0.00027515584
0.00027728106
0.00027977572
0.0002827359
0.00028626088
0.00029039636
0.00029495885
0.00030201247
0.00027333867
0.00030463139
0.00035603923
0.00037192799
0.00027799477
0.00032303666
0.00049956686
0.00049956686
0.00049956686
0.00049956686
0.00049956686
0.00049956686
0.00049956686
0.00049956686
0.00041263801
0.00041827603
0.0001020401
0.00026658669
0.00023113587
0.0002220932
0.00021927183
0.00021853172
0.00021855144
0.00021887921
0.00021933912
0.00021985836
0.00022040552
0.00022096733
0.00022153922
0.00022212114
0.0002227156
0.00022332688
0.00022394852
0.00030202189
0.00030415377
0.00030627447
0.00030846782
0.00031080828
0.00031336852
0.00031623439
0.00031951913
0.00032338218
0.00032806726
0.00033397092
0.00034167045
0.00035172863
0.00036474963
0.0003849432
0.00040198493
0.00025642668
0.00025386296
0.0002635559
0.00049011104
0.00047816711
0.00048838499
0.00047869912
0.00047372227
0.00047746551
0.00045865885
0.00045172035
0.00045351725
0.000440938
0.00043652352
0.00010692103
0.00010767314
0.00021978535
0.00025236069
0.00023694549
0.00022740761
0.00022311285
0.00022121626
0.0002204468
0.00022024231
0.00022033599
0.0002205959
0.00022095399
0.0002213742
0.00022183744
0.00022233411
0.00022286026
0.00022341559
0.00022399009
0.00028862223
0.00028914408
0.00028934049
0.00028953326
0.00028972431
0.00028994554
0.000290223
0.00029059368
0.00029111062
0.00029185152
0.00029293833
0.00029399883
0.00029496427
0.00029573038
0.00029311341
0.00010299256
0.00037630795
0.00047095769
0.00047261017
0.00049383255
0.00048613612
0.00048244961
0.00012421285
0.00012128154
0.0001007715
0.00010005549
0.00010063058
0.00010197446
0.00010292885
0.00010452318
0.00020121214
0.0002076822
0.00021808916
0.00023902336
0.00023962827
0.00023075909
0.00022595531
0.00022341456
0.00022210599
0.0002214906
0.00022127825
0.00022130959
0.0002214947
0.00022178175
0.00022214055
0.00022255366
0.00022301152
0.00022350974
0.0002240349
0.00022327603
0.00022310836
0.00022281991
0.00022254083
0.00022227892
0.00022205133
0.00022187401
0.00022177025
0.00022177229
0.00022192488
0.00022229274
0.00022209576
0.00022116801
0.00021942823
0.00021675014
0.00021317599
9.5891031e-05
9.9116262e-05
9.9869368e-05
9.9774615e-05
0.00010015021
0.00010017699
0.00021254029
0.00021081367
0.00020892946
0.00020554343
0.00020443511
0.00020387905
0.00020210864
0.00020212751
0.0002033089
0.0002090163
0.00021824124
0.00023218147
0.00023802345
0.00023248025
0.00022785543
0.00022508736
0.00022347404
0.00022257722
0.0002221309
0.00022197445
0.00022201011
0.00022217773
0.00022244001
0.00022277391
0.0002231655
0.00022360694
0.00022408182
0.00021925703
0.00021933651
0.00021946239
0.00021959724
0.00021975227
0.00021993954
0.00022017161
0.00022046447
0.00022083735
0.00022131303
0.00022185263
0.00022156599
0.00022081341
0.00021958163
0.00021781165
0.00021500403
0.00021253199
0.00021404894
0.00021589456
0.00021421111
0.00021237917
0.00021121386
0.00021005801
0.00020833609
0.00020730243
0.00020568528
0.0002047794
0.00020420536
0.00020348006
0.00020394946
0.00020593428
0.0002108916
0.00021855248
0.00022811291
0.0002338367
0.00023318084
0.00022901905
0.00022628425
0.00022454656
0.00022348317
0.00022287401
0.00022257368
0.0002224871
0.00022255224
0.00022272855
0.00022298964
0.00022331859
0.00022370494
0.00022412974
0.00021787867
0.00021795794
0.00021808284
0.00021822112
0.00021837563
0.00021855389
0.00021876439
0.00021901819
0.00021932775
0.00021970676
0.00021997468
0.00021948489
0.00021872998
0.00021765963
0.00021623612
0.00021440571
0.00021327973
0.00021412899
0.00021527318
0.00021348987
0.00021189805
0.00021067983
0.00020952402
0.0002083094
0.00020735499
0.0002062964
0.00020564641
0.00020528624
0.0002052124
0.00020608874
0.00020833304
0.00021262298
0.00021876267
0.00022561877
0.00023030442
0.00023231427
0.00022962615
0.00022707993
0.00022534606
0.00022420882
0.00022350008
0.000223098
0.00022291704
0.00022289805
0.00022300042
0.00022319649
0.00022346766
0.00022380168
0.00022417761
0.00021720078
0.00021732127
0.00021746051
0.00021761105
0.00021777881
0.00021797018
0.0002181913
0.00021844966
0.00021875225
0.00021910444
0.00021921032
0.00021876917
0.00021812025
0.00021723343
0.00021608806
0.00021483303
0.00021420917
0.00021471213
0.00021502998
0.00021340524
0.00021200939
0.00021085858
0.00020980192
0.00020882097
0.00020800141
0.00020726631
0.00020684817
0.00020673383
0.00020703046
0.00020812408
0.00021033699
0.00021399487
0.00021887383
0.0002240131
0.00022786692
0.00023022252
0.00022984569
0.00022755836
0.00022590956
0.00022476719
0.00022401084
0.00022354441
0.00022329535
0.00022321047
0.00022325146
0.00022339104
0.0002236101
0.00022389538
0.00022422451
0.00021691146
0.00021698421
0.0002170998
0.00021723452
0.00021738645
0.0002175591
0.00021775626
0.0002179828
0.00021824257
0.00021853707
0.00021851943
0.00021813182
0.00021760161
0.00021691709
0.00021609064
0.00021529954
0.00021498803
0.00021537624
0.0002149865
0.00021358781
0.00021236412
0.00021131883
0.0002103863
0.00020956659
0.00020889282
0.00020837518
0.00020813487
0.00020820831
0.00020871255
0.00020988867
0.00021195458
0.00021505287
0.00021895378
0.00022294666
0.00022614263
0.00022830727
0.00022930163
0.00022779318
0.00022627753
0.00022517777
0.00022441401
0.00022391455
0.00022362078
0.0002234871
0.000223479
0.00022357083
0.00022374388
0.00022398458
0.00022426965
0.00021676923
0.00021688179
0.0002170069
0.00021714214
0.0002172915
0.00021745803
0.00021764342
0.00021784951
0.00021807635
0.00021832079
0.00021824545
0.0002178985
0.00021744834
0.00021689955
0.0002162921
0.00021578465
0.0002156437
0.00021596211
0.00021503947
0.00021385228
0.0002127907
0.00021186594
0.00021105774
0.00021037372
0.00020983686
0.00020947974
0.00020937769
0.0002095833
0.00021019799
0.00021137778
0.00021325857
0.00021588485
0.00021904505
0.00022223635
0.00022491124
0.0002268598
0.00022809318
0.00022785021
0.00022648956
0.00022546268
0.00022472083
0.00022421322
0.00022389458
0.00022372738
0.00022368168
0.00022373428
0.00022386755
0.00022406816
0.00022431238
0.00021669609
0.0002167659
0.00021687194
0.00021699481
0.00021713204
0.00021728472
0.00021745302
0.00021763716
0.00021783522
0.00021804176
0.00021796495
0.00021768132
0.00021732717
0.00021691555
0.00021649472
0.00021618934
0.00021616384
0.00021617073
0.00021513197
0.0002141328
0.00021322311
0.0002124227
0.00021173415
0.00021117086
0.00021075561
0.00021052399
0.00021053044
0.0002108276
0.00021149555
0.00021263595
0.0002143268
0.00021656179
0.00021915963
0.00022176714
0.00022402641
0.00022576318
0.00022695189
0.00022750653
0.00022657986
0.00022564369
0.00022494396
0.00022444713
0.00022411981
0.00022393219
0.00022385924
0.00022388059
0.00022398017
0.00022414533
0.00022435224
0.00021664316
0.00021673433
0.00021684079
0.00021695653
0.00021708313
0.00021722154
0.00021737089
0.00021752998
0.00021769547
0.00021786062
0.00021779374
0.00021755724
0.00021727641
0.0002169701
0.00021668596
0.00021651738
0.00021656942
0.00021609922
0.0002152458
0.00021441093
0.00021364141
0.00021296223
0.00021238726
0.00021193385
0.0002116255
0.00021149545
0.00021158662
0.00021194532
0.00021263168
0.00021371084
0.0002152223
0.0002171355
0.00021930148
0.00022146978
0.00022339485
0.0002249364
0.00022605455
0.00022677934
0.00022657858
0.00022574106
0.00022509627
0.00022462393
0.00022430059
0.00022410347
0.00022401225
0.00022400961
0.00022408128
0.00022421556
0.00022438889
0.00021661126
0.00021667765
0.00021677229
0.00021687931
0.00021699652
0.00021712361
0.00021725871
0.00021739963
0.00021754203
0.00021767847
0.00021764509
0.00021745833
0.00021724582
0.00021702862
0.00021684941
0.00021677768
0.00021670735
0.00021607923
0.00021537844
0.0002146863
0.00021404425
0.00021347911
0.00021300996
0.00021265633
0.00021244152
0.00021239508
0.00021255195
0.00021295024
0.00021363351
0.00021464195
0.0002159907
0.00021763966
0.00021946896
0.0002212979
0.00022295152
0.00022431812
0.00022535445
0.00022607015
0.00022638051
0.00022577236
0.0002251899
0.00022475147
0.00022444167
0.00022424382
0.00022414194
0.00022412171
0.00022417079
0.00022427861
0.00022442212
0.00021658772
0.00021665986
0.00021674999
0.00021684824
0.00021695426
0.00021706768
0.00021718619
0.00021730713
0.00021742584
0.00021753497
0.00021753489
0.00021738965
0.00021723312
0.0002170862
0.00021698512
0.00021694803
0.00021663429
0.00021610122
0.00021552822
0.00021496027
0.00021443317
0.00021397328
0.00021360147
0.00021333788
0.00021320468
0.00021322762
0.0002134352
0.00021385745
0.0002145249
0.00021546073
0.00021666535
0.0002180969
0.00021965972
0.00022122081
0.00022265173
0.00022386374
0.00022481531
0.00022550467
0.00022595614
0.00022575284
0.00022523594
0.00022483736
0.00022454799
0.00022435624
0.00022424998
0.00022421768
0.00022424895
0.00022433447
0.00022445185
0.00021657707
0.00021663696
0.00021671933
0.00021681019
0.00021690759
0.00021701058
0.00021711639
0.00021722206
0.00021732282
0.00021741172
0.00021744601
0.00021733792
0.0002172285
0.00021713734
0.00021709454
0.00021695853
0.00021659165
0.00021615788
0.00021569342
0.00021523388
0.00021480983
0.0002144459
0.00021416278
0.00021398007
0.00021391812
0.000213999
0.00021424573
0.00021468123
0.000215326
0.00021619176
0.00021727053
0.00021852251
0.00021987134
0.00022121719
0.00022246353
0.00022353968
0.00022440802
0.00022506083
0.00022551186
0.000225665
0.00022524413
0.00022488871
0.00022462448
0.00022444393
0.0002243383
0.00022429858
0.00022431625
0.0002243833
0.00022447811
0.00021657364
0.00021663211
0.00021670891
0.00021679202
0.0002168801
0.00021697214
0.00021706529
0.00021715655
0.00021724137
0.00021731345
0.00021736042
0.00021729876
0.00021722753
0.00021717957
0.00021711018
0.00021689103
0.00021659141
0.00021624222
0.00021587117
0.00021550676
0.00021517492
0.00021489791
0.00021469518
0.00021458496
0.00021458541
0.00021471511
0.00021499236
0.00021543404
0.00021605319
0.00021685388
0.00021782374
0.00021892662
0.00022010133
0.00022127153
0.0002223633
0.00022332014
0.00022410905
0.00022471962
0.00022515885
0.00022544489
0.00022522283
0.00022491195
0.00022467578
0.00022451012
0.00022440899
0.00022436566
0.00022437336
0.00022442539
0.00022450098
0.0002165787
0.00021663073
0.00021670175
0.00021677839
0.00021685881
0.00021694185
0.0002170246
0.00021710419
0.00021717644
0.00021723583
0.00021727528
0.00021726327
0.0002172228
0.00021717329
0.00021705333
0.00021686453
0.00021662422
0.0002163483
0.00021605859
0.00021577813
0.00021552885
0.0002153304
0.0002152004
0.00021515525
0.0002152107
0.0002153821
0.00021568363
0.00021612727
0.00021672047
0.00021746232
0.00021833848
0.00021931692
0.00022034826
0.00022137319
0.00022233422
0.00022318602
0.00022390024
0.00022446571
0.0002248853
0.00022517158
0.00022517937
0.00022491289
0.00022470632
0.00022455798
0.00022446422
0.0002244203
0.00022442107
0.00022446111
0.0002245206
0.00021658966
0.00021663846
0.00021670454
0.00021677495
0.00021684804
0.00021692268
0.00021699607
0.00021706557
0.00021712749
0.00021717712
0.00021720871
0.0002172156
0.00021719064
0.00021712702
0.00021701981
0.0002168695
0.00021668205
0.00021647048
0.00021625234
0.00021604646
0.0002158713
0.00021574393
0.00021567984
0.00021569334
0.00021579775
0.00021600541
0.00021632694
0.00021677033
0.00021733891
0.00021802858
0.00021882443
0.00021969841
0.00022061039
0.00022151364
0.00022236293
0.00022312177
0.00022376622
0.00022428547
0.00022468003
0.00022495865
0.00022509831
0.00022489648
0.00022472001
0.00022459046
0.0002245061
0.0002244639
0.0002244602
0.0002244909
0.00022453715
0.000216606
0.00021665086
0.00021671249
0.00021677757
0.00021684437
0.00021691184
0.00021697733
0.00021703852
0.00021709227
0.00021713471
0.00021716132
0.00021716708
0.0002171469
0.00021709637
0.00021701289
0.00021689837
0.00021675845
0.00021660402
0.00021644948
0.00021631032
0.00021620207
0.00021613925
0.00021613519
0.00021620201
0.00021635059
0.00021659055
0.00021692941
0.0002173719
0.0002179183
0.00021856248
0.00021928973
0.00022007563
0.00022088726
0.00022168741
0.00022244018
0.00022311619
0.00022369551
0.00022416837
0.0002245341
0.00022479897