/*--------------------------------*- C++ -*----------------------------------*\
| =========                 |                                                 |
| \\      /  F ield         | foam-extend: Open Source CFD                    |
|  \\    /   O peration     | Version:     4.1                                |
|   \\  /    A nd           | Web:         http://www.foam-extend.org         |
|    \\/     M anipulation  |                                                 |
\*---------------------------------------------------------------------------*/
FoamFile
{
    version     2.0;
    format      ascii;
    class       volVectorField;
    location    "0.55";
    object      U;
}
// * * * * * * * * * * * * * * * * * * * * * * * * * * * * * * * * * * * * * //

dimensions      [0 1 -1 0 0 0 0];

internalField   nonuniform List<vector> 
4393
(
(146.04658 -0.15632692 0)
(146.59449 -0.16276957 0)
(147.00833 -0.16579264 0)
(147.44909 -0.16945294 0)
(147.89971 -0.17387128 0)
(148.36511 -0.17913327 0)
(148.84748 -0.18516092 0)
(149.349 -0.19180812 0)
(149.87127 -0.19886937 0)
(150.41519 -0.20608178 0)
(150.98082 -0.21312525 0)
(151.56714 -0.21962567 0)
(152.17196 -0.22516365 0)
(152.79178 -0.22929038 0)
(153.4217 -0.23155062 0)
(154.05548 -0.23151056 0)
(154.68564 -0.22878537 0)
(155.30363 -0.22306066 0)
(155.90008 -0.21410362 0)
(156.46504 -0.2017633 0)
(156.98822 -0.18596385 0)
(157.4592 -0.16669682 0)
(157.86763 -0.14401899 0)
(158.20341 -0.11806075 0)
(158.45695 -0.089048651 0)
(158.61956 -0.057338904 0)
(158.6839 -0.023439231 0)
(158.64476 0.01198206 0)
(158.4988 0.047850004 0)
(158.24688 0.082748606 0)
(157.89396 0.11523001 0)
(157.44939 0.1438823 0)
(156.92654 0.16747634 0)
(156.34204 0.18511884 0)
(155.71459 0.19635098 0)
(155.06354 0.2011681 0)
(154.40763 0.19996575 0)
(153.76395 0.19343701 0)
(153.14721 0.18245135 0)
(152.56941 0.16794104 0)
(152.03985 0.15081093 0)
(151.56528 0.13187711 0)
(151.15027 0.11183378 0)
(150.79756 0.091254745 0)
(150.50854 0.070644292 0)
(150.28365 0.050460933 0)
(150.12232 0.030859385 0)
(150.02096 0.011738561 0)
(149.9739 -0.0031619712 0)
(149.46969 -0.39439331 0)
(149.9384 -0.40536771 0)
(150.28418 -0.41349313 0)
(150.65371 -0.42406323 0)
(151.03291 -0.43719373 0)
(151.42678 -0.45292087 0)
(151.83769 -0.47097494 0)
(152.26788 -0.49091097 0)
(152.71904 -0.51211707 0)
(153.19218 -0.53381264 0)
(153.6874 -0.55504625 0)
(154.2038 -0.57470355 0)
(154.73922 -0.59153188 0)
(155.29021 -0.6041866 0)
(155.85187 -0.61129962 0)
(156.41792 -0.61156341 0)
(156.9808 -0.60381518 0)
(157.53188 -0.58710298 0)
(158.06167 -0.56072023 0)
(158.56011 -0.52420723 0)
(159.01681 -0.47733103 0)
(159.42126 -0.42006299 0)
(159.763 -0.35257415 0)
(160.03179 -0.27526426 0)
(160.21791 -0.1888358 0)
(160.31242 -0.094409604 0)
(160.30778 0.0063626214 0)
(160.19837 0.11123497 0)
(159.98205 0.21712689 0)
(159.65953 0.32022336 0)
(159.23556 0.41632586 0)
(158.71931 0.50123624 0)
(158.12419 0.57126186 0)
(157.46699 0.62369396 0)
(156.76663 0.65711279 0)
(156.04272 0.67145075 0)
(155.3142 0.66783257 0)
(154.59826 0.64826847 0)
(153.90961 0.61529277 0)
(153.26021 0.57162473 0)
(152.65924 0.5198982 0)
(152.11333 0.46247608 0)
(151.62695 0.40134687 0)
(151.2028 0.33811404 0)
(150.84228 0.2740965 0)
(150.54571 0.21035295 0)
(150.31228 0.14717102 0)
(150.1409 0.084391337 0)
(150.03532 0.028604729 0)
(149.73491 -0.62852629 0)
(150.18846 -0.63774127 0)
(150.52329 -0.64993363 0)
(150.88099 -0.66697105 0)
(151.24839 -0.68870281 0)
(151.6306 -0.71490744 0)
(152.03009 -0.74507611 0)
(152.44924 -0.77845088 0)
(152.88988 -0.81401037 0)
(153.35313 -0.85045381 0)
(153.83929 -0.88619197 0)
(154.34759 -0.91935697 0)
(154.87603 -0.94784148 0)
(155.42127 -0.96937584 0)
(155.97847 -0.98164523 0)
(156.54134 -0.98243575 0)
(157.10228 -0.96978239 0)
(157.65253 -0.94208475 0)
(158.18252 -0.89816538 0)
(158.68208 -0.83726718 0)
(159.14073 -0.75901131 0)
(159.54787 -0.66335043 0)
(159.89292 -0.55055417 0)
(160.16549 -0.42125575 0)
(160.35556 -0.27657902 0)
(160.45381 -0.1183494 0)
(160.45215 0.050655848 0)
(160.34435 0.22654656 0)
(160.12677 0.4042593 0)
(159.79947 0.5775483 0)
(159.36692 0.73930942 0)
(158.83853 0.88234143 0)
(158.22836 1.0002831 0)
(157.55421 1.0884788 0)
(156.83622 1.1445211 0)
(156.09515 1.1683534 0)
(155.35088 1.1619716 0)
(154.62121 1.1288734 0)
(153.9212 1.0734204 0)
(153.26284 1.0002508 0)
(152.65515 0.91381771 0)
(152.10448 0.81808002 0)
(151.61492 0.71633579 0)
(151.18887 0.61119632 0)
(150.82745 0.50467994 0)
(150.53051 0.39821519 0)
(150.2968 0.2923142 0)
(150.12706 0.18728283 0)
(150.02929 0.087454094 0)
(149.82734 -0.85721404 0)
(150.27295 -0.86704558 0)
(150.60319 -0.88335265 0)
(150.95606 -0.90695774 0)
(151.3189 -0.9374734 0)
(151.69687 -0.97445009 0)
(152.09266 -1.0171461 0)
(152.50885 -1.0645058 0)
(152.94747 -1.1151171 0)
(153.4099 -1.1671754 0)
(153.89664 -1.2184615 0)
(154.40716 -1.2663494 0)
(154.93964 -1.3078551 0)
(155.49082 -1.3397438 0)
(156.05585 -1.3586994 0)
(156.62832 -1.3615421 0)
(157.20037 -1.3454522 0)
(157.76295 -1.3081467 0)
(158.30611 -1.2479626 0)
(158.81938 -1.1638444 0)
(159.29198 -1.055266 0)
(159.71304 -0.92214485 0)
(160.07173 -0.76480481 0)
(160.35728 -0.58403278 0)
(160.5592 -0.38125687 0)
(160.66748 -0.15885494 0)
(160.67319 0.079455848 0)
(160.56911 0.32830282 0)
(160.35056 0.58046156 0)
(160.01677 0.82690555 0)
(159.57185 1.0572843 0)
(159.02547 1.2610111 0)
(158.39275 1.428697 0)
(157.69313 1.5535012 0)
(156.94864 1.6319673 0)
(156.18185 1.6641558 0)
(155.4141 1.6531573 0)
(154.66418 1.6042279 0)
(153.9476 1.5238201 0)
(153.2764 1.4187103 0)
(152.65931 1.2953343 0)
(152.10222 1.1593584 0)
(151.60868 1.0154671 0)
(151.18058 0.86733697 0)
(150.81852 0.7177279 0)
(150.52182 0.56852267 0)
(150.28891 0.42074631 0)
(150.12125 0.27545623 0)
(150.02716 0.13508212 0)
(149.93619 -1.080413 0)
(150.37373 -1.0918056 0)
(150.69863 -1.112348 0)
(151.04613 -1.1426382 0)
(151.40394 -1.182118 0)
(151.77738 -1.2301492 0)
(152.16934 -1.2857703 0)
(152.58265 -1.3476383 0)
(153.01963 -1.4139578 0)
(153.48196 -1.4824211 0)
(153.97047 -1.5501688 0)
(154.48493 -1.6137883 0)
(155.02376 -1.6693693 0)
(155.58382 -1.7126398 0)
(156.16025 -1.7391935 0)
(156.74645 -1.7447946 0)
(157.33419 -1.7257 0)
(157.91397 -1.6789116 0)
(158.47536 -1.6022902 0)
(159.00743 -1.4945201 0)
(159.49905 -1.3549731 0)
(159.93902 -1.183561 0)
(160.31616 -0.98065663 0)
(160.61932 -0.74715224 0)
(160.83741 -0.48469229 0)
(160.95954 -0.19609549 0)
(160.97564 0.11409183 0)
(160.87712 0.43911787 0)
(160.65778 0.76967207 0)
(160.31558 1.0937685 0)
(159.85398 1.3973821 0)
(159.28302 1.6659631 0)
(158.61925 1.8865359 0)
(157.8845 2.0497054 0)
(157.10351 2.1508763 0)
(156.30147 2.1903965 0)
(155.50175 2.1727863 0)
(154.72444 2.1054522 0)
(153.98564 1.9972938 0)
(153.29737 1.8574951 0)
(152.66791 1.6946378 0)
(152.10247 1.516158 0)
(151.60383 1.3281029 0)
(151.1731 1.1351195 0)
(150.81022 0.94056841 0)
(150.51389 0.74664456 0)
(150.28229 0.55464019 0)
(150.1171 0.36575728 0)
(150.02587 0.18126517 0)
(150.07362 -1.3010796 0)
(150.50117 -1.3145237 0)
(150.81925 -1.3394869 0)
(151.15993 -1.3766832 0)
(151.51138 -1.42545 0)
(151.87905 -1.4850177 0)
(152.26612 -1.5542436 0)
(152.67569 -1.6315312 0)
(153.11047 -1.7147302 0)
(153.57252 -1.8010471 0)
(154.06312 -1.8869815 0)
(154.5824 -1.9683076 0)
(155.12914 -2.0401283 0)
(155.70039 -2.0970359 0)
(156.29129 -2.1334052 0)
(156.89497 -2.1438071 0)
(157.50273 -2.1234605 0)
(158.10444 -2.0685892 0)
(158.68904 -1.9765725 0)
(159.24501 -1.8458685 0)
(159.76076 -1.6757881 0)
(160.22473 -1.4662478 0)
(160.6254 -1.2176241 0)
(160.95117 -0.93079746 0)
(161.19024 -0.60744415 0)
(161.33066 -0.25059652 0)
(161.36084 0.13458386 0)
(161.2704 0.54005351 0)
(161.05103 0.95432679 0)
(160.69882 1.3621731 0)
(160.21617 1.7452897 0)
(159.61347 2.0843281 0)
(158.90928 2.3619068 0)
(158.12866 2.5655497 0)
(157.30019 2.6894262 0)
(156.45258 2.7344654 0)
(155.61193 2.7071521 0)
(154.79998 2.617647 0)
(154.03349 2.4778437 0)
(153.32429 2.2997543 0)
(152.68 2.0943832 0)
(152.10482 1.8710851 0)
(151.60046 1.6373176 0)
(151.16701 1.398672 0)
(150.80345 1.1590457 0)
(150.50772 0.92086786 0)
(150.27758 0.68547408 0)
(150.11448 0.45371094 0)
(150.02514 0.22576198 0)
(150.24027 -1.512697 0)
(150.65627 -1.5284881 0)
(150.96601 -1.5581405 0)
(151.29829 -1.6025776 0)
(151.64185 -1.6610635 0)
(152.00233 -1.7327404 0)
(152.3832 -1.8163244 0)
(152.78793 -1.9100036 0)
(153.21967 -2.0113061 0)
(153.68099 -2.1169755 0)
(154.17368 -2.2228721 0)
(154.69845 -2.3239276 0)
(155.25448 -2.4141866 0)
(155.83913 -2.4869843 0)
(156.44755 -2.535311 0)
(157.07256 -2.5523655 0)
(157.70482 -2.532185 0)
(158.33338 -2.4701513 0)
(158.9463 -2.3631893 0)
(159.53137 -2.2096229 0)
(160.07643 -2.0088065 0)
(160.56958 -1.7607271 0)
(160.99897 -1.4657512 0)
(161.35258 -1.1246331 0)
(161.61784 -0.73886139 0)
(161.78154 -0.31138295 0)
(161.83026 0.15234341 0)
(161.75125 0.64324195 0)
(161.53331 1.1477597 0)
(161.16986 1.6471066 0)
(160.6616 2.1179002 0)
(160.01916 2.5348031 0)
(159.26373 2.8748243 0)
(158.42486 3.1216325 0)
(157.5363 3.268031 0)
(156.63151 3.3159591 0)
(155.74009 3.2746113 0)
(154.88581 3.1577104 0)
(154.08603 2.9808369 0)
(153.35222 2.7593281 0)
(152.69094 2.5069057 0)
(152.10502 2.2349686 0)
(151.59477 1.9523918 0)
(151.15894 1.6656488 0)
(150.79533 1.3790962 0)
(150.50096 1.0953316 0)
(150.27294 0.81564627 0)
(150.11218 0.54049237 0)
(150.02457 0.26927202 0)
(150.43548 -1.7228666 0)
(150.8374 -1.7410204 0)
(151.13717 -1.7753818 0)
(151.4594 -1.8271657 0)
(151.79348 -1.8956128 0)
(152.14524 -1.9798326 0)
(152.51848 -2.078457 0)
(152.91713 -2.1895172 0)
(153.34483 -2.3102744 0)
(153.80478 -2.4370504 0)
(154.29945 -2.5650827 0)
(154.83022 -2.6884364 0)
(155.39689 -2.8000166 0)
(155.99723 -2.8917479 0)
(156.62645 -2.9550123 0)
(157.27699 -2.9813807 0)
(157.93867 -2.9634956 0)
(158.59943 -2.8957951 0)
(159.24622 -2.7747827 0)
(159.8659 -2.5987739 0)
(160.44573 -2.3673102 0)
(160.97347 -2.0805368 0)
(161.43706 -1.7387895 0)
(161.82412 -1.3425378 0)
(162.12138 -0.8927812 0)
(162.31422 -0.39196394 0)
(162.38695 0.15461855 0)
(162.32388 0.73721094 0)
(162.10994 1.3403154 0)
(161.7347 1.9412689 0)
(161.19618 2.5105843 0)
(160.50502 3.0152698 0)
(159.68578 3.4249879 0)
(158.77413 3.7184631 0)
(157.8109 3.8870217 0)
(156.83582 3.9343116 0)
(155.88294 3.8733488 0)
(154.97832 3.7225597 0)
(154.13985 3.5021452 0)
(153.37819 3.2314005 0)
(152.69833 2.9271079 0)
(152.10128 2.6028248 0)
(151.58548 2.2687993 0)
(151.14801 1.9322519 0)
(150.78526 1.5978219 0)
(150.49313 1.2680803 0)
(150.26794 0.9440694 0)
(150.10988 0.62574741 0)
(150.02403 0.31185664 0)
(150.65868 -1.9181373 0)
(151.045 -1.938892 0)
(151.33322 -1.9783679 0)
(151.64366 -2.0380604 0)
(151.96652 -2.1172007 0)
(152.30782 -2.2149131 0)
(152.67176 -2.3298044 0)
(153.06276 -2.4598152 0)
(153.48508 -2.6020053 0)
(153.94266 -2.7523281 0)
(154.4388 -2.9054232 0)
(154.97575 -3.0544673 0)
(155.55413 -3.1911327 0)
(156.1723 -3.3057424 0)
(156.82565 -3.3877737 0)
(157.50613 -3.4268169 0)
(158.2025 -3.4138222 0)
(158.90119 -3.3421554 0)
(159.58767 -3.2079773 0)
(160.24768 -3.0098206 0)
(160.86783 -2.7476683 0)
(161.43565 -2.4219984 0)
(161.93905 -2.0331409 0)
(162.36553 -1.5811145 0)
(162.7012 -1.0660572 0)
(162.92996 -0.4893605 0)
(163.03348 0.14448921 0)
(162.99244 0.82566088 0)
(162.78658 1.5371206 0)
(162.40006 2.2520902 0)
(161.82665 2.9336981 0)
(161.0764 3.5389503 0)
(160.1783 4.0275973 0)
(159.17641 4.3718328 0)
(158.1212 4.561422 0)
(157.06073 4.6028026 0)
(156.03454 4.5144136 0)
(155.07128 4.3209381 0)
(154.18898 4.0483922 0)
(153.39685 3.7207835 0)
(152.69766 3.3583214 0)
(152.08992 2.9768081 0)
(151.56973 2.587779 0)
(151.13208 2.1990301 0)
(150.77169 1.8152863 0)
(150.48319 1.4388897 0)
(150.2619 1.0704423 0)
(150.10721 0.7092903 0)
(150.02342 0.35347181 0)
(150.90963 -2.1153118 0)
(151.27703 -2.1385419 0)
(151.55184 -2.182979 0)
(151.84861 -2.2504875 0)
(152.15836 -2.3403529 0)
(152.48732 -2.4517818 0)
(152.8401 -2.5834373 0)
(153.22167 -2.7332624 0)
(153.637 -2.898214 0)
(154.09092 -3.0739668 0)
(154.58773 -3.2546234 0)
(155.1308 -3.4324796 0)
(155.72184 -3.5978974 0)
(156.36006 -3.7393889 0)
(157.04116 -3.8441577 0)
(157.75659 -3.8993388 0)
(158.49364 -3.8937738 0)
(159.23674 -3.8195829 0)
(159.9694 -3.6727199 0)
(160.67588 -3.4522834 0)
(161.34213 -3.1590759 0)
(161.95565 -2.7941602 0)
(162.50465 -2.357903 0)
(162.97686 -1.849659 0)
(163.35805 -1.2682112 0)
(163.63068 -0.61315528 0)
(163.7734 0.11273528 0)
(163.76249 0.90046501 0)
(163.57096 1.7321218 0)
(163.1753 2.5767815 0)
(162.56263 3.3886809 0)
(161.74128 4.1115326 0)
(160.74593 4.6913526 0)
(159.63234 5.0914873 0)
(158.46431 5.3001912 0)
(157.30085 5.3284202 0)
(156.1883 5.2023865 0)
(155.15789 4.955152 0)
(154.22712 4.6200621 0)
(153.40282 4.2266965 0)
(152.68457 3.7990263 0)
(152.0676 3.3550842 0)
(151.54502 2.9074866 0)
(151.10938 2.4643216 0)
(150.75343 2.0301077 0)
(150.47032 1.606693 0)
(150.25433 1.1940229 0)
(150.10395 0.79069395 0)
(150.02269 0.39393905 0)
(151.18643 -2.2873113 0)
(151.5339 -2.3131486 0)
(151.79369 -2.3629345 0)
(152.07492 -2.4388654 0)
(152.3696 -2.5402971 0)
(152.68419 -2.6665835 0)
(153.02372 -2.8165357 0)
(153.39375 -2.9882106 0)
(153.80008 -3.1785841 0)
(154.24855 -3.3831697 0)
(154.74471 -3.595619 0)
(155.29331 -3.8073721 0)
(155.89749 -4.0074012 0)
(156.55771 -4.1821531 0)
(157.27025 -4.316056 0)
(158.02599 -4.3930916 0)
(158.81032 -4.399344 0)
(159.60493 -4.3253951 0)
(160.39061 -4.1671799 0)
(161.14983 -3.9248864 0)
(161.86787 -3.6007119 0)
(162.5325 -3.1967044 0)
(163.13275 -2.7133982 0)
(163.65714 -2.1493011 0)
(164.09158 -1.5012846 0)
(164.41729 -0.76621988 0)
(164.60964 0.056032233 0)
(164.63971 0.95868516 0)
(164.47178 1.9241172 0)
(164.07165 2.9176131 0)
(163.41608 3.8829148 0)
(162.50951 4.7458197 0)
(161.39396 5.4327746 0)
(160.14175 5.894795 0)
(158.83532 6.1189766 0)
(157.54822 6.1235588 0)
(156.33492 5.9459783 0)
(155.22891 5.6305527 0)
(154.24599 5.2198362 0)
(153.38918 4.7499134 0)
(152.65358 4.248766 0)
(152.03016 3.7364971 0)
(151.50837 3.2264518 0)
(151.07783 2.726605 0)
(150.72907 2.2408858 0)
(150.45366 1.7703185 0)
(150.24474 1.3139346 0)
(150.09988 0.86939951 0)
(150.02178 0.43299295 0)
(151.49061 -2.4698739 0)
(151.8137 -2.4983935 0)
(152.05629 -2.5534848 0)
(152.31977 -2.6377878 0)
(152.59712 -2.7508067 0)
(152.89495 -2.8921243 0)
(153.21872 -3.0608046 0)
(153.57465 -3.2551498 0)
(153.96941 -3.4723088 0)
(154.41004 -3.7077929 0)
(154.90358 -3.9549388 0)
(155.45651 -4.2044055 0)
(156.07387 -4.4437414 0)
(156.7579 -4.6570828 0)
(157.50593 -4.8254843 0)
(158.30828 -4.9288398 0)
(159.14784 -4.9495725 0)
(160.00245 -4.8763645 0)
(160.84919 -4.7055318 0)
(161.66812 -4.4392682 0)
(162.44392 -4.0821213 0)
(163.16514 -3.6377604 0)
(163.82232 -3.1071051 0)
(164.40558 -2.4875993 0)
(164.90174 -1.7734615 0)
(165.29125 -0.9575262 0)
(165.54617 -0.035034881 0)
(165.6306 0.99134178 0)
(165.49974 2.1059969 0)
(165.10368 3.2718888 0)
(164.40313 4.4207699 0)
(163.39465 5.4540816 0)
(162.12956 6.2696067 0)
(160.70419 6.8006378 0)
(159.22749 7.0341667 0)
(157.79231 7.0001942 0)
(156.46258 6.7524851 0)
(155.27304 6.3504778 0)
(154.23579 5.8481875 0)
(153.348 5.2891103 0)
(152.59863 4.7052757 0)
(151.97317 4.1184453 0)
(151.45665 3.5421186 0)
(151.0353 2.9835859 0)
(150.69726 2.4456929 0)
(150.43238 1.9282464 0)
(150.23269 1.4290714 0)
(150.09481 0.94469845 0)
(150.02066 0.47028971 0)
(151.81672 -2.6098024 0)
(152.11531 -2.6405678 0)
(152.33912 -2.7007879 0)
(152.58294 -2.7934873 0)
(152.84084 -2.9183415 0)
(153.11959 -3.0752569 0)
(153.4251 -3.2636913 0)
(153.76421 -3.4823777 0)
(154.14458 -3.728864 0)
(154.57459 -3.9989103 0)
(155.06305 -4.2857751 0)
(155.61855 -4.5795121 0)
(156.24858 -4.8663079 0)
(156.95793 -5.1277935 0)
(157.74569 -5.3409262 0)
(158.60181 -5.4801685 0)
(159.50581 -5.5228304 0)
(160.43009 -5.4549947 0)
(161.34644 -5.2738036 0)
(162.23178 -4.9846605 0)
(163.07039 -4.5956677 0)
(163.8524 -4.112808 0)
(164.57095 -3.5375527 0)
(165.21897 -2.8660404 0)
(165.78542 -2.0890578 0)
(166.25079 -1.1938872 0)
(166.5839 -0.16906391 0)
(166.74146 0.9890944 0)
(166.6669 2.269727 0)
(166.28952 3.6363877 0)
(165.54504 5.00817 0)
(164.41487 6.2533703 0)
(162.96186 7.2265912 0)
(161.31799 7.8346932 0)
(159.63072 8.0671764 0)
(158.01851 7.9731095 0)
(156.55565 7.6301712 0)
(155.27593 7.1180323 0)
(154.18457 6.5047405 0)
(153.27 5.8419068 0)
(152.51287 5.1652616 0)
(151.89179 4.4974344 0)
(151.38655 3.8512082 0)
(150.97966 3.2324121 0)
(150.65665 2.6421875 0)
(150.40571 2.0786603 0)
(150.21776 1.5381226 0)
(150.08859 1.0157487 0)
(150.01929 0.50541789 0)
(152.16954 -2.7768876 0)
(152.43788 -2.8107996 0)
(152.6404 -2.8768792 0)
(152.862 -2.9786647 0)
(153.09776 -3.1161001 0)
(153.35445 -3.2895175 0)
(153.63834 -3.4989039 0)
(153.95691 -3.7435972 0)
(154.31884 -4.0217632 0)
(154.73402 -4.3296652 0)
(155.21332 -4.660731 0)
(155.7679 -5.00459 0)
(156.40845 -5.3461381 0)
(157.14334 -5.664303 0)
(157.97468 -5.931017 0)
(158.89254 -6.1133315 0)
(159.87206 -6.181147 0)
(160.87785 -6.1168573 0)
(161.87408 -5.9193191 0)
(162.83349 -5.599391 0)
(163.74032 -5.1710485 0)
(164.58747 -4.6440901 0)
(165.37199 -4.0212539 0)
(166.09109 -3.2975628 0)
(166.73743 -2.4597474 0)
(167.29295 -1.4875818 0)
(167.72364 -0.35977903 0)
(167.97837 0.93730433 0)
(167.98717 2.4016571 0)
(167.65215 4.0028581 0)
(166.87067 5.6491364 0)
(165.59561 7.164213 0)
(163.90313 8.3358807 0)
(161.97975 9.0297588 0)
(160.03026 9.2439506 0)
(158.20679 9.0585889 0)
(156.59384 8.5865862 0)
(155.21983 7.9344258 0)
(154.07822 7.1868638 0)
(153.14467 6.4037989 0)
(152.38886 5.6236624 0)
(151.78097 4.8686103 0)
(151.29481 4.1494513 0)
(150.90884 3.4695391 0)
(150.60601 2.82756 0)
(150.37293 2.2194356 0)
(150.19961 1.6395788 0)
(150.08107 1.0815875 0)
(150.01764 0.53790765 0)
(152.53627 -2.8747376 0)
(152.77526 -2.9100579 0)
(152.95499 -2.9803831 0)
(153.1524 -3.0896412 0)
(153.36375 -3.238035 0)
(153.59579 -3.4264074 0)
(153.85509 -3.6554334 0)
(154.14973 -3.9252993 0)
(154.48942 -4.2351343 0)
(154.88571 -4.5821603 0)
(155.35183 -4.9604945 0)
(155.90205 -5.3598469 0)
(156.55101 -5.7642836 0)
(157.31211 -6.1503128 0)
(158.19235 -6.4842126 0)
(159.183 -6.7232197 0)
(160.25334 -6.8265243 0)
(161.35647 -6.7712273 0)
(162.44517 -6.5593202 0)
(163.48631 -6.2103869 0)
(164.4648 -5.7471729 0)
(165.37821 -5.1843379 0)
(166.22947 -4.5254708 0)
(167.02214 -3.7635821 0)
(167.75528 -2.879883 0)
(168.41472 -1.8438022 0)
(168.96486 -0.62029409 0)
(169.34653 0.81820623 0)
(169.47583 2.4829278 0)
(169.22044 4.357404 0)
(168.41952 6.3455531 0)
(166.97312 8.2130936 0)
(164.97008 9.6420258 0)
(162.6829 10.429843 0)
(160.40416 10.597163 0)
(158.32945 10.274914 0)
(156.55069 9.6281795 0)
(155.08287 8.7983291 0)
(153.90024 7.8890981 0)
(152.96039 6.9677647 0)
(152.21883 6.073423 0)
(151.63573 5.2256537 0)
(151.17833 4.4315581 0)
(150.821 3.6907396 0)
(150.54428 2.9985584 0)
(150.3335 2.3481692 0)
(150.17797 1.7317608 0)
(150.07216 1.1411537 0)
(150.01569 0.56724319 0)
(152.93105 -3.0256218 0)
(153.13381 -3.0648856 0)
(153.2882 -3.1417814 0)
(153.45887 -3.2608059 0)
(153.64302 -3.4225953 0)
(153.84712 -3.6287077 0)
(154.07786 -3.880761 0)
(154.34378 -4.1801028 0)
(154.65552 -4.5272149 0)
(155.02633 -4.920759 0)
(155.47207 -5.3560679 0)
(156.01062 -5.8233685 0)
(156.66145 -6.3062241 0)
(157.44481 -6.7789311 0)
(158.37565 -7.2011498 0)
(159.44877 -7.5162275 0)
(160.62607 -7.6662987 0)
(161.84365 -7.619293 0)
(163.0374 -7.3817226 0)
(164.16622 -6.9867158 0)
(165.21753 -6.4705714 0)
(166.1969 -5.8551267 0)
(167.11575 -5.1456819 0)
(167.98609 -4.3346717 0)
(168.8163 -3.3994654 0)
(169.59906 -2.2985321 0)
(170.29839 -0.97938231 0)
(170.84695 0.60486634 0)
(171.14809 2.4858528 0)
(171.02988 4.6757672 0)
(170.24625 7.0928066 0)
(168.60078 9.4331085 0)
(166.18629 11.208121 0)
(163.41529 12.094627 0)
(160.71965 12.167682 0)
(158.34815 11.641452 0)
(156.392 10.758524 0)
(154.83854 9.7041584 0)
(153.63193 8.6018758 0)
(152.70481 7.5234542 0)
(151.99504 6.5050547 0)
(151.45146 5.5605855 0)
(151.0345 4.6911642 0)
(150.71473 3.8911202 0)
(150.47075 3.1515339 0)
(150.28706 2.46223 0)
(150.15268 1.8128627 0)
(150.06179 1.1933193 0)
(150.01342 0.59287919 0)
(153.32531 -3.0710055 0)
(153.49367 -3.1104171 0)
(153.62117 -3.1899945 0)
(153.76293 -3.3145982 0)
(153.91721 -3.4851729 0)
(154.09011 -3.7039368 0)
(154.28837 -3.9734491 0)
(154.52082 -4.2963011 0)
(154.79897 -4.6745543 0)
(155.13782 -5.1087795 0)
(155.55621 -5.5962665 0)
(156.07627 -6.1286286 0)
(156.72323 -6.6899163 0)
(157.52644 -7.2536673 0)
(158.5135 -7.7736783 0)
(159.68729 -8.1756015 0)
(161.00063 -8.3761517 0)
(162.36367 -8.3296448 0)
(163.68582 -8.051881 0)
(164.91411 -7.5994676 0)
(166.0409 -7.031218 0)
(167.08438 -6.3791679 0)
(168.06703 -5.6490936 0)
(169.01099 -4.831298 0)
(169.93797 -3.8974712 0)
(170.85367 -2.7884956 0)
(171.72606 -1.422696 0)
(172.4821 0.27789354 0)
(173.01761 2.3731451 0)
(173.12146 4.9184121 0)
(172.42597 7.8749017 0)
(170.55909 10.866374 0)
(167.58637 13.128081 0)
(164.15469 14.106946 0)
(160.92706 14.006687 0)
(158.20956 13.177055 0)
(156.07391 11.975741 0)
(154.45541 10.639869 0)
(153.25281 9.310063 0)
(152.36555 8.0563973 0)
(151.71053 6.9062954 0)
(151.2245 5.8636853 0)
(150.86154 4.9208748 0)
(150.58926 4.0652125 0)
(150.38515 3.2825372 0)
(150.23354 2.5588425 0)
(150.12375 1.8810163 0)
(150.04997 1.2369329 0)
(150.01085 0.61426243 0)
(153.74891 -3.2043531 0)
(153.87517 -3.2494249 0)
(153.97357 -3.3366282 0)
(154.08434 -3.4714073 0)
(154.20646 -3.6552808 0)
(154.34533 -3.8915212 0)
(154.50739 -4.1841636 0)
(154.70151 -4.5377548 0)
(154.93965 -4.9568714 0)
(155.23825 -5.445242 0)
(155.6191 -6.0037063 0)
(156.10888 -6.6268822 0)
(156.73909 -7.3006492 0)
(157.55012 -7.999612 0)
(158.58891 -8.6732084 0)
(159.875 -9.223257 0)
(161.35119 -9.5237114 0)
(162.88771 -9.5020325 0)
(164.35256 -9.1859739 0)
(165.67603 -8.6662938 0)
(166.86174 -8.03415 0)
(167.95041 -7.3316559 0)
(168.98111 -6.5593138 0)
(169.9885 -5.7031598 0)
(171.01378 -4.7339593 0)
(172.08513 -3.5780195 0)
(173.17907 -2.1239851 0)
(174.21442 -0.26425918 0)
(175.07271 2.0844364 0)
(175.53104 5.0290928 0)
(175.05577 8.6546291 0)
(172.96861 12.558926 0)
(169.22087 15.542671 0)
(164.85911 16.581626 0)
(160.95035 16.177013 0)
(157.83945 14.896301 0)
(155.54098 13.268122 0)
(153.89739 11.583735 0)
(152.74178 9.9911074 0)
(151.93142 8.5471626 0)
(151.35999 7.261862 0)
(150.95274 6.1235339 0)
(150.65893 5.1124174 0)
(150.44474 4.2071443 0)
(150.2878 3.3874699 0)
(150.17326 2.6352055 0)
(150.09138 1.9343765 0)
(150.0368 1.270874 0)
(150.00798 0.63085855 0)
(154.12886 -3.1881112 0)
(154.21442 -3.2314765 0)
(154.2819 -3.3182691 0)
(154.35896 -3.454843 0)
(154.44534 -3.6432686 0)
(154.54547 -3.8877644 0)
(154.6652 -4.1936248 0)
(154.81301 -4.5670454 0)
(155.00093 -5.0147493 0)
(155.24644 -5.5433411 0)
(155.57442 -6.1572917 0)
(156.01697 -6.8545607 0)
(156.6126 -7.6230415 0)
(157.41492 -8.4401592 0)
(158.50011 -9.2559691 0)
(159.92126 -9.9453079 0)
(161.61359 -10.315412 0)
(163.38452 -10.249433 0)
(165.03497 -9.8024112 0)
(166.46993 -9.1260742 0)
(167.71422 -8.3699784 0)
(168.84643 -7.5931329 0)
(169.92652 -6.788054 0)
(170.99665 -5.939626 0)
(172.1185 -5.0326804 0)
(173.35278 -3.9818535 0)
(174.69044 -2.6288557 0)
(176.0401 -0.80310549 0)
(177.28999 1.6412274 0)
(178.25277 4.9125358 0)
(178.22255 9.3262528 0)
(175.98997 14.535579 0)
(171.15892 18.676694 0)
(165.44834 19.688428 0)
(160.67286 18.756594 0)
(157.13499 16.802888 0)
(154.72479 14.607273 0)
(153.12515 12.500004 0)
(152.07915 10.612962 0)
(151.39416 8.9706826 0)
(150.94105 7.5534618 0)
(150.63648 6.3272824 0)
(150.4279 5.2569578 0)
(150.28249 4.310918 0)
(150.17979 3.4623008 0)
(150.10696 2.6886487 0)
(150.05597 1.9712276 0)
(150.02245 1.294119 0)
(150.00486 0.64218359 0)
(154.44169 -3.2954092 0)
(154.47734 -3.349976 0)
(154.50993 -3.4480052 0)
(154.54901 -3.5969271 0)
(154.59491 -3.7992604 0)
(154.65077 -4.0603071 0)
(154.72164 -4.3869341 0)
(154.81525 -4.787647 0)
(154.94316 -5.2725309 0)
(155.1231 -5.853207 0)
(155.38237 -6.5415147 0)
(155.75843 -7.3442445 0)
(156.29609 -8.2570742 0)
(157.06066 -9.2672378 0)
(158.16739 -10.339247 0)
(159.73122 -11.325742 0)
(161.68907 -11.923913 0)
(163.74651 -11.92274 0)
(165.5945 -11.417102 0)
(167.10138 -10.642965 0)
(168.33276 -9.8393148 0)
(169.43398 -9.0779464 0)
(170.49378 -8.3205319 0)
(171.55232 -7.528083 0)
(172.69804 -6.7020867 0)
(174.05518 -5.7331188 0)
(175.65782 -4.3811831 0)
(177.41687 -2.3835874 0)
(179.23515 0.46989848 0)
(181.00999 4.3237738 0)
(181.87653 9.7692529 0)
(179.77758 16.836949 0)
(173.46578 22.961599 0)
(165.75158 23.68763 0)
(159.90787 21.832092 0)
(155.9528 18.87326 0)
(153.54361 15.936429 0)
(152.0996 13.333112 0)
(151.2503 11.132028 0)
(150.75112 9.2960311 0)
(150.45598 7.760255 0)
(150.27936 6.4612506 0)
(150.17192 5.3456243 0)
(150.10527 4.3708092 0)
(150.06306 3.5033491 0)
(150.03585 2.7168242 0)
(150.0182 1.9901069 0)
(150.00719 1.3058144 0)
(150.00155 0.64783861 0)
(154.37764 -3.2191315 0)
(154.35279 -3.2691383 0)
(154.34334 -3.3585647 0)
(154.33617 -3.4987317 0)
(154.33219 -3.6934505 0)
(154.33264 -3.9496399 0)
(154.34092 -4.2761536 0)
(154.36296 -4.6842058 0)
(154.40826 -5.1875507 0)
(154.49255 -5.8028955 0)
(154.64329 -6.5494817 0)
(154.90255 -7.4429898 0)
(155.32097 -8.4842563 0)
(155.972 -9.664188 0)
(157.02141 -10.967758 0)
(158.70103 -12.237026 0)
(160.98616 -12.989672 0)
(163.41679 -12.82416 0)
(165.49951 -11.945572 0)
(167.04651 -10.741941 0)
(168.19507 -9.63141 0)
(169.21063 -8.6939066 0)
(170.22817 -7.8236369 0)
(171.26403 -6.9233077 0)
(172.42892 -6.0726742 0)
(173.94694 -5.2095633 0)
(175.91329 -4.0212667 0)
(178.2206 -2.2049314 0)
(180.69201 0.50872246 0)
(183.38382 4.0124959 0)
(185.60532 9.8505938 0)
(184.22734 19.14284 0)
(176.00214 28.866458 0)
(165.33096 28.725995 0)
(158.34499 25.423588 0)
(154.09845 21.022541 0)
(151.90791 17.153159 0)
(150.78955 14.001209 0)
(150.2514 11.491937 0)
(150.00876 9.487203 0)
(149.91349 7.8600568 0)
(149.88923 6.5119748 0)
(149.89707 5.3702767 0)
(149.91738 4.381889 0)
(149.94044 3.5076234 0)
(149.96165 2.7179216 0)
(149.97896 1.9899366 0)
(149.99137 1.3053533 0)
(149.99812 0.64754515 0)
(153.46795 -3.2488329 0)
(153.369 -3.32259 0)
(153.30131 -3.4315184 0)
(153.22788 -3.5917849 0)
(153.15122 -3.8074896 0)
(153.07022 -4.086447 0)
(152.98601 -4.4384576 0)
(152.90182 -4.8761531 0)
(152.82402 -5.415468 0)
(152.76481 -6.0766702 0)
(152.74997 -6.8860867 0)
(152.82658 -7.8725449 0)
(153.05264 -9.0519332 0)
(153.5001 -10.431081 0)
(154.38159 -12.053752 0)
(156.12591 -13.840984 0)
(158.82869 -15.08804 0)
(161.73105 -14.977241 0)
(164.0136 -13.96289 0)
(165.41439 -12.580125 0)
(166.21428 -11.514377 0)
(166.91273 -10.783613 0)
(167.71837 -10.179941 0)
(168.54732 -9.4987109 0)
(169.46983 -9.0366927 0)
(170.88029 -8.8593095 0)
(172.98136 -8.3019259 0)
(175.67049 -7.0501736 0)
(178.58455 -4.4807838 0)
(182.44068 -0.72938207 0)
(187.16878 7.230974 0)
(188.2551 20.230846 0)
(177.93609 36.686133 0)
(163.25221 34.975612 0)
(155.59794 29.541873 0)
(151.35319 23.107698 0)
(149.738 18.096454 0)
(149.18572 14.391846 0)
(149.09789 11.624758 0)
(149.18697 9.5057086 0)
(149.33067 7.8316082 0)
(149.47885 6.4677984 0)
(149.61224 5.3245211 0)
(149.72473 4.3406437 0)
(149.81566 3.473195 0)
(149.88653 2.6908892 0)
(149.93937 1.9701539 0)
(149.97544 1.2924471 0)
(149.99467 0.64117784 0)
(150.27024 -3.1476629 0)
(150.0237 -3.2135554 0)
(149.8523 -3.2982023 0)
(149.66413 -3.428077 0)
(149.46395 -3.6084149 0)
(149.24696 -3.848055 0)
(149.01072 -4.1578733 0)
(148.75384 -4.552652 0)
(148.47671 -5.0524275 0)
(148.1831 -5.6847575 0)
(147.88853 -6.4899093 0)
(147.63438 -7.5239104 0)
(147.47552 -8.8397417 0)
(147.45254 -10.468135 0)
(147.77926 -12.503725 0)
(149.19775 -15.027701 0)
(152.16861 -17.042195 0)
(155.40567 -16.587122 0)
(157.55847 -14.764661 0)
(158.32078 -12.223207 0)
(158.22733 -10.381156 0)
(158.1654 -9.2266239 0)
(158.41334 -8.4739987 0)
(158.62344 -7.5554174 0)
(158.74303 -7.047002 0)
(159.68627 -7.0275353 0)
(161.7951 -6.0067805 0)
(164.96411 -4.8833913 0)
(168.69632 -1.9626921 0)
(175.07296 4.1648248 0)
(184.05674 12.176211 0)
(189.66336 24.098644 0)
(176.93132 49.636118 0)
(157.54981 45.396651 0)
(150.91674 34.324601 0)
(147.40454 24.798565 0)
(146.95812 18.495573 0)
(147.31663 14.353706 0)
(147.83483 11.45541 0)
(148.32338 9.3157846 0)
(148.73423 7.6581735 0)
(149.06605 6.3210028 0)
(149.32893 5.2049015 0)
(149.53453 4.2456294 0)
(149.69309 3.3995559 0)
(149.81298 2.6356324 0)
(149.9007 1.9308195 0)
(149.9599 1.2671835 0)
(149.99131 0.62879022 0)
(143.50152 -2.9126902 0)
(143.1026 -3.0048853 0)
(142.79307 -3.1065481 0)
(142.4455 -3.256353 0)
(142.07156 -3.459221 0)
(141.66204 -3.7252896 0)
(141.2089 -4.0668857 0)
(140.7028 -4.5011752 0)
(140.1334 -5.0519191 0)
(139.48884 -5.7518059 0)
(138.76258 -6.6484511 0)
(137.97712 -7.8126854 0)
(137.18574 -9.31795 0)
(136.39911 -11.175764 0)
(135.77158 -13.442618 0)
(136.51754 -16.534901 0)
(140.14354 -19.641774 0)
(144.23666 -18.170271 0)
(146.41204 -15.46174 0)
(146.26637 -12.009552 0)
(144.65743 -10.777499 0)
(143.27095 -10.925713 0)
(142.66988 -11.415529 0)
(142.08608 -10.934762 0)
(141.21281 -10.392218 0)
(142.02712 -10.531967 9.2173863e-18)
(143.30312 -11.937438 -2.0216361e-19)
(145.60525 -13.601661 0)
(146.68646 -7.4788765 1.002002e-17)
(144.04272 -14.513965 -7.5012922e-18)
(161.5393 -10.137266 4.428271e-18)
(180.42027 5.4374108 -9.8923357e-18)
(167.94071 72.297764 6.3515401e-18)
(142.13013 58.038938 0)
(140.66695 37.133931 0)
(141.63451 24.712676 0)
(143.57083 17.83537 0)
(145.29845 13.696477 0)
(146.55479 10.916144 0)
(147.47736 8.8941837 0)
(148.16039 7.3326744 0)
(148.67274 6.0703041 0)
(149.06046 5.0120907 0)
(149.35483 4.0980435 0)
(149.57747 3.2878979 0)
(149.74367 2.5531519 0)
(149.86426 1.8726872 0)
(149.94526 1.2300609 0)
(149.98814 0.61062941 0)
(129.54058 -2.8630827 0)
(128.76019 -2.9379202 0)
(128.15928 -3.0016083 0)
(127.48803 -3.103015 0)
(126.76622 -3.2440988 0)
(125.97485 -3.432055 0)
(125.09578 -3.6748831 0)