/*--------------------------------*- C++ -*----------------------------------*\
| =========                 |                                                 |
| \\      /  F ield         | foam-extend: Open Source CFD                    |
|  \\    /   O peration     | Version:     4.1                                |
|   \\  /    A nd           | Web:         http://www.foam-extend.org         |
|    \\/     M anipulation  |                                                 |
\*---------------------------------------------------------------------------*/
FoamFile
{
    version     2.0;
    format      ascii;
    class       volScalarField;
    location    "0.8";
    object      p;
}
// * * * * * * * * * * * * * * * * * * * * * * * * * * * * * * * * * * * * * //

dimensions      [0 2 -2 0 0 0 0];

internalField   nonuniform List<scalar> 
4242
(
-0.60050452
-0.58301273
-0.56555199
-0.54383891
-0.51955527
-0.49187601
-0.46073941
-0.42621025
-0.38857643
-0.34842747
-0.3066637
-0.26443904
-0.22312419
-0.18443305
-0.14983339
-0.11640407
-0.7096682
-0.6874069
-0.66853315
-0.64553759
-0.62010175
-0.59144825
-0.55969716
-0.52490409
-0.48724931
-0.44706968
-0.40487822
-0.36136402
-0.31740543
-0.27423793
-0.23341902
-0.19480764
-0.88042979
-0.85298239
-0.83210477
-0.80586865
-0.77679301
-0.7439816
-0.70758503
-0.6676171
-0.62427647
-0.57792783
-0.52910886
-0.47851657
-0.42697411
-0.37544986
-0.32517447
-0.27805195
-1.0841376
-1.0516042
-1.028241
-0.99725213
-0.96297935
-0.92409186
-0.88075266
-0.83290867
-0.78077668
-0.7247828
-0.66559131
-0.60409861
-0.54138917
-0.47864464
-0.41707038
-0.3590324
-1.2378504
-1.2013035
-1.1764951
-1.141913
-1.1041606
-1.0610459
-1.0128344
-0.95938939
-0.90092489
-0.83787969
-0.77097488
-0.70121098
-0.62983202
-0.55823241
-0.48772419
-0.41952072
-1.3173961
-1.2780708
-1.2529286
-1.2165007
-1.1772969
-1.1322883
-1.081921
-1.0259945
-0.96471292
-0.89849975
-0.82807794
-0.75446457
-0.67893755
-0.60297215
-0.52806968
-0.45638028
-1.3232954
-1.2830002
-1.2585655
-1.2222146
-1.1833368
-1.1386404
-1.0886324
-1.0331154
-0.97227903
-0.90653236
-0.83658016
-0.76341631
-0.6882887
-0.61264604
-0.53788566
-0.46633765
-1.2582828
-1.2190943
-1.1960937
-1.161664
-1.124621
-1.0822037
-1.0347706
-0.98220127
-0.92468401
-0.86262917
-0.7967177
-0.72789154
-0.65731112
-0.58631016
-0.5160579
-0.44880051
-1.1280312
-1.0921387
-1.0712313
-1.0405096
-1.0068867
-0.96872812
-0.92612806
-0.87905144
-0.82769638
-0.77246832
-0.71400343
-0.65315777
-0.59096599
-0.52862817
-0.46719621
-0.40864555
-0.94196047
-0.91150839
-0.89320968
-0.86782735
-0.83931526
-0.80732452
-0.77177497
-0.73266025
-0.69017784
-0.64469624
-0.59675436
-0.54704667
-0.49637934
-0.44566905
-0.39572593
-0.34812454
-0.70825712
-0.68569288
-0.67106627
-0.65249431
-0.63108103
-0.60734733
-0.58123634
-0.55269245
-0.5218583
-0.48901097
-0.45451707
-0.41879644
-0.38225503
-0.3452333
-0.30776533
-0.26967834
-0.49973388
-0.4859159
-0.47526031
-0.46379223
-0.44945809
-0.43274055
-0.41419275
-0.39404514
-0.37252568
-0.34995234
-0.32666616
-0.30294264
-0.27890719
-0.25450822
-0.22947311
-0.2013582
-0.16584907
-0.15393217
-0.14395824
-0.13205809
-0.1187777
-0.10413654
-0.088284714
-0.071478001
-0.054080669
-0.03656165
-0.019475121
-0.0034372458
0.010827578
0.022487346
0.031657079
0.041113336
0.057440125
0.065195527
0.072203945
0.080085509
0.088625597
0.097707721
0.10713008
0.11659576
0.12570487
0.13396008
0.14079548
0.14561834
0.14780962
0.14670381
0.14202734
0.13548869
0.26673034
0.27080588
0.27458824
0.27857349
0.28260227
0.28646655
0.28987943
0.29246623
0.29376722
0.2932585
0.29039683
0.28466645
0.27556995
0.26264257
0.24609896
0.22855111
0.43286719
0.43429859
0.43544879
0.43628541
0.43662188
0.43619098
0.43464621
0.43155993
0.42643336
0.41872697
0.40791183
0.39350689
0.37505158
0.35217795
0.32545636
0.29808724
0.53887774
0.53888853
0.5384826
0.53744435
0.53553165
0.53243103
0.52775374
0.52103951
0.51177418
0.49942795
0.48350788
0.46358126
0.43924622
0.41035683
0.37840563
0.34843167
-0.88322282
-0.85573873
-0.83482625
-0.80854841
-0.77941698
-0.74653495
-0.7100484
-0.66996933
-0.62649718
-0.5800022
-0.53103349
-0.4803035
-0.42865076
-0.37708535
-0.32698202
-0.28020495
0.56280307
0.56229536
0.56127149
0.55955778
0.55691998
0.55306365
0.54763248
0.54021138
0.53033913
0.51753545
0.50134422
0.48138504
0.4574029
0.42936064
0.39772693
0.36410883
0.56390479
0.56338321
0.5623288
0.56056609
0.55785777
0.55390701
0.54835709
0.54079609
0.53077113
0.51781639
0.50149464
0.48144465
0.45743327
0.42948207
0.39822751
0.36549894
0.53953771
0.53953093
0.53909696
0.5380187
0.53605125
0.53287885
0.52811155
0.52129004
0.51190479
0.49943602
0.48340593
0.46339834
0.43903288
0.41023186
0.37864066
0.34925887
0.43189828
0.4333398
0.43450243
0.43534925
0.43569094
0.43525768
0.43370063
0.43059048
0.42542849
0.41767975
0.40682562
0.39238053
0.37379926
0.35056398
0.32361192
0.29816735
0.26522196
0.26933385
0.27315819
0.27719248
0.28127755
0.28520505
0.28868775
0.2913506
0.2927337
0.2923164
0.28956606
0.28395684
0.27484431
0.26146943
0.24467001
0.23094175
0.057009052
0.064803013
0.07184939
0.079780892
0.088384025
0.09754426
0.10706231
0.1166441
0.12589272
0.13431529
0.14135473
0.14642071
0.14884879
0.14791548
0.14353521
0.13715541
-0.16499811
-0.1530634
-0.14308475
-0.13117225
-0.11787618
-0.10321591
-0.087341516
-0.070508996
-0.053084011
-0.035538513
-0.018431014
-0.0023879022
0.011825585
0.02327928
0.032002663
0.041147841
-0.5032123
-0.48933666
-0.47863707
-0.46712069
-0.45272655
-0.4359344
-0.41729425
-0.39703231
-0.37537215
-0.35262772
-0.32913558
-0.30516291
-0.28081017
-0.25596435
-0.23005972
-0.20134415
-0.7121435
-0.68951003
-0.67483201
-0.65619132
-0.63469768
-0.61086798
-0.5846427
-0.55596488
-0.524978
-0.49196381
-0.45729901
-0.42142059
-0.38475924
-0.34771135
-0.31037536
-0.27342863
-0.94613854
-0.91561132
-0.89725765
-0.87179784
-0.84319662
-0.81109746
-0.7754184
-0.73615256
-0.69349999
-0.64783694
-0.59971641
-0.54985196
-0.49906772
-0.44830123
-0.39828597
-0.35082955
-1.1322831
-1.0963161
-1.0753544
-1.0445532
-1.0108394
-0.97256791
-0.92983169
-0.88259498
-0.83105917
-0.77563923
-0.71698807
-0.65598358
-0.59368224
-0.53130757
-0.46984532
-0.41160149
-1.2624307
-1.2231727
-1.2001199
-1.1656129
-1.1284802
-1.0859498
-1.0383784
-0.98564443
-0.92793956
-0.86568398
-0.79957561
-0.73057742
-0.65986853
-0.58878418
-0.51839302
-0.45121541
-1.3272423
-1.2868842
-1.2624009
-1.2259784
-1.1870151
-1.1422099
-1.0920668
-1.0363873
-0.97536428
-0.90941684
-0.83926698
-0.76593025
-0.69067267
-0.61493063
-0.54002674
-0.46858599
-1.3211063
-1.2817253
-1.2565389
-1.2200473
-1.1807641
-1.1356543
-1.0851597
-1.0290789
-0.96761926
-0.90121405
-0.83060355
-0.75682697
-0.68117808
-0.60511235
-0.530105
-0.45852855
-1.2413071
-1.2047111
-1.1798635
-1.1452262
-1.1074019
-1.0641955
-1.0158672
-0.96227961
-0.90364961
-0.84042577
-0.77334681
-0.70343631
-0.63195271
-0.5602774
-0.48975625
-0.42170201
-1.0872982
-1.0547222
-1.0313226
-1.0002857
-0.96594884
-0.92697922
-0.88353486
-0.83556147
-0.78327823
-0.72712018
-0.6677686
-0.60614242
-0.54334136
-0.48055626
-0.41907874
-0.36128179
-0.71198674
-0.68969869
-0.67079648
-0.64777111
-0.62229455
-0.59359008
-0.56177385
-0.52689865
-0.48914274
-0.44884312
-0.40651625
-0.36286021
-0.31877562
-0.27555999
-0.23484571
-0.19606072
-0.60226033
-0.58476152
-0.56729086
-0.54557347
-0.52127743
-0.49357644
-0.46240276
-0.42781487
-0.39009528
-0.34983243
-0.30793463
-0.26558173
-0.22419691
-0.18556933
-0.15122098
-0.11818395
-0.056871343
-0.053805603
-0.050066917
-0.047282754
-0.0470904
-0.050036136
-0.055851413
-0.064108448
-0.0742548
-0.085461692
-0.0966358
-0.10653726
-0.1139208
-0.11773597
-0.11765942
-0.11310345
-0.083475274
-0.081604544
-0.080848719
-0.080566796
-0.079674836
-0.07861354
-0.078817908
-0.081162131
-0.085166744
-0.089669265
-0.093834647
-0.096859208
-0.097844343
-0.096085998
-0.091563096
-0.08461478
-0.099742608
-0.097960995
-0.096700604
-0.095600955
-0.094971085
-0.095052975
-0.095006396
-0.093563268
-0.090785415
-0.088361734
-0.087087169
-0.084865806
-0.079884399
-0.071462506
-0.060041948
-0.04640295
-0.11060084
-0.1092684
-0.10823634
-0.10743411
-0.10689237
-0.10673486
-0.10733151
-0.10943029
-0.11349938
-0.11762271
-0.11655702
-0.10742662
-0.089536012
-0.065869403
-0.04052818
-0.016041736
-0.081407753
-0.081395491
-0.081823341
-0.082795028
-0.084377299
-0.086640574
-0.089641914
-0.093396977
-0.097768492
-0.10237734
-0.10472696
-0.098792364
-0.080625369
-0.051052259
-0.016786921
0.016790553
-0.019860057
-0.020658635
-0.02205474
-0.024111651
-0.02690459
-0.030470932
-0.034762522
-0.039652805
-0.045091408
-0.051095233
-0.056318424
-0.054834687
-0.040889341
-0.015401167
0.016483319
0.048068903
-0.026198462
-0.026955821
-0.028244031
-0.030126359
-0.032673532
-0.035925378
-0.039850267
-0.044368158
-0.049529109
-0.055458751
-0.060647968
-0.058467224
-0.043874785
-0.018655206
0.010530236
0.041411789
-0.087362279
-0.087242383
-0.087553192
-0.088409958
-0.089877783
-0.092024121
-0.094902743
-0.098527984
-0.10276925
-0.1072633
-0.10944827
-0.10289757
-0.083136335
-0.053520914
-0.019340078
0.015813156
-0.11611743
-0.11468699
-0.1135862
-0.11273603
-0.1121543
-0.11195968
-0.11252248
-0.1146002
-0.11862476
-0.12253492
-0.12112931
-0.11157944
-0.0922935
-0.067726054
-0.041346764
-0.014562627
-0.10384755
-0.10198549
-0.10067558
-0.099544718
-0.098899758
-0.098995
-0.09899182
-0.097588743
-0.094840552
-0.092412983
-0.090976884
-0.088396541
-0.082819382
-0.073614803
-0.061337365
-0.046626153
-0.086369127
-0.084449168
-0.083677319
-0.08341976
-0.082572065
-0.081562586
-0.081831889
-0.084248899
-0.088293649
-0.092778551
-0.096850089
-0.099690983
-0.10039905
-0.098280763
-0.09344126
-0.085371129
-0.059112767
-0.056013537
-0.05225939
-0.049491626
-0.04934282
-0.052350549
-0.058236113
-0.066563577
-0.076771493
-0.088019078
-0.099197989
-0.10905229
-0.11632409
-0.11998349
-0.11988262
-0.11477246
-0.28617123
-0.35462461
-0.33487272
-0.31692454
-0.29584631
-0.27231009
-0.24668467
-0.21925851
-0.19058362
-0.16141565
-0.13261676
-0.10522609
-0.080678206
-0.059473652
-0.037024186
-0.28774776
-0.35593672
-0.33623248
-0.31826782
-0.29716572
-0.27359736
-0.24792723
-0.22043937
-0.19168608
-0.16242798
-0.13354301
-0.10608508
-0.081455249
-0.059973942
-0.037869418
-0.16382405
-0.22917196
-0.22946031
-0.22229483
-0.21880569
-0.21657578
-0.21404157
-0.21090795
-0.20709176
-0.20240946
-0.19655204
-0.18907774
-0.17955754
-0.1678909
-0.14744304
-0.16150314
-0.22645405
-0.22669796
-0.2195258
-0.21602839
-0.21379793
-0.21127849
-0.20818049
-0.20442805
-0.19984847
-0.19414731
-0.18690509
-0.17766161
-0.16651593
-0.1502092
-0.20138163
-0.20336537
-0.17640864
-0.17423902
-0.01741608
-0.036868132
0.10294884
-0.034936673
-0.074483802
0.0057099293
0.0069967771
0.018335217
0.017967333
-0.02341123
-0.030001282
4.3943895e-05
0.061997725
-0.062942252
0.011039444
-0.088219422
-0.02491949
-0.11533758
-0.081081028
-0.083048444
-0.088334883
0.064658564
0.020201117
0.024771776
0.039886838
0.0040467728
-0.020840859
-0.084184611
-0.04259892
-0.14690711
0.0053987938
-0.016219993
-0.040635588
-0.061093135
0.052615172
-0.032538296
0.0012604923
0.048749639
-0.038945074
-0.027223957
0.037602647
0.00083904949
0.017679259
-0.14345305
0.017301663
0.13045216
-0.013161106
0.035441899
0.014319696
0.013824048
-0.18637195
0.22910791
0.065072392
-0.032611625
-0.17179475
-0.052926541
-0.034633278
0.0075865657
0.024153012
-0.020637861
-0.017788637
0.014020634
0.012919892
-0.024146019
-0.20159201
-0.020573571
0.0042667051
-0.012708673
-0.038378518
-0.014117109
0.010193653
-0.073436954
0.015004328
-0.000958028
-0.0012540767
0.020742073
-0.037054303
0.010361352
-0.0028570669
-0.0038085824
-0.016970177
-0.14920708
-0.15602061
-0.017464665
-0.030495408
-0.045835233
0.022823565
-0.00015177038
-0.16723141
-0.00121164
-0.026304703
0.0028757725
0.14586816
-0.050510693
0.042151899
0.052743052
7.1635988e-05
0.11611508
-0.182627
0.058000963
-0.00095248923
-0.028843656
0.0036473867
0.0010014094
-0.027716715
-0.06835615
-0.037757036
-0.00082407548
-0.038287498
-0.15191154
-0.2031006
0.075502711
-0.040847958
0.033356756
-0.091799662
-0.0024820029
0.087545603
0.00091720447
-0.00055837697
0.079066006
0.073680461
-0.041003163
0.049114261
-0.039172157
-0.12276517
0.035927102
-0.016023452
-0.15459537
-0.044514117
0.065788475
-0.047507793
0.035230174
0.00031458529
0.00067535931
0.0030820998
-0.050383018
0.1206338
-6.4203451e-05
-0.18717143
-0.024892601
0.040852005
-0.030031623
-0.077750899
-0.023947646
-0.00024458848
-0.00012889283
-0.023323987
-0.040423513
-0.0089246588
0.011544617
0.010698837
-0.019183283
0.0096911898
0.086341239
-0.001745335
0.035686454
-0.16289311
-0.017047714
-0.0030185075
0.00098052987
-0.3750058
-0.37523006
0.04601819
0.067695362
-0.013164857
-0.00040442583
-0.0093659734
0.010493658
-0.08395396
-0.00018147595
-0.079589139
0.13716064
0.013277142
0.0010800623
-0.016874529
0.045168944
-0.0080017299
-0.00035241975
-0.021906394
-0.018111048
0.014132238
-0.076779591
-0.060435503
0.010634111
0.016081252
0.019474147
0.043135402
0.00035179063
0.012308429
-0.033651331
-0.0012742282
0.002401971
-0.094208967
0.065577955
-0.019972516
0.026328643
0.001557602
0.0067715966
0.0077368257
0.15358967
0.013650299
0.011722598
-0.11298312
-0.0088092274
0.068815594
0.025326787
0.057045854
-0.0031339857
0.085493168
0.00084703421
-0.019433867
-0.013136307
-0.010151341
0.0052529603
-0.0010802665
0.00064292015
-0.0012361237
0.036481514
0.050092764
0.033345621
-0.033541803
-0.042033668
-0.0054423974
-0.00062297113
-0.029434474
0.078429264
0.070854467
-0.00053812853
-0.049880053
0.03314137
0.076750546
0.10270854
-0.0015670717
-0.058621383
-0.10394904
0.0083745084
-0.005317776
0.039940486
-0.030448439
-0.0012633153
0.005706643
0.00080567171
0.015146244
-0.059222362
0.097883457
-0.018142595
-0.057204244
0.025188403
0.0026018965
-0.062321935
0.014978679
0.14265792
0.00087738512
0.00068665146
-0.070285874
0.00050532825
0.05917301
0.011561205
-0.0011241915
-0.026837904
-0.03405244
0.00010329732
-0.0011156892
-0.0017954485
-0.020486807
-0.0088045306
0.005482914
-0.040960486
0.0017094365
-0.026645469
-0.00010134204
-0.022530523
-0.0095923764
0.061256455
-0.09037298
-0.0029655254
0.089130262
0.070925563
-0.0098579958
0.0035009379
-0.013451628
-0.0019333739
0.0059703847
-0.13544464
0.035813392
-0.089786373
0.0024089789
-0.014297948
0.013344296
-0.0076543118
0.013556318
0.048760568
-0.13217411
0.00029600295
0.090352771
-0.041691112
0.007708687
0.041440828
0.012835599
-0.039328439
0.0055165552
-0.10159767
-0.070780533
0.10493503
0.14179483
-0.044673599
0.011614205
-0.0071848299
-0.024120856
0.047186236
-0.10847372
-0.035427248
0.0019472335
-0.039977173
-0.012309077
-9.0744928e-05
0.0080520294
0.0047295235
0.17242459
-0.038997243
-0.11443961
0.055289172
0.00026983953
-0.00094712517
0.0062797176
-0.019411414
-0.11879065
0.0026477413
0.0021512613
-0.00010155614
0.22726954
-0.01575222
-0.015523549
0.033188915
-0.044156152
-0.10603874
-0.025715457
0.0016250265
-0.0018188771
0.004705002
-0.14335806
-0.045252565
0.0027466545
0.078882807
-4.1097617e-05
0.0030011459
-0.13883535
0.0053729364
-0.070947558
0.00065428705
0.0011538746
-0.20321924
0.027875872
0.009884687
-0.024532684
-0.14030868
-0.039858582
-0.0020649289
-0.10966714
0.021836064
0.015340741
0.029202865
0.00046291225
-0.18527721
0.11355845
0.051896868
0.010552691
-0.13975507
0.0018090516
0.063380963
-0.13702328
-0.16380766
0.15048627
-0.0057068378
0.0082698391
0.016635899
0.025933819
-0.057565206
-0.16030842
0.010181791
-0.05090754
0.065975158
0.051865168
-0.023514799
-0.056865913
-0.013610404
-0.031759088
4.1767799e-05
0.0066677733
-0.21453663
0.00033841469
0.014610069
-0.2106739
0.0011539778
0.0097978095
-0.027148845
-0.0058503834
0.026176433
0.2087593
-0.041267628
0.00044142268
-0.066775359
0.005795772
-0.10882312
0.032659137
-0.056065981
-0.020471654
-0.006204185
0.026793535
0.00034510601
-0.014249814
0.026628716
-0.0010068969
-0.012143104
-0.011242001
0.009946702
0.011415371
-0.00012702014
-0.030042725
0.0014512924
-0.043320706
-0.0031462469
-0.020171828
0.021543723
0.069108476
0.10649933
-0.11407782
0.00074898667
0.056423858
0.0038299776
0.012933286
0.011118234
-0.037144752
-0.039307245
0.055523324
0.005830794
0.0030598285
-0.10640875
-0.10386951
-0.02005911
-0.15720121
-0.090506616
-0.029255912
0.0030890789
-0.11631967
-0.043196768
0.00025363991
0.00019822506
-0.02159592
0.03322532
0.00040287066
-0.082002567
-0.1135821
0.00053614114
-0.059453165
0.0061289388
-0.04097061
-0.0099853434
0.00040780433
0.012758681
0.014154133
0.078028232
0.011111292
-0.030925445
0.0083943711
0.027479721
0.022753859
0.044763195
0.058568738
-0.03818611
0.018441336
-0.0011566849
0.09640656
-0.01028437
-0.0074885085
-0.037004873
-0.0017665932
-0.00037141653
0.23535781
-0.0032789274
-0.036308891
-0.1013395
-0.050723495
0.00011173238
-0.075961327
-0.15818346
0.0019886835
0.03818016
0.02080729
-0.185419
0.033852232
0.000258457
-0.059674737
-0.032491738
-0.15452735
-0.038561779
-0.0078778086
0.016471298
0.00087823855
-0.016128967
0.019549917
-0.010433216
0.10078161
0.01042588
0.0091248153
-0.053419449
-0.35979036
-0.027579364
0.00032469001
0.054609611
0.0013781474
-0.0027029302
-0.040908475
-0.021944203
-0.10171819
-0.35989616
-0.0043309746
0.023596976
-0.0039836678
0.028809329
-0.0019541486
-0.029561551
0.016136018
-0.0052972628
-0.18178117
-0.017936841
-0.10893922
0.011306127
-0.14931402
0.069565515
0.011914469
-0.1617371
0.066320944
0.0085317535
-0.20884523
0.063530875
0.01535637
0.015707257
0.026001183
0.023085227
-0.33230012
-0.054700212
-0.12064685
0.00086054678
-0.11743231
0.064362453
0.029702672
0.029486004
0.015337159
-0.047777439
-0.028646722
0.0031904413
-0.00023003177
0.060418083
-0.098361066
-0.035344209
0.0059182168
-0.33368794
0.10342939
-0.12647914
-0.051491463
-0.009806239
-0.15206542
-0.093834322
-0.0019684281
-0.21809037
-0.045752057
-0.017230591
0.023919569
0.025611232
-0.028674547
-0.10170335
-0.13994108
0.064748258
0.099668866
0.093675679
0.016276942
-0.0038801899
0.028367364
0.057042745
0.10544786
0.043236704
0.14257948
0.0013451517
0.021957645
0.043411066
0.0014814661
-0.023723976
0.0016199701
0.036486093
0.070187814
0.018187035
-0.21450906
0.023025643
-0.009111558
0.23495097
0.033091676
-0.00046262112
0.2247661
0.06602865
-0.033151559
-0.035241732
0.055257308
0.22334337
-0.088497328
-0.017065761
0.052398689
-0.0046445707
0.13022448
0.05289977
0.057480342
-0.039175763
1.8330853e-05
0.069112986
0.058634853
0.23403772
0.015355132
0.0013475946
0.023259374
-0.056266224
-0.06047989
-0.040144727
-0.18539253
0.23315638
-0.029627066
-0.00070791426
-0.026834861
0.107639
0.086873496
-0.10410313
-0.096839229
0.0067549563
0.052808772
-0.11930024
-0.18145493
-0.052985036
-0.084659521
0.01188546
0.011231786
-0.0099126442
-0.02567482
-0.010699637
0.00789136
-0.024794216
-0.074222687
0.035938505
-0.03609034
-0.01136228
-0.11641342
0.1913508
-0.084430218
0.012265609
-0.00051451117
0.0084081742
0.0235746
-0.030116853
0.21997071
-0.026384273
0.00045029007
0.037946651
-0.00054254204
-0.17843007
-0.0012839639
-0.049449984
0.0016258828
-0.026663906
0.0063856766
-0.12013029
0.098216081
-0.12252627
-0.00015144973
0.019146415
-0.077995402
0.075905638
-0.0020397233
0.10462166
-0.027017079
0.27884555
-0.014417696
-0.019843975
-0.17537103
0.1671841
-0.12998916
0.00049383978
0.0010677649
0.0029652636
0.0005798604
-0.16893157
0.029210426
0.023533183
0.0087171434
-0.31092328
0.0019553601
0.031114577
-0.00093495323
-0.31060874
0.013769157
0.0012018035
-0.086928627
2.1354202e-05
0.0044943124
0.059739635
-0.045745194
-0.23231549
0.017599103
-0.020613739
7.2956315e-05
-0.00088353292
-0.036574371
-0.052031954
0.024708944
-0.011154057
0.031061635
-0.020371091
0.095549714
-0.23010003
-0.010313634
-0.025791406
-0.22584576
0.026722986
0.060534296
0.00013216674
-0.045100845
-0.0011111873
0.05490194
0.045982178
-0.059565208
0.010776637
0.00052107636
-0.032133315
0.02033389
0.079040348
0.023972518
-0.015884956
0.062833664
0.0023462249
-0.2251017
0.039512866
-0.009100899
-0.069131406
-0.0060806329
-0.016931168
-0.039321281
-0.0018244981
-0.029111021
-0.044865297
0.0094642561
-0.00031264943
-0.083462479
-0.038328894
-0.034762891
-0.033534318
-0.014487167
-0.15018974
-0.089360501
-0.087395536
0.026772753
-0.083943918
0.10899103
0.0063274232
0.017341734
-0.037862991
0.019155091
-0.13293054
0.0055488048
-0.07231343
-0.14765114
-0.04229449
-0.010069962
-0.07779674
-0.03205328
-0.017317432
0.00051867218
-0.037055736
0.052399252
-0.0092638012
0.0018646488
0.024453626
0.05501686
-0.048100163
0.10406656
-0.063487491
0.3298556
0.043098368
-0.064584058
-0.021502167
0.00031584472
0.02301045
0.072643693
-0.035053347
0.0014796125
-0.00066157692
0.0085091528
0.027537795
-0.0099916572
0.0013180194
-0.0036200449
-0.00022108079
0.10072061
-0.0008331574
0.047466615
0.070434394
0.060137643
0.055075185
0.044619615
0.021685648
0.00060853386
0.026206002
-0.038695611
-0.016500442
-3.1282791e-06
0.00049629186
0.1068019
-0.051166705
-0.1048413
0.013323728
0.062470876
-0.01728307
0.068254002
0.029223083
-0.032490058
0.13125075
0.0011081155
-0.0093174839
-0.015867832
0.00012925111
-9.5044851e-05
-0.0098417782
0.0048008879
0.23140793
-0.0083616046
-0.018955882
0.04029811
0.0022229816
0.0040957383
0.0011908899
-0.00096675077
0.064387351
-0.029952203
-0.023859838
-0.0031935241
0.031018277
0.007959262
0.014497558
-0.013287831
-0.00038559242
-5.3170824e-05
0.018277537
0.050839081
0.028423483
-0.04943619
0.00028847823
0.0020112053
-0.082203149
0.018588246
-0.006237196
-0.018996756
0.21494345
-0.0459656
0.21360972
-0.11255506
-0.052894923
0.0059178653
-0.026211698
0.026805687
0.0010759405
0.083675222
0.0027179142
0.052652279
-0.0097699753
-0.049408694
-0.065111314
-0.21336931
0.017002929
-0.00091431525
-0.024330507
0.061323333
-0.041195148
0.0722051
-0.039756008
-0.013803679
0.050204006
0.02223043
-0.00081880365
0.010393169
-0.0092285575
-0.21001345
0.0043632888
0.32382787
-0.16096563
-0.048879631
0.0059774023
0.18632097
0.024602046
-0.2315929
-0.035881136
0.0013117079
-0.020318779
-0.041208661
-0.19937328
-0.01791368
0.023650799
-0.19636292
-0.03899303
0.040881142
0.0051142717
-0.0080626973
-0.016259641
0.00074682399
0.0018851906
5.3520369e-05
0.024707145
0.0049457261
-0.0018651894
-0.020908866
0.070062
0.043384869
0.10705722
0.05701907
-0.10790265
-0.15723354
-0.0033419444
-0.060483627
0.0076134864
-0.20385502
-0.088928683
-0.036943403
-0.030705371
-0.063311218
0.060493658
-0.038339764
0.00060737618
-0.04052662
-0.0085951168
0.061665818
-0.017703732
0.0052063458
0.0040763369
-0.20883828
-0.031436517
0.0029115004
0.00073961139
-0.00092789545
0.031003883
0.016418825
0.29080767
0.0030359075
0.00076221262
-0.0040286249
-0.01302085
-0.19522959
-0.10972678
-0.052528366
-0.060719209
-0.050415921
0.1014708
0.1674783
-0.18258173
8.5423041e-05
0.073745527
-0.21603984
-0.018360685
0.022785056
-0.15627977
-0.17073318
0.034568097
0.0014743077
0.025640159
-0.00047538025
-0.015281714
-0.060545177
0.058641211
0.12922098
-0.15483267
0.0049820516
0.14538832
-0.0047520169
0.024717137
-0.010533561
0.088273409
-0.014282962
-0.012830486
0.0056257302
0.00065496685
-0.0098375693
-0.11728824
0.26545888
-0.13030308
-0.12151282
-0.0044694476
-0.11000997
0.16734903
-0.10531826
0.058787936
-0.049871026
-0.091746303
0.0016415993
0.010124705
0.013180137
-0.055271947
0.0072095754
-0.15137656
0.026094185
0.04673885
0.1196561
-0.070161123
-0.078404562
0.059945854
-0.020155638
0.0025665948
-0.0061063509
-0.22163958
-0.13464032
-0.024661035
-0.021990062
-0.044074013
0.0020557295
0.025153329
0.071260751
0.027603792
-0.14711048
0.0013467487
-0.085566817
-0.0074754098
0.0041337753
0.1229687
0.068499425
0.0004346989
0.059478846
-0.025310353
0.072606466
0.0096386832
-0.018191268
0.035045589
0.1610267
-0.39385212
0.052944501
-0.0030186415
-0.11427064
0.0004378925
-0.39379191
-0.001457169
0.041164093
-0.074319424
0.00016442126
0.031783104
-0.016039388
0.017281849
-0.16223253
-0.23480924
-0.0059941833
-0.0018390864
0.0036907829
-0.0088431376
0.102167
-0.12519698
-0.10915939
0.069187223
0.00195032
-0.14193056
0.0039564051
0.032511471
0.041363698
-0.12234746
0.0076375173
0.0084448111
-0.032273872
-0.016137944
-0.077526714
-0.00014597458
0.0023441784
-0.19144632
0.0097138877
0.0062889349
-0.03329546
-0.010537193
-0.26876795
-0.0074380441
0.20060857
-0.2658241
0.097684859
-0.12203538
-0.0025880847
0.07251434
-0.0043635637
-0.030235114
-0.3594199
-0.04197151
0.26455691
0.0022527145
-0.18752948
-0.11217614
0.028137145
-0.3587717
0.026254978
-0.0050098261
0.11240617
0.0073142487
0.016681605
-0.001989016
0.081728546
-0.035040633
8.4373459e-05
-0.0073480423
-0.14386707
6.4621072e-05
0.016074811
-0.041536434
-0.030106007
0.0025576464
0.00054817775
0.035358566
0.33208288
-0.0042644591
0.081360728
-0.066559804
0.051164659
0.019595457
0.020156438
0.20578776
-0.003979673
0.069228249
0.088722522
-0.059445996
0.073044027
-0.17862126
-0.039486875
-2.0039311e-05
0.018229088
-0.00811206
0.00022318886
-0.022104156
0.0094295978
0.013422882
-0.096164101
0.2904223
-0.10082181
0.054950422
-0.17493451
0.04663463
0.034733213
-0.048300208
0.13238676
0.061039166
0.025917148
0.03546221
-0.0093196965
-0.0021858681
0.015401776
-0.019979035
-0.0086606022
-0.30895208
-0.30790205
-0.0029941949
-0.021697475
-0.0076652038
0.0012796512
-0.039804112
-0.0034074463
-0.0055465306
-0.11821726
-0.00043927406
-0.03756671
-0.052095236
-9.3001212e-05
-0.036970693
0.028550108
-0.026168763
0.0017618241
0.01833797
-0.3840469
0.075389609
0.0014927764
-0.045603081
0.066242855
-0.062671679
-0.38386581
-0.0016191291
0.0038102962
-0.080581887
0.036267477
-0.0081186484
-0.31278113
-8.8727679e-05
0.10370212
-0.040965287
0.0025721948
-0.00039713797
-0.019029052
-0.31014625
0.070419351
0.0016777528
-0.094316084
-3.3816356e-05
-0.041820644
-0.15791327
0.048720353
0.059122237
-0.0026449111
0.037299402
-0.0045685238
-0.085935075
-0.15418351
0.0075277536
-0.015399395
-0.035511673
-0.067951474
-0.0022647048
0.31004414
-0.00094644738
0.16791585
0.0093926821
0.18895924
-0.090381718
-0.08715926
-0.006173824
0.019771593
0.020099822
0.080839406
-0.045222112
0.00026273107
0.095273807
0.03957067
-0.0033615207
-0.038520522
-0.0032446354
0.071576539
0.030888067
0.00043401974
0.0079250054
-0.0073298054
-0.02163401
-0.01325697
0.021125849
0.020217517
-0.042162843
0.007900888
-0.19896319
0.031684558
0.049896621
0.014904809
-0.024478735
-0.0015951469
-0.00066936516
0.20676357
-0.017135876
-0.02215332
-0.001427193
0.077735389
0.12763708
-0.1506267
-0.01847454
-0.0063045964
0.083567153
0.27310163
0.00044927573
0.0027639035
0.03680554
-0.0055082245
0.00014738769
0.0030492875
-0.051711008
0.064208146
0.0001093614
-0.028416625
-0.068152741
0.019954532
-0.00016951153
-0.040711071
-0.0082072756
-0.0016377949
-0.001755937
-0.080979895
-0.030427302
-0.21053738
-0.079625588
0.00018745014
-0.0043704032
-0.021539566
0.073587508
0.068809626
0.040343478
-0.10668252
-1.6467206e-05
0.046810915
-0.081228512
-0.20652664
0.047462456
7.3681896e-06
0.03255058
0.0047968433
-0.17727719
-0.2302012
0.0043710733
0.049458536
0.050280832
-0.0049682005
-0.12248216
0.00017972633
-0.018962958
0.0057443947
0.087070786
-0.091865461
0.05369094
0.088100644
-0.0013869261
0.15729732
0.27144114
0.03147055
0.0057440586
-0.1249607
0.058232902
-0.084595959
0.098390709
0.014098018
-0.10022977
0.027158654
0.13505863
0.10393741
0.0002994125
-0.00011116911
-0.1999334
-0.001020152
0.098440656
0.0066746033
0.0051150909
-0.22655559
0.0071060949
0.021193145
0.10412761
-0.26032927
-0.066019616
-0.12062536
-0.094649456
0.16002592
0.00082821913
0.0077099678
-0.041064689
0.047568181
-0.026264154
4.3127877e-05
-0.27731419
-0.0021525031
-0.0015227003
-0.27513264
0.0050604106
-0.27913767
-0.0025807108
-0.0056861805
-0.017871366
0.00063451843
0.023851539
0.072403556
0.0062087029
-3.3406663e-05
-0.035996297
-0.0016955223
-0.039354737
0.016449841
-0.0094820684
0.018098363
0.030999707
-0.19597624
-0.27582508
-0.13500872
0.00034149987
-0.00091066955
0.00021683351
0.00690547
0.00090010776
0.026895905
0.0099889857
0.00035338604
0.049170143
0.085374775
-0.037106489
0.13644699
-0.026662107
-0.0047040841
-0.18353496
0.044435027
-0.35288574
0.077583348
-0.0012136609
-0.012051259
0.019752181
-0.04043694
-0.038657093
-0.23938412
-0.0074586526
0.028191699
-0.0031460301
0.05573565
-0.00092737366
0.0064863744
-0.00044273951
0.00095870313
0.090372626
-0.012463456
-0.030034519
-0.025324133
0.032375439
-0.045613826
-0.015941307
-0.0012918206
-0.001642794
-0.011848775
0.21286154
-0.035248903
-0.00059632859
-0.033762371
0.066562985
-0.05664863
-0.090865117
0.047241698
0.042642506
-0.35589451
-0.00033944577
-0.00050254319
0.050148289
-0.0013743662
0.019981593
-0.004213889
-0.042665869
0.0057644513
0.060640978
0.03213046
0.22524184
-0.1547237
0.0053341288
0.023506359
-0.24205541
-0.24260222
0.21683174
0.056020507
-0.010389757
-0.062403807
-0.0062265872
-0.0019841261
0.0844971
-0.00016780875
0.059909362
0.12254818
-0.0011701277
-0.13171509
0.10408436
-0.050751928
0.00022662717
-0.0026203688
0.020487264
0.047882315
-0.027219827
0.0014551867
0.0041536313
0.004563246
-0.091149754
-0.14902231
0.00063016108
-0.0032837726
-0.14108758
0.024906159
-0.00080540761
-0.0088396776
0.061342839
-0.093859153
-0.00012389669
-0.025012174
0.0027360502
-0.0023838885
0.0087155692
-0.056934533
-0.25026847
0.012393135
0.28522409
0.075497416
0.0082212552
0.0070823795
0.061354878
0.00072388095
-0.18210506
0.0093239789
-0.18597052
0.018847473
0.018525835
-0.1312685
-0.062113222
-0.043061052
0.033347007
-0.16209323
-0.052131899
0.20771641
0.15224773
-0.018826542
0.31312135
0.032500173
-0.20696288
-0.00097210088
-0.26332158
0.26648124
0.010186386
-0.24678121
-0.21049195
-0.0075892797
-0.0011727871
0.00083569139
0.071453131
0.24840702
-0.020011485
-0.065277387
0.015575745
0.028887888
-0.063002315
0.021276074
-0.015745449
0.0029169464
-0.031090035
-0.006661195
-0.020230944
-0.16446595
0.019011374
-0.036799634
-0.013453225
-0.0047588291
-0.26917273
0.00023857441
-0.042533219
-0.20422292
0.020181421
0.046727046