/*--------------------------------*- C++ -*----------------------------------*\
| =========                 |                                                 |
| \\      /  F ield         | foam-extend: Open Source CFD                    |
|  \\    /   O peration     | Version:     4.1                                |
|   \\  /    A nd           | Web:         http://www.foam-extend.org         |
|    \\/     M anipulation  |                                                 |
\*---------------------------------------------------------------------------*/
FoamFile
{
    version     2.0;
    format      ascii;
    class       surfaceScalarField;
    location    "0.8";
    object      phi;
}
// * * * * * * * * * * * * * * * * * * * * * * * * * * * * * * * * * * * * * //

dimensions      [0 3 -1 0 0 0 0];

internalField   nonuniform List<scalar> 
6703
(
-2.8074771e-05
0.00014596887
-0.0001178941
-5.3192002e-05
0.00017969302
-0.00015457579
-7.7002756e-05
0.00021571472
-0.00019190397
-0.00010489237
0.00025626248
-0.00022837287
-0.0001369252
0.00030377118
-0.00027173834
-0.0001735248
0.00035941458
-0.00032281498
-0.00021513522
0.00042441026
-0.00038279985
-0.00026222767
0.00050015646
-0.000453064
-0.00031536475
0.00058819183
-0.00053505475
-0.00037523634
0.00069023446
-0.00063036288
-0.0004426808
0.00080822994
-0.00074078547
-0.00051869942
0.00094442178
-0.00086840317
-0.00060446101
0.0011015147
-0.0010157531
-0.00070140585
0.0012830367
-0.0011860919
-0.00081126196
0.0014939581
-0.001384102
0.0017409988
-0.0016183968
-0.00093386396
-2.0355409e-05
0.00016632428
-4.0728565e-05
0.00020006618
-6.0768908e-05
0.00023575507
-8.440724e-05
0.00027990082
-0.00011199155
0.00033135549
-0.00014429067
0.00039171369
-0.00018209422
0.00046221382
-0.00022626357
0.00054432581
-0.00027776833
0.00063969659
-0.00033772149
0.00075018763
-0.00040743915
0.00087794759
-0.00048853339
0.001025516
-0.00058301065
0.001195992
-0.00069326922
0.0013932953
-0.00082176104
0.0016224499
0.0018892882
-0.00097005047
-7.6145244e-06
0.0001739388
-1.9781597e-05
0.00021223325
-3.3751238e-05
0.00024972471
-5.0510905e-05
0.00029666048
-7.038997e-05
0.00035123455
-9.3990855e-05
0.00041531458
-0.00012194492
0.00049016788
-0.00015498792
0.00057736881
-0.00019396032
0.00067866899
-0.00023981949
0.00079604679
-0.0002936602
0.0009317883
-0.00035675383
0.0010886097
-0.00043061442
0.0012698525
-0.00051706006
0.0014797409
-0.00061809909
0.0017234889
0.0020069281
-0.000735739
-2.8624919e-06
0.0001768013
-1.0626916e-05
0.00021999767
-1.8813875e-05
0.00025791166
-2.8952945e-05
0.00030679955
-4.1092406e-05
0.00036337401
-5.5692319e-05
0.00042991449
-7.3186759e-05
0.00050766232
-9.410428e-05
0.00059828634
-0.00011905335
0.00070361807
-0.00014873455
0.00082572798
-0.00018395153
0.00096700529
-0.00022562031
0.0011302784
-0.00027476895
0.0013190012
-0.0003324946
0.0015374666
-0.0003997268
0.0017907211
0.0020831291
-0.00047592779
1.3758564e-06
0.00017542544
-2.4897663e-06
0.0002238633
-5.4392987e-06
0.0002608612
-9.5140581e-06
0.00031087431
-1.4349817e-05
0.00036820977
-2.0258449e-05
0.00043582312
-2.7438181e-05
0.00051484205
-3.6176579e-05
0.00060702473
-4.6810678e-05
0.00071425217
-5.9744944e-05
0.00083866225
-7.5459429e-05
0.00098271977
-9.4517566e-05
0.0011493366
-0.0001175674
0.001342051
-0.00014532523
0.0015652244
-0.00017855178
0.0018239477
0.0021245985
-0.00022002111
5.798082e-06
0.00016962736
6.3222608e-06
0.00022333912
8.5100729e-06
0.00025867339
1.0555597e-05
0.00030882879
1.3048484e-05
0.00036571689
1.5856363e-05
0.00043301524
1.9012252e-05
0.00051168616
2.248256e-05
0.00060355443
2.6215455e-05
0.00071051927
3.011668e-05
0.00083476102
3.4041485e-05
0.00097879497
3.7783893e-05
0.0011455942
4.1067082e-05
0.0013387678
4.3527086e-05
0.0015627644
4.4877717e-05
0.001822597
0.0021247121
4.4764031e-05
1.0447278e-05
0.00015918008
1.6061861e-05
0.00021772453
2.3443118e-05
0.00025129213
3.1886514e-05
0.00030038539
4.1852357e-05
0.00035575104
5.3498538e-05
0.00042136906
6.7056775e-05
0.00049812792
8.2757448e-05
0.00058785375
0.00010083169
0.00069244503
0.00012149605
0.00081409666
0.00014494301
0.00095534801
0.00017133369
0.0011192035
0.00020080073
0.0013093008
0.00023344169
0.0015301234
0.00026941492
0.0017866238
0.0020860652
0.00030806182
1.5172892e-05
0.00014400719
2.6433027e-05
0.0002064644
3.8957564e-05
0.00023876759
5.3842243e-05
0.00028550071
7.1293943e-05
0.00033829934
9.181011e-05
0.0004008529
0.00011580195
0.00047413609
0.00014374648
0.00055990922
0.00017613459
0.00066005692
0.00021346753
0.00077676372
0.00025624524
0.0009125703
0.00030495728
0.0010704914
0.0003600783
0.0012541798
0.00042202547
0.0014681763
0.00049109552
0.0017175538
0.0020102163
0.00056694448
2.0301577e-05
0.00012370561
3.8258957e-05
0.00018850702
5.6307653e-05
0.0002207189
7.7694145e-05
0.00026411422
0.00010259772
0.00031339577
0.00013185969
0.00037159093
0.00016609747
0.00043989831
0.00020601378
0.0005199929
0.00025234065
0.00061373006
0.00030584247
0.0007232619
0.00036731132
0.00085110144
0.00043757426
0.0010002285
0.00051752674
0.0011742273
0.00060818713
0.0013775159
0.000710752
0.0016149889
0.0018943265
0.00082664176
2.7440418e-05
9.6265193e-05
5.3580174e-05
0.00016236726
7.8526917e-05
0.00019577215
0.00010698402
0.00023565712
0.00013953094
0.00028084885
0.00017735886
0.000333763
0.00022138491
0.00039587226
0.00027255203
0.00046882578
0.00033182604
0.00055445605
0.00040020916
0.00065487878
0.00047874808
0.00077256253
0.00056856407
0.0009104125
0.00067094084
0.0010718505
0.00078753171
0.001260925
0.00092074705
0.0014817735
0.0017395539
0.0010755197
2.996289e-05
6.6302303e-05
7.0873097e-05
0.00012145705
0.00010971883
0.00015692642
0.00014905445
0.0001963215
0.00019088233
0.00023902096
0.00023750164
0.0002871437
0.00029061236
0.00034276154
0.00035164009
0.00040779805
0.00042189579
0.00048420036
0.00050263106
0.0005741435
0.000595053
0.00068014059
0.00070035149
0.00080511401
0.00081975745
0.00095244456
0.0009546245
0.001126058
0.0011062405
0.0013301575
0.0015678868
0.0012779076
5.3132665e-05
1.3169638e-05
0.00010334783
7.1241893e-05
0.00014493538
0.00011533886
0.00018671346
0.00015454342
0.00023187792
0.0001938565
0.00028208647
0.00023693515
0.0003385655
0.00028628251
0.00040229372
0.00034406983
0.00047392644
0.00041256764
0.00055376195
0.00049430799
0.00064176085
0.00059214169
0.00073762102
0.00070925385
0.00084092553
0.00084914005
0.00095134703
0.0010156365
0.0010681928
0.0012133117
0.0014446396
0.0011914401
-1.9352642e-06
-0.00011831934
0.0001202546
-1.5026277e-05
-0.000141746
0.00015483701
-3.9271434e-05
-0.0001686764
0.00019292156
-6.7586114e-05
-0.00020046759
0.00022878227
-0.00010111614
-0.00023778018
0.00027131021
-0.00014069578
-0.00028144945
0.0003210291
-0.0001872265
-0.00033239815
0.00037892886
-0.00024171228
-0.00039163576
0.00044612155
-0.00030513854
-0.00046026844
0.0005236947
-0.00037842254
-0.00053950946
0.00061279345
-0.00046239566
-0.00063070008
0.0007146732
-0.00055778504
-0.0007353559
0.00083074529
-0.00066526465
-0.00085525538
0.00096273499
-0.0007858351
-0.00099249931
0.0011130698
-0.00092204227
-0.0011493409
0.0012855481
-0.0013288089
0.0014877779
-0.0010810112
-1.8155334e-05
-0.00010016401
-4.1188666e-05
-0.00011871267
-6.9244467e-05
-0.0001406206
-0.00010316684
-0.00016654521
-0.00014388814
-0.00019705889
-0.00019250562
-0.00023283197
-0.0002502891
-0.00027461467
-0.00031869297
-0.00032323189
-0.00039937761
-0.0003795838
-0.00049423394
-0.00044465314
-0.00060540925
-0.00051952477
-0.00073533939
-0.00060542576
-0.00088680281
-0.00070379196
-0.0010629365
-0.0008163656
-0.0012668492
-0.00094542821
-0.0010942845
-0.0015013737
-2.1346502e-05
-7.8817504e-05
-4.7418462e-05
-9.264071e-05
-7.8685504e-05
-0.00010935356
-0.00011605736
-0.00012917336
-0.000160603
-0.00015251325
-0.00021356556
-0.00017986941
-0.0002763761
-0.00021180413
-0.00035066797
-0.00024894002
-0.00043829267
-0.0002919591
-0.00054133958
-0.00034160622
-0.00066216499
-0.00039869935
-0.00080343877
-0.00046415198
-0.00096821385
-0.00053901689
-0.0011600276
-0.00062455182
-0.0013832599
-0.00072219598
-0.00083316012
-0.0016443842
-2.1964571e-05
-5.6852933e-05
-4.9267703e-05
-6.5337578e-05
-8.2387249e-05
-7.6234015e-05
-0.00012219062
-8.936999e-05
-0.00016977245
-0.00010493142
-0.00022642517
-0.0001232167
-0.00029363814
-0.00014459115
-0.00037310361
-0.00016947456
-0.00046672432
-0.00019833839
-0.00057662291
-0.00023170763
-0.00070515624
-0.00027016603
-0.00085494771
-0.0003143605
-0.0010289626
-0.00036500201
-0.0012305981
-0.0004229163
-0.0014633314
-0.00048946264
-0.00056757189
-0.0017289197
-2.4161705e-05
-3.2691228e-05
-5.3510353e-05
-3.5988931e-05
-8.8629081e-05
-4.1115287e-05
-0.00013057071
-4.7428359e-05
-0.00018058129
-5.4920838e-05
-0.00024009032
-6.3707669e-05
-0.00031072308
-7.3958388e-05
-0.00039431406
-8.5883579e-05
-0.0004929204
-9.9732053e-05
-0.00060883957
-0.00011578845
-0.00074463169
-0.00013437392
-0.00090315189
-0.00015584029
-0.0010875706
-0.00018058328
-0.0013015247
-0.00020896219
-0.0015504173
-0.00024057004
-0.00027272944
-0.0018452598
-7.6192797e-06
0.00017406671
-0.00016644743
-1.979641e-05
0.00021240368
-0.00020022655
-3.3777197e-05
0.00024994129
-0.0002359605
-5.0549206e-05
0.00029694336
-0.00028017135
-7.0440954e-05
0.00035161218
-0.00033172044
-9.4052158e-05
0.0004158157
-0.00039220449
-0.00012200977
0.00049081981
-0.0004628622
-0.00015504254
0.0005781868
-0.00054515404
-0.00019398175
0.00067963968
-0.00064070047
-0.00023977616
0.00079710678
-0.00075131237
-0.00029352098
0.00093280745
-0.00087906263
-0.00035651241
0.0010894037
-0.0010264122
-0.00043032704
0.0012702613
-0.0011964467
-0.00051686145
0.0014797862
-0.0013932518
-0.00061810404
0.0017235147
-0.0016222721
0.0020073732
-0.0018898931
-0.00073558409
-3.2430547e-05
-2.6068077e-07
-6.8161509e-05
-2.5796935e-07
-0.00010901934
-2.5745767e-07
-0.0001561954
-2.5229865e-07
-0.00021087791
-2.3833113e-07
-0.00027437347
-2.1210516e-07
-0.00034816105
-1.7080475e-07
-0.00043393173
-1.1290558e-07
-0.00053362443
-3.9349317e-08
-0.00064945792
4.5036382e-08
-0.00078396243
1.3059719e-07
-0.00094000636
2.0363959e-07
-0.0011208374
2.4776789e-07
-0.0013300377
2.3810039e-07
-0.0015707184
1.1063563e-07
-2.8189796e-07
-0.0018431659
-3.3072248e-05
3.2811567e-05
-6.9357191e-05
3.6026974e-05
-0.0001107821
4.1167456e-05
-0.0001585569
4.75225e-05
-0.00021386931
5.507408e-05
-0.00027801394
6.3932522e-05
-0.00035244684
7.426209e-05
-0.00043882484
8.6265095e-05
-0.00053904179
0.0001001776
-0.00065526273
0.00011626598
-0.00078995897
0.00013482683
-0.00094593398
0.00015617865
-0.0011263466
0.00018066035
-0.0013346324
0.00020852392
-0.0015738489
0.00023932716
0.0002712235
-0.0018453543
-2.4285142e-05
5.7096708e-05
-5.3892852e-05
6.5634684e-05
-8.9324879e-05
7.6599483e-05
-0.00013161345
8.9811067e-05
-0.00018198965
0.00010545028
-0.00024186625
0.00012380912
-0.00031284768
0.00014524353
-0.00039674222
0.00017015963
-0.00049557387
0.00019900925
-0.00061159737
0.00023228948
-0.00074731542
0.00027054489
-0.00090550737
0.0003143706
-0.0010892624
0.00036441538
-0.0013021441
0.00042140562
-0.0015491802
0.00048636332
0.00056126691
-0.0018392237
-2.1902451e-05
7.8999159e-05
-4.9145933e-05
9.2878166e-05
-8.2195495e-05
0.00010964905
-0.00012190415
0.00012951972
-0.00016935077
0.0001528969
-0.00022580812
0.00018026647
-0.0002927399
0.00021217531
-0.00037180471
0.00024922443
-0.00046486242
0.00029206697
-0.00057398419
0.00034141124
-0.00070147155
0.00039803225
-0.00084990216
0.00046280121
-0.0010222417
0.00053675489
-0.0012220378
0.00062120178
-0.0014532404
0.00071756589
0.00082615222
-0.0017181257
-2.120277e-05
0.00010020193
-4.7099963e-05
0.00011877536
-7.8150177e-05
0.00014069926
-0.00011525191
0.00016662145
-0.00015946078
0.00019710578
-0.0002120035
0.00023280919
-0.00027429167
0.00027446348
-0.00034793731
0.00032287007
-0.0004347726
0.00037890226
-0.00053687935
0.00044351799
-0.0006566393
0.0005177922
-0.00079681851
0.00060298042
-0.00096067616
0.00070061254
-0.0011521037
0.00081262932
-0.0013765487
0.00094201087
0.0010953577
-0.0016457542
-1.807294e-05
0.00011827487
-4.0998249e-05
0.00014170067
-6.8916129e-05
0.00016861714
-0.00010266676
0.00020037209
-0.00014317918
0.0002376182
-0.00019154923
0.00028117924
-0.00024905019
0.00033196444
-0.00031715069
0.00039097058
-0.00039754642
0.00045929799
-0.00049220235
0.00053817392
-0.0006034067
0.00062899655
-0.00073384637
0.00073342009
-0.00088674073
0.0008535069
-0.0010659973
0.00099188593
-0.0012754836
0.0011514972
0.0013345787
-0.0015147046
-1.8246364e-06
0.00012009951
-1.4845038e-05
0.00015472107
-3.9045869e-05
0.00019281797
-6.7303907e-05
0.00022863012
-0.00010077339
0.00027108768
-0.00014029367
0.00032069952
-0.00018677513
0.0003784459
-0.00024123765
0.00044543309
-0.00030469673
0.00052275707
-0.00037811747
0.00061159466
-0.00046240166
0.00071328073
-0.00055835787
0.00082937631
-0.00066668412
0.00096183314
-0.000788103
0.0011133048
-0.00092406172
0.0012874559
0.0014897674
-0.0010792503
5.317635e-05
-6.6449224e-05
1.3272874e-05
0.00010343126
-0.0001216822
7.1427294e-05
0.00014502665
-0.00015718691
0.00011559152
0.00018680309
-0.00019664222
0.00015486578
0.00023195858
-0.00023942181
0.00019426632
0.00028214646
-0.00028765222
0.00023746434
0.00033858355
-0.00034340991
0.00028697282
0.00040223286
-0.00040861703
0.00034496772
0.00047372609
-0.0004852086
0.00041371537
0.00055332785
-0.00057532967
0.00049572792
0.00064095388
-0.0006814385
0.00059381246
0.00073624563
-0.00080637463
0.00071108288
0.00083871193
-0.00095340955
0.00085094325
0.00094783811
-0.0011263337
0.0010172075
0.0010624004
-0.0013289114
0.001214349
-0.00156486
0.0014407674
0.001186493
2.9967082e-05
-9.6416306e-05
7.0890325e-05
-0.00016260545
0.00010974701
-0.00019604359
0.00014909752
-0.00023599274
0.00019094704
-0.00028127133
0.00023759598
-0.00033430116
0.00029074216
-0.00039655608
0.00035180588
-0.00046968075
0.00042208943
-0.00055549215
0.00050283342
-0.00065607366
0.0005952381
-0.00077384318
0.00070051055
-0.00091164708
0.00081997441
-0.0010728734
0.00095527698
-0.0012616362
0.0011085859
-0.0014822203
-0.0017413674
0.0012850934
2.7443557e-05
-0.00012385986
5.358227e-05
-0.00018874416
7.8530046e-05
-0.00022099137
0.00010699517
-0.00026445786
0.00013955605
-0.00031383221
0.00017740338
-0.00037214849
0.00022145229
-0.00044060499
0.00027264134
-0.0005208698
0.00033192837
-0.00061477918
0.00040030379
-0.00072444908
0.00047880096
-0.00085234034
0.00056853428
-0.0010013804
0.0006708009
-0.00117514
0.00078728355
-0.0013781189
0.00092034235
-0.0016152791
-0.0018951271
0.001074102
2.0300176e-05
-0.00014416004
3.8250512e-05
-0.0002066945
5.6294326e-05
-0.00023903518
7.7678162e-05
-0.0002858417
0.00010258107
-0.00033873512
0.00013184358
-0.000401411
0.00016608141
-0.00047484282
0.00020599317
-0.00056078157
0.00025230352
-0.00066108953
0.00030576567
-0.00077791124
0.00036715917
-0.00091373383
0.00043730524
-0.0010715265
0.00051711782
-0.0012549526
0.00060767553
-0.0014686766
0.00071032656
-0.0017179301
-0.0020115463
0.0008267457
1.5166681e-05
-0.00015932672
2.6413964e-05
-0.00021794178
3.892781e-05
-0.00025154903
5.3800369e-05
-0.00030071426
7.1239714e-05
-0.00035617446
9.1742136e-05
-0.00042191343
0.00011571714
-0.00049881782
0.0001436379
-0.00058870233
0.00017598831
-0.00069343994
0.00021325892
-0.00081518185
0.00025593643
-0.00095641135
0.00030450003
-0.0011200901
0.00035942552
-0.0013098781
0.00042113959
-0.0015303907
0.00048995276
-0.0017867433
-0.0020868316
0.00056523812
1.04403e-05
-0.00016976702
1.6040405e-05
-0.00022354189
2.3409208e-05
-0.00025891783
3.1837471e-05
-0.00030914252
4.1787433e-05
-0.00036612442
5.3416069e-05
-0.00043354206
6.6954012e-05
-0.00051235576
8.2628935e-05
-0.00060437725
0.00010066694
-0.00071147795
0.0001212768
-0.0008357917
0.00014464152
-0.00097977607
0.00017091557
-0.0011463641
0.00020023541
-0.0013391979
0.00023271772
-0.001562873
0.00026858557
-0.0018226112
-0.0021253022
0.00030705617
5.7927739e-06
-0.00017555979
6.3042254e-06
-0.00022405334
8.481396e-06
-0.000261095
1.0514314e-05
-0.00031117544
1.2994409e-05
-0.00036860452
1.5789269e-05
-0.00043633692
1.8931701e-05
-0.00051549819
2.2387198e-05
-0.00060783275
2.6101692e-05
-0.00071519244
2.997706e-05
-0.00083966707
3.3863403e-05
-0.00098366241
3.7550523e-05
-0.0011500512
4.0762712e-05
-0.0013424101
4.3150185e-05
-0.0015652604
4.4473469e-05
-0.0018239345
-0.0021250325
4.4203784e-05
1.3727492e-06
-0.00017693254
-2.503005e-06
-0.00022017758
-5.4611449e-06
-0.00025813686
-9.545306e-06
-0.00030709128
-1.4390068e-05
-0.00036375976
-2.0306076e-05
-0.00043042091
-2.7490386e-05
-0.00050831388
-3.6228963e-05
-0.00059909417
-4.685754e-05
-0.00070456386
-5.9780234e-05
-0.00082674438
-7.5479176e-05
-0.00096796347
-9.4523437e-05
-0.001131007
-0.00011756842
-0.0013193651
-0.0001453251
-0.0015375038
-0.00017850757
-0.001790752
-0.0020835794
-0.00021996075
-2.8658355e-06
-1.0639742e-05
-1.8835315e-05
-2.8983232e-05
-4.1130803e-05
-5.5736018e-05
-7.3230091e-05
-9.4137461e-05
-0.00011906165
-0.00014869924
-0.00018385527
-0.00022545859
-0.00027456241
-0.00033227995
-0.00039951726
-0.00047572345
-2.0339201e-05
-0.00014610823
-4.0722912e-05
-0.00017984284
-6.0790156e-05
-0.00021589326
-8.4456964e-05
-0.00025650455
-0.00011207346
-0.00030410394
-0.00014440526
-0.0003598727
-0.00018223516
-0.0004250323
-0.00022641193
-0.00050097727
-0.000277886
-0.0005892264
-0.00033774673
-0.00069145164
-0.00040729475
-0.00080951461
-0.0004881658
-0.00094554118
-0.0005824771
-0.0011021354
-0.0006928508
-0.0012828781
-0.00082206164
-0.0014930612
-0.0017397106
-0.00097224419
-2.8054953e-05
-0.00011805327
-5.3208943e-05
-0.00015468885
-7.7090635e-05
-0.00019201157
-0.00010506599
-0.00022852919
-0.00013720279
-0.00027196713
-0.00017392189
-0.0003231536
-0.00021565899
-0.0003832952
-0.00026286847
-0.00045376779
-0.00031608618
-0.00053600869
-0.0003759654
-0.00063157242
-0.00044331067
-0.00074216934
-0.00051912979
-0.00086972206
-0.00060471339
-0.0010165518
-0.00070179232
-0.0011857992
-0.0008121655
-0.0013826881
-0.0016174512
-0.00093442489
3.2009714e-05
-2.1067368e-05
-1.0942346e-05
0.00010373417
-1.2451003e-06
-7.0479359e-05
0.00018896726
2.7116572e-05
-0.00011234966
0.00027980225
5.885755e-05
-0.00014969254
0.0003696726
9.7271163e-05
-0.00018714151
0.00045681324
0.00014056613
-0.00022770677
0.00054134156
0.00018905091
-0.00027357923
0.00062359764
0.00024443581
-0.00032669189
0.00070420517
0.00030841013
-0.00038901767
0.00078424888
0.00038271159
-0.00046275529
0.0008652494
0.0004694188
-0.00055041932
0.00094909458
0.00057102226
-0.00065486744
0.0010381234
0.00069024328
-0.00077927213
0.0011352098
0.00083003883
-0.00092712522
0.0012436534
0.00099384718
-0.0011022908
0.0011854302
-0.0013089073
0.0013671305
1.6125063e-05
-3.7192432e-05
5.4891511e-05
-4.0011548e-05
0.00011470903
-3.2700946e-05
0.00019495312
-2.1386538e-05
0.00029751741
-5.2931331e-06
0.00041468832
2.3395223e-05
0.00053893463
6.4804605e-05
0.00066453563
0.00011883481
0.00078885484
0.00018409092
0.00091297516
0.00025859127
0.0010378536
0.00034454031
0.001165611
0.00044326492
0.0013003059
0.00055554834
0.0014482569
0.00068208787
0.0016181303
0.0008239738
0.00098275597
0.0018208044
2.8333563e-06
-4.0025788e-05
5.1113827e-06
-4.2289574e-05
1.8704851e-05
-4.6294414e-05
4.8715066e-05
-5.1396753e-05
0.00010078188
-5.7359947e-05
0.00017863007
-5.445297e-05
0.00028489117
-4.1456491e-05
0.0004214459
-1.7719919e-05
0.00058083825
2.4698558e-05
0.00074750432
9.1925205e-05
0.000910494
0.00018155063
0.0010714248
0.00028233414
0.0012334954
0.00039347769
0.0014035463
0.00051203703
0.0015907993
0.00063672074
0.00076751243
0.0018060429
3.0237927e-06
-4.3049581e-05
6.1641761e-06
-4.5429958e-05
1.01956e-05
-5.0325838e-05
1.5172696e-05
-5.6373849e-05
2.0858015e-05
-6.3045266e-05
3.6332308e-05
-6.9927264e-05
7.1328745e-05
-7.6452928e-05
0.00013594419
-8.2335365e-05
0.00023838665
-7.7743901e-05
0.00037909413
-4.8782279e-05
0.00054493681
1.5707953e-05
0.00070147947
0.00012579148
0.00086932976
0.0002256274
0.0010601363
0.00032123052
0.0012783599
0.00041849709
0.00051292837
0.001532944
-2.344812e-06
-4.0704769e-05
-8.5690294e-06
-3.920574e-05
-1.8022957e-05
-4.087191e-05
-3.082502e-05
-4.3571787e-05
-4.7133754e-05
-4.6736531e-05
-6.7032462e-05
-5.0028555e-05
-9.0375879e-05
-5.3109511e-05
-0.00011728913
-5.5422117e-05
-0.00013882786
-5.6205172e-05
-0.00013261867
-5.4991461e-05
-6.2608474e-05
-5.4302247e-05
8.0506912e-05
-1.7323904e-05
0.00024381812
6.2316195e-05
0.00043065328
0.00013439535
0.00065554813
0.00019360224
0.00023700361
0.00093147289
-4.2251595e-05
1.546826e-06
-8.3334749e-05
1.8774137e-06
-0.00012639391
2.1872495e-06
-0.00017243223
2.4665329e-06
-0.00022185499
2.6862298e-06
-0.00027468723
2.8036814e-06
-0.00033056024
2.7634986e-06
-0.00038848418
2.5018294e-06
-0.00044665217
1.9628123e-06
-0.00050276867
1.1250432e-06
-0.00055702891
-4.2007209e-08
-0.00057250987
-1.8429395e-06
-0.00050676107
-3.4326097e-06
-0.00036805538
-4.3103314e-06
-0.00017689766
2.4445157e-06
2.2305652e-05
3.7800297e-05
-4.0053966e-05
4.1600792e-05
-7.9092877e-05
4.0916325e-05
-0.00011990838
4.3002757e-05
-0.00016342875
4.5986902e-05
-0.00021006709
4.9324565e-05
-0.00025992039
5.2656982e-05
-0.00031275765
5.5600764e-05
-0.00036778138
5.7525555e-05
-0.00042344523
5.7626659e-05
-0.00047792484
5.5604659e-05
-0.00053227221
5.430536e-05
-0.00053931326
5.1981116e-06
-0.00046552399
-7.7221878e-05
-0.00031770422
-0.00015213011
-9.3929053e-05
-0.00022133065
-0.00029114668
0.00021952328
-2.5026414e-06
4.4103434e-05
-8.3274492e-06
4.6741133e-05
-1.7001416e-05
5.1676723e-05
-2.8689475e-05
5.7674961e-05
-4.3591997e-05
6.4227087e-05
-6.1848149e-05
7.0913133e-05
-8.3411463e-05
7.7164079e-05
-0.00010856441
8.2678498e-05
-0.0001278217
7.688395e-05
-0.00011807208
4.5855037e-05
-4.1932562e-05
-2.1834153e-05
0.00010149985
-0.0001382343
0.00025588762
-0.00023160965
0.00043517617
-0.00033141866
0.00064603944
-0.00043219392
-0.00052822761
0.00088312037
3.4453927e-06
4.0658041e-05
7.0909714e-06
4.3095554e-05
1.1669574e-05
4.709812e-05
1.7215834e-05
5.2128701e-05
2.3472342e-05
5.797058e-05
3.9510412e-05
5.4875063e-05
7.5162034e-05
4.1512457e-05
0.00014062722
1.7213312e-05
0.00024376143
-2.6250263e-05
0.00038449584
-9.4879372e-05
0.00054818142
-0.00018551973
0.00069746702
-0.0002875199
0.00086524635
-0.00039938897
0.0010520571
-0.00051822941
0.0012625675
-0.00064270434
-0.00077110042
0.0015054403
3.1535215e-06
3.7504519e-05
5.8359672e-06
4.0413108e-05
1.9844108e-05
3.308998e-05
5.0302161e-05
2.1670647e-05
0.00010285839
5.41435e-06
0.00018117687
-2.3443418e-05
0.0002878679
-6.5178575e-05
0.00042481507
-0.00011973385
0.00058405961
-0.0001854948
0.00074976947
-0.00026058923
0.00091142278
-0.00034717304
0.0010704009
-0.00044649798
0.0012302304
-0.00055921847
0.0013977819
-0.00068578095
0.0015822218
-0.00082714425
-0.00098481006
0.0017959315
1.636068e-05
2.1143839e-05
5.5467876e-05
1.3059128e-06
0.00011565848
-2.7100626e-05
0.00019624729
-5.8918166e-05
0.00029912239
-9.7460743e-05
0.00041661182
-0.00014093285
0.00054106146
-0.00018962822
0.00066660053
-0.00024527292
0.00079066874
-0.00030956301
0.00091431055
-0.00038423104
0.0010384681
-0.00047133059
0.0011652605
-0.00057329035
0.0012987727
-0.00069273069
0.0014454714
-0.00083247967
0.0016141686
-0.00099584147
-0.0011855083
0.0018148669
3.218209e-05
-1.1038251e-05
0.00010415333
-7.0665328e-05
0.00018965176
-0.00011259906
0.0002807434
-0.0001500098
0.00037082736
-0.00018754471
0.0004581222
-0.00022822769
0.00054275399
-0.00027426001
0.00062506187
-0.0003275808
0.00070566084
-0.00039016198
0.00078561777
-0.00046418797
0.00086642628
-0.0005521391
0.00094995173
-0.0006568158
0.0010385374
-0.00078131633
0.0011351394
-0.00092908173
0.0012433203
-0.0011040223
-0.0013113657
0.0013691777
2.350687e-06
-2.2054055e-06
3.2646903e-06
3.5219392e-06
2.8712793e-06
7.5581756e-07
-3.5981339e-06
-1.1229043e-05
-2.3526721e-05
-4.2294936e-05
-6.9799673e-05
-0.00010882654
-0.00016274649
-0.00023553354
-0.00033217962
-0.00046080906
2.3494993e-06
-2.2013307e-06
3.2594959e-06
3.5125783e-06
2.8556521e-06
7.3114989e-07
-3.6351844e-06
-1.1281425e-05
-2.3595407e-05
-4.2374371e-05
-6.9870511e-05
-0.00010884729
-0.00016266407
-0.0002353935
-0.00033253345
-0.00046220676
2.9965898e-06
-2.2346231e-06
5.9890556e-06
1.0845038e-05
1.7566651e-05
2.6803299e-05
3.9516115e-05
5.6903035e-05
8.045642e-05
0.00011199637
0.00015366974
0.00020793681
0.00027756373
0.00036568947
0.00047601618
0.00060541785
2.9898256e-06
-2.2272922e-06
5.9790305e-06
1.0829915e-05
1.7544906e-05
2.6773291e-05
3.9476572e-05
5.6854509e-05
8.0404479e-05
0.00011195718
0.00015367955
0.00020806596
0.00027793388
0.00036644512
0.00047746604
0.00061319838
0.001515466
-0.0035426652
0.0020271992
0.0085149466
-0.0088241425
0.00030919592
0.0012430032
-0.0032309245
0.0019879213
0.0085149466
-0.0022326412
0.00031274086
0.0019199003
-0.0081848782
0.0050007493
0.0031841289
-0.0011266652
0.0044049148
-0.0032782496
0.0077648236
0.0029363445
-0.010701168
0.0080783913
0.0020101233
-0.010088515
0.0012770596
-0.0017378686
-0.0019530445
0.0014908378
0.0034758062
0.0064635058
-0.009939312
-0.0036098146
-0.003863264
0.0074730786
-0.0076460338
0.0034308417
0.0042151921
-0.0016641393
0.0040232951
-0.0023591558
0.0036619023
-0.00021960345
-0.0034422988
0.0073385902
-0.0075918455
0.00025325535
0.00049077008
0.0017225518
-0.0022133218
0.0012006523
-0.0017168523
0.00051620002
0.0062694251
-0.0022710792
-0.0039983459
-0.0010996668
-0.0011329744
-0.0076993318
0.0040895172
-0.0094789081
0.0093903936
8.8514583e-05
0.0007273947
0.0085229873
-0.009250382
3.4114608e-05
-0.0056638975
0.0056297829
0.0046078537
0.0012018605
-0.0058097142
-0.0040534233
-0.0060079525
0.010061376
0.0063750494
-0.002099294
-0.0042757554
0.0014102666
0.0064438304
-0.0078540969
-0.0023097336
0.0055872293
-0.0032774957
0.0066900865
-0.0020822328
0.0020277171
-0.0014516444
-0.00057607271
-0.00017864417
0.0083850728
-0.0082064286
0.0064082422
3.2837299e-05
-0.0064410795
0.0010456202
-0.006130463
0.0050848428
0.0088297131
-0.0074605147
-0.0013691983
0.0076499827
-0.0080960138
0.00044603108
-0.0048035737
0.0058491939
0.0056004569
-0.003267958
-0.002332499
-0.008640415
0.0016877938
0.0069526212
0.0025412703
-0.0037904655
0.0012491952
0.009973525
-0.0043136686
-0.0056598565
0.0077648236
-0.0023350789
0.0056302081
-0.0032951292
0.0080783913
-0.00087413502
0.003741912
-0.002867777
-0.0019457188
0.0066296017
-0.0046838829
-0.009802309
0.0041651581
0.0056371509
-0.0077648236
0.011655494
-0.0038906702
-0.0080783913
0.011757281
-0.0036788894
0.0031865424
-0.00054022786
-0.0026463146
-0.0039148704
0.0017504984
0.002164372
0.0014399346
-0.0027041663
0.0012642317
0.00097403174
0.0011628882
-0.00213692
-0.0031425276
0.0057026939
-0.0025601663
0.00061274708
0.0055396584
-0.0061524055
0.00097170822
-0.0019129873
0.00094127905
-0.00549248
0.0034912408
0.0020012392
-0.010521092
0.0011472042
0.0093738877
0.0085420859
-0.0031210243
-0.0054210616
0.0078394558
0.00070263005
0.0055328382
0.0040963402
-0.0096291784
0.0051801027
0.004359899
-0.0095400017
-0.0024453857
0.0050392347
-0.002593849
0.00072719358
-0.0040230703
0.0032958767
-0.0066377372
0.0068991162
-0.00026137898
0.0042507675
-0.0078750756
0.0036243081
0.0045623508
0.0018411729
-0.0064035237
-0.0010494305
0.0062119506
-0.0051625201
-0.0091334246
0.0071877058
-0.0025883278
0.0068060217
-0.0042176939
0.0018246744
0.0018372279
-0.0046813954
0.0041849493
0.00049644611
0.004844791
0.0062256163
-0.011070407
0.008727411
-0.0080749064
-0.00065250455
0.00052109185
-0.0029134231
0.0049614503
-0.0020480271
0.0067378953
-0.0031388783
-0.003599017
0.0097656391
-0.0088185699
-0.0009470692
0.0077161432
-0.0068510204
-0.00086512279
0.0028741174
-0.0040236534
0.0011495361
-0.002289482
0.00090081459
0.0013886674
0.0013515821
-0.0036613157
-0.012018947
0.0085082372
0.0035107094
0.0023368816
0.0050017086
0.002476764
-0.0091301147
0.0066533507
-0.0044957357
0.0076022429
-0.0031065072
-0.0010024457
-0.0060099327
0.0070123784
0.0029109849
-0.0021721593
-0.00073882563
0.00048795811
0.0082394529
0.0054577231
8.6706727e-05
-0.0055444298
-0.0076517971
0.0030150047
0.0046367924
0.00053041653
0.0036694089
-0.0041998255
0.0031802728
0.0024201842
0.004404729
0.0024284088
-0.0068331378
0.0045930152
-0.0017434076
-0.0028496076
-0.004679869
-0.0053153922
0.0030843835
-0.0018413804
-0.00078700149
-0.0015444895
0.002331491
-0.0028941269
0.0056623735
-0.0027682465
-0.0030250276
0.0078698186
-0.005751655
0.0076129551
-0.0018613001
-0.006016779
-0.0016350181
-5.6585003e-05
0.0077065677
0.0082294987
-0.0076593981
-0.00057010064
-0.0050931163
-0.0025529175
-0.011239103
0.0074395195
0.0037995838
-0.011836283
0.0085940072
0.0032422761
0.0057529116
-0.0025776956
-0.003175216
0.0013707841
-0.003705863
0.0020591529
-0.0052016805
4.6058861e-05
0.0042392846
-0.0042853434
0.0031132581
-0.0041626886
-0.0016623624
0.0042036327
0.0018807437
0.0043886814
0.0065542215
0.0032114176
0.0038765291
-0.0038304703
0.0029627819
0.0070965643
-0.010059346
0.0098703218
-0.0056256473
-0.0042446745
-0.0021961878
0.0048106469
-0.0026144591
-6.5648462e-05
0.001505583
0.0020600375
-0.0010860058
0.00096161094
0.0008449907
-0.0018066016
0.01093572
-0.011114364
0.00087183597
0.00044889038
-0.0013207264
0.0012289818
-0.0002975089
-0.0075015321
0.0080697644
-0.0005682323
-0.0020915604
0.0013840325
0.00070752797
0.0039010798
-0.0036916062
-0.00020947351
-0.0056306372
0.0051330652
0.00049757203
0.0019357654
-0.00096405723
-0.00045263751
0.0039285521
-0.0034759146
-0.0047084852
0.0085182017
-0.0038097165
0.0034718903
0.0065016348
0.0076812774
-0.0034305098
0.003416693
0.0023362186
-0.0035605865
0.0026864515
0.006379351
-0.0073817966
-0.003106155
0.0023191536
0.0056433298
0.0025861689
0.0052594626
-0.010818279
0.0055588168
0.003078058
0.0016861202
-0.0013733793
-0.0031393753
0.0046548413
0.0078049013
-0.0078049013
-0.0022055973
-0.0013553674
0.0068130905
0.00087728169
-0.0037907048
-0.00040633889
0.0063366522
-0.0059303133
-0.0040764875
0.0096093256
-0.0042563442
0.0094364469
0.008392091
-0.0048607522
-0.0035313388
0.0041495675
0.0030573924
-0.0052535802
0.0058350816