/*--------------------------------*- C++ -*----------------------------------*\
| =========                 |                                                 |
| \\      /  F ield         | foam-extend: Open Source CFD                    |
|  \\    /   O peration     | Version:     4.1                                |
|   \\  /    A nd           | Web:         http://www.foam-extend.org         |
|    \\/     M anipulation  |                                                 |
\*---------------------------------------------------------------------------*/
FoamFile
{
    version     2.0;
    format      ascii;
    class       volVectorField;
    location    "0.8";
    object      U;
}
// * * * * * * * * * * * * * * * * * * * * * * * * * * * * * * * * * * * * * //

dimensions      [0 1 -1 0 0 0 0];

internalField   nonuniform List<vector> 
4242
(
(1.0890457 1.1159086 1.0559942e-18)
(1.1897344 0.97911235 3.6013493e-21)
(1.1567795 0.97551313 -6.6697798e-19)
(1.1589634 0.9459435 5.5205011e-19)
(1.1520533 0.92153832 7.3103611e-21)
(1.1460719 0.89244253 3.2581347e-21)
(1.1393705 0.85993223 0)
(1.1319389 0.82389604 1.8932405e-19)
(1.1238015 0.78425949 -3.0172387e-19)
(1.1150356 0.74107326 1.1595005e-19)
(1.1058309 0.69456093 -7.3782263e-20)
(1.0964809 0.64515507 6.0294927e-20)
(1.0874402 0.5934716 5.8481441e-21)
(1.0797291 0.54000755 -7.8249383e-21)
(1.0750566 0.48544779 -1.521866e-20)
(1.0726135 0.43373911 0)
(1.2572194 1.0349862 0)
(1.3749623 0.85170088 -7.9130294e-21)
(1.3313263 0.86511481 7.8202042e-19)
(1.328666 0.83797385 -6.4412107e-19)
(1.3166189 0.81765727 -1.155294e-20)
(1.3055351 0.79236265 3.8133267e-19)
(1.2932728 0.76448982 -1.7924792e-20)
(1.2800594 0.73359675 -4.6490678e-19)
(1.2659234 0.69963694 3.6266223e-20)
(1.2509217 0.66267 1.3685586e-19)
(1.2351853 0.62288463 0)
(1.2189201 0.58063823 -9.9302515e-21)
(1.2024558 0.53645844 -1.0095503e-20)
(1.1865145 0.49078559 -5.4585502e-20)
(1.1722269 0.44399575 7.0440502e-20)
(1.1585988 0.39841497 8.7392014e-21)
(1.4262499 0.94742238 -2.1764991e-20)
(1.5682097 0.6985414 -2.4631108e-18)
(1.5114267 0.74159424 1.0035671e-18)
(1.5057317 0.71422009 -6.9040534e-21)
(1.4885124 0.69899736 -6.0995871e-19)
(1.4719488 0.67824356 4.9574764e-19)
(1.4534409 0.65564527 -6.7277756e-21)
(1.4333833 0.63033319 1.0381537e-20)
(1.4117882 0.60232056 -4.6065764e-21)
(1.3887692 0.57163636 -1.1896605e-20)
(1.3645425 0.53842545 1.1942371e-19)
(1.3394323 0.50298401 -8.5965713e-20)
(1.3138818 0.46578148 -1.3131897e-19)
(1.2885015 0.42737252 1.0975314e-19)
(1.2639192 0.38854804 -1.3210317e-20)
(1.2405565 0.35021115 -3.5441422e-20)
(1.5763196 0.82601352 -3.9584919e-21)
(1.7376055 0.49848167 -3.1698732e-21)
(1.6694173 0.57977671 -6.0341648e-19)
(1.6627279 0.54779039 5.0840794e-19)
(1.6411708 0.53948232 -6.5182302e-21)
(1.6201286 0.52428647 3.0843491e-19)
(1.5963647 0.50831711 -2.308218e-19)
(1.5703867 0.49015086 -3.6320056e-19)
(1.542152 0.46993323 2.10102e-20)
(1.511801 0.44764169 4.3750651e-19)
(1.4796129 0.42336215 -1.6497986e-19)
(1.4460267 0.39729429 0)
(1.4116468 0.36976579 9.1725073e-21)
(1.3771659 0.34127057 -6.7064481e-20)
(1.3429105 0.31294962 3.2012329e-20)
(1.308878 0.28480549 -6.1794638e-20)
(1.6745385 0.6686875 3.958492e-21)
(1.8473806 0.25574527 -8.5394579e-19)
(1.7719876 0.38236527 7.086964e-19)
(1.765644 0.34138798 -4.1037409e-21)
(1.7413355 0.34259094 1.0132869e-20)
(1.7178344 0.33344199 -2.8456969e-21)
(1.691065 0.32520576 -2.8156795e-19)
(1.6616597 0.31547224 6.1577211e-21)
(1.6295111 0.30462704 1.5935756e-19)
(1.5947568 0.29256759 -1.1854484e-19)
(1.5576857 0.27930813 9.5687711e-20)
(1.5187744 0.26491847 0)
(1.4786946 0.24952522 5.1606968e-20)
(1.438235 0.2332934 -3.6012456e-20)
(1.3978636 0.21670274 1.0739517e-20)
(1.3579612 0.1976238 0)
(1.7109694 0.48243524 -5.6735509e-19)
(1.8824502 -0.0028705209 2.396141e-19)
(1.8103772 0.16246113 3.724057e-19)
(1.8029541 0.11459448 -2.9884326e-19)
(1.7783608 0.12578488 6.2455305e-22)
(1.7543377 0.12300515 9.8910178e-20)
(1.7269745 0.12298891 7.6370467e-20)
(1.696855 0.12228713 -3.230196e-21)
(1.6638555 0.1215144 -2.8858974e-21)
(1.6280928 0.12049482 -9.7992848e-20)
(1.5898358 0.11917422 9.8528462e-20)
(1.5495431 0.11748538 -3.5276057e-21)
(1.5078724 0.11536454 -9.0995579e-21)
(1.4656224 0.11268714 -1.9453085e-20)
(1.4232719 0.11004022 -1.237353e-23)
(1.3817106 0.10349721 7.9037465e-21)
(1.6805159 0.28444628 -2.8309087e-19)
(1.8410464 -0.25178281 -2.2258428e-19)
(1.7839023 -0.064340197 5.6251946e-19)
(1.7733116 -0.11083201 -2.9969906e-19)
(1.7510571 -0.09261119 1.2510785e-19)
(1.7282276 -0.088340998 1.1481463e-23)
(1.7025258 -0.080400026 1.4887269e-19)
(1.6742149 -0.072127387 -6.5691081e-20)
(1.6432257 -0.062964045 -8.1882025e-21)
(1.6096541 -0.053089426 2.9559386e-20)
(1.5737421 -0.04262501 -4.5689704e-20)
(1.5359028 -0.031766611 3.4622985e-20)
(1.4967291 -0.02075558 -9.2337605e-21)
(1.4569408 -0.010031323 -3.7106254e-20)
(1.4169611 0.0011126514 1.3741176e-20)
(1.3775007 0.0068340495 1.6544465e-20)
(1.5801793 0.093471924 -6.2972478e-21)
(1.7263034 -0.46918333 8.7209585e-19)
(1.6936689 -0.28039841 -7.1796583e-19)
(1.6799964 -0.31672627 5.5616939e-19)
(1.6618187 -0.29518189 -4.6477014e-19)
(1.6420486 -0.2836344 0)
(1.620135 -0.26846705 2.7774012e-19)
(1.5960561 -0.25189589 -2.2027482e-19)
(1.5697976 -0.23360154 -4.5265516e-21)
(1.541443 -0.21374209 0)
(1.5111973 -0.19251389 -1.7157775e-20)
(1.4794001 -0.17023968 8.1774666e-21)
(1.4465371 -0.1473296 -5.2755392e-20)
(1.4131778 -0.12454025 9.5790079e-20)
(1.3797467 -0.10117101 -6.4129534e-20)
(1.3465725 -0.083057697 -1.6404027e-20)
(1.4092344 -0.069754201 4.1028074e-21)
(1.5443617 -0.63344155 -3.2492334e-21)
(1.5434168 -0.46681021 0)
(1.5301385 -0.48622665 1.1503929e-20)
(1.5170392 -0.46432773 5.8051767e-21)
(1.5023319 -0.44627933 3.228757e-19)
(1.4862488 -0.42507776 -2.7239893e-19)
(1.4687202 -0.40163151 0)
(1.4497638 -0.37581463 1.3183545e-21)
(1.4294474 -0.34777729 -1.2920005e-20)
(1.4079151 -0.31778145 1.1118098e-20)
(1.3853945 -0.2862472 6.0253185e-21)
(1.3622169 -0.25369353 1.1785099e-20)
(1.3387403 -0.22104431 6.8413426e-20)
(1.3153729 -0.18780052 -7.7382258e-20)
(1.2920416 -0.1589462 4.0513212e-20)
(1.1662226 -0.1805853 0)
(1.3003591 -0.71895059 1.3077367e-18)
(1.336863 -0.60193814 -2.1218049e-18)
(1.3326562 -0.60289543 8.5542518e-19)
(1.3263411 -0.58226646 -5.8021528e-21)
(1.3188429 -0.55983584 -1.6460582e-20)
(1.3106115 -0.53445325 4.1492633e-19)
(1.301764 -0.50643018 -3.3297662e-19)
(1.2923926 -0.47569915 -2.1852922e-19)
(1.2825486 -0.44240525 1.977147e-19)
(1.2722831 -0.40685163 0)
(1.2616556 -0.36950934 -1.1321095e-19)
(1.2507575 -0.33093813 6.2523349e-20)
(1.2396165 -0.29203247 0)
(1.2283808 -0.25245632 0)
(1.2166784 -0.21496377 0)
(0.86560983 -0.21900867 2.5111448e-18)
(1.0199664 -0.7212468 -1.0167814e-18)
(1.09411 -0.66810875 0)
(1.1116365 -0.65908999 -4.2595085e-21)
(1.1172706 -0.64093018 -4.9174225e-19)
(1.1196482 -0.61732529 4.2171802e-19)
(1.1206922 -0.59012773 2.9854159e-19)
(1.1212581 -0.56009233 -6.5443153e-21)
(1.1218568 -0.52730953 -2.0702452e-19)
(1.1227122 -0.49196223 1.0314602e-20)
(1.1238718 -0.45441843 0)
(1.1252564 -0.41522386 -1.5191052e-19)
(1.1266893 -0.37502381 2.7640137e-20)
(1.127793 -0.33473705 8.7505131e-20)
(1.1281227 -0.29461268 0)
(1.1303685 -0.24976971 8.5687908e-21)
(0.25844075 0.066465731 8.2782167e-21)
(0.48142761 -0.39388327 1.4248251e-18)
(0.65460528 -0.49710802 -5.7825859e-19)
(0.74614466 -0.53764525 -4.4937638e-19)
(0.79411555 -0.54986459 3.680584e-19)
(0.82539561 -0.54596156 -2.9304434e-19)
(0.850517 -0.53246469 2.4214415e-19)
(0.87340273 -0.51308504 1.7056523e-19)
(0.89586398 -0.48958177 -1.5140874e-19)
(0.91866078 -0.46285094 0)
(0.94183534 -0.43351894 0)
(0.96495043 -0.4021727 0)
(0.98729695 -0.36938938 8.7864861e-21)
(1.0079954 -0.33587738 0)
(1.0257515 -0.30289406 4.8317077e-20)
(1.0440344 -0.26375942 -8.3588691e-20)
(0.69512039 -0.98996148 2.9259109e-19)
(0.86657325 -0.95454248 2.5602807e-22)
(0.8838441 -0.99745071 -1.6811734e-19)
(0.88353567 -0.97134876 1.3897502e-19)
(0.88296401 -0.94618642 2.0974952e-22)
(0.88258046 -0.91706727 3.061522e-21)
(0.88261043 -0.88402089 0)
(0.88324643 -0.84681435 2.9590176e-20)
(0.88463326 -0.8052695 -3.6379798e-20)
(0.88694578 -0.7594436 1.4503227e-20)
(0.89032892 -0.7096429 -3.1447047e-21)
(0.89486546 -0.65642499 2.5685295e-21)
(0.90069909 -0.60051286 -6.6856561e-21)
(0.90819496 -0.54262753 2.7756068e-21)
(0.91692504 -0.48412014 2.6446786e-21)
(0.92327298 -0.4297603 0)
(0.55038079 -0.94824163 0)
(0.62592748 -0.88808119 7.0362018e-22)
(0.62093007 -0.8768715 -9.1112872e-20)
(0.62789413 -0.85720478 7.49376e-20)
(0.63589898 -0.83545263 9.7225847e-22)
(0.64567384 -0.81076095 -6.7906709e-20)
(0.65728968 -0.7828352 -5.1422197e-21)
(0.67082322 -0.75144234 1.0317328e-19)
(0.68632083 -0.71643177 -2.3346517e-21)
(0.70377442 -0.67776535 -3.7909041e-20)
(0.72309258 -0.63555846 0)
(0.74408789 -0.59011184 5.1005709e-21)
(0.76654488 -0.54188171 2.838353e-21)
(0.79031558 -0.49138325 3.2332992e-20)
(0.81494926 -0.43932902 -4.0434744e-20)
(0.83840879 -0.38766 -6.7365228e-21)
(0.36219831 -0.81684609 -3.2944397e-21)
(0.41110644 -0.7790454 7.9261913e-19)
(0.41545862 -0.76407679 -3.2893938e-19)
(0.4261479 -0.74587115 2.7713082e-21)
(0.43907897 -0.72573787 2.3054497e-19)
(0.45445502 -0.70320319 -1.8617682e-19)
(0.47244097 -0.67794812 3.0926509e-21)
(0.49318419 -0.64973631 -5.042103e-21)
(0.51678581 -0.61841962 6.7241872e-22)
(0.54326317 -0.58396478 6.5321536e-21)
(0.57250945 -0.54648726 -6.8153435e-20)
(0.6042899 -0.50626955 4.9587833e-20)
(0.63834524 -0.46373213 8.7999741e-20)
(0.67449759 -0.41940396 -7.4151675e-20)
(0.7121221 -0.37414707 9.1962487e-21)
(0.74847277 -0.32978329 2.9846656e-20)
(0.20307094 -0.6343788 1.6995178e-21)
(0.23048871 -0.60904849 1.4015488e-21)
(0.24071997 -0.59380348 2.6441192e-19)
(0.25482381 -0.57798822 -2.2201974e-19)
(0.27206253 -0.56098952 3.1090184e-21)
(0.29251723 -0.54238203 -1.4987226e-19)
(0.31637579 -0.52187955 1.122207e-19)
(0.3438087 -0.4992881 1.9376156e-19)
(0.37491637 -0.47449483 -3.5268049e-21)
(0.40967373 -0.44747853 -2.5301938e-19)
(0.44787886 -0.41832676 9.8291241e-20)
(0.48916266 -0.38723806 0)
(0.53311722 -0.35449567 -6.1836402e-21)
(0.57933138 -0.32047966 5.0286921e-20)
(0.62662036 -0.28588502 -2.3951435e-20)
(0.67138146 -0.25197704 5.2454843e-20)
(0.092293174 -0.42628232 -1.7094411e-21)
(0.10518065 -0.40137686 3.979935e-19)
(0.11859066 -0.38487789 -3.2852429e-19)
(0.1353554 -0.37040081 1.9062056e-21)
(0.15575055 -0.35634092 -4.878995e-21)
(0.17992802 -0.34203469 1.428856e-21)
(0.20811583 -0.32712923 1.5100691e-19)
(0.24052783 -0.3114207 1.5762831e-21)
(0.27729661 -0.2947957 -8.8997461e-20)
(0.31840739 -0.27720923 7.2755668e-20)
(0.3636483 -0.25867561 -5.8653387e-20)
(0.41264772 -0.23925007 0)
(0.46502641 -0.21898922 -3.6773104e-20)
(0.52029816 -0.19793286 2.5765197e-20)
(0.57651841 -0.17631578 -8.3754602e-21)
(0.62794751 -0.15516044 0)
(1.4276107 -0.94807068 0)
(1.5695666 -0.69915704 1.2243472e-18)
(1.5129073 -0.74218638 -1.9858017e-18)
(1.5073048 -0.71489149 8.135089e-19)
(1.4902589 -0.69971807 5.49714e-21)
(1.4738688 -0.67903646 1.7240949e-21)
(1.455518 -0.65649676 3.6835913e-19)
(1.435555 -0.63121724 -3.0634899e-19)
(1.4139405 -0.60318774 -2.1358533e-19)
(1.3907347 -0.57241578 1.5559806e-19)
(1.3661231 -0.53903044 0)
(1.3404537 -0.50333658 -7.3713308e-20)
(1.3142859 -0.46586038 5.5002488e-20)
(1.2884662 -0.42722716 0)
(1.2639611 -0.38812779 0)
(1.2412296 -0.34943449 0)
(0.035765413 -0.25221836 2.5498709e-19)
(0.044175791 -0.21736335 -1.0489294e-19)
(0.061840373 -0.19640778 -1.7174278e-19)
(0.083011186 -0.18027676 1.4062785e-19)
(0.10745794 -0.16652629 1.4314455e-21)
(0.13531467 -0.15414982 -4.8333677e-20)
(0.16677118 -0.14263251 -3.9916924e-20)
(0.20199318 -0.13167032 4.7290568e-22)
(0.24107627 -0.12106043 5.1843328e-22)
(0.28400294 -0.1106509 5.7277784e-20)
(0.33060198 -0.10033242 -5.9931206e-20)
(0.38052676 -0.089996383 1.032348e-21)
(0.43326374 -0.07951794 5.274032e-21)
(0.48811101 -0.068725962 1.3486313e-20)
(0.54396945 -0.057407343 9.2780147e-24)
(0.5988735 -0.04574053 -6.5276303e-21)
(0.036160477 0.25063218 1.2675204e-19)
(0.044701542 0.2151237 1.0465292e-19)
(0.06260391 0.19437343 -2.5813333e-19)
(0.084073611 0.17862733 1.4083658e-19)
(0.10884059 0.16531862 -5.942763e-20)
(0.13702301 0.15339387 -5.7065278e-24)
(0.16879411 0.14230973 -7.7580181e-20)
(0.20429915 0.13173927 3.3048314e-20)
(0.24360925 0.12145979 3.496037e-21)
(0.28668066 0.11130375 -1.8382566e-20)
(0.33332054 0.10115354 2.6827899e-20)
(0.38317274 0.090903318 -2.2552659e-20)
(0.4357232 0.080444285 5.2715158e-21)
(0.49023745 0.06964225 2.6082614e-20)
(0.54546793 0.058381952 -9.9260585e-21)
(0.59919914 0.047080953 -1.3228226e-20)
(0.092695131 0.42736291 2.679275e-21)
(0.10558224 0.40271473 -4.0124148e-19)
(0.11917721 0.3864503 3.28864e-19)
(0.13614528 0.37212153 -2.6723232e-19)
(0.15673581 0.35812721 2.2263591e-19)
(0.18109188 0.34380847 0)
(0.20943061 0.32881602 -1.4642939e-19)
(0.24195293 0.31294849 1.1604049e-19)
(0.27877576 0.29609389 2.3727007e-21)
(0.31986541 0.27820714 0)
(0.36499059 0.25930011 1.0296124e-20)
(0.41376729 0.2394215 -5.1120842e-21)
(0.4658065 0.21860984 3.5960436e-20)
(0.52055509 0.19684763 -6.7883699e-20)
(0.57587036 0.17423222 4.6057165e-20)
(0.62595958 0.151671 1.2670665e-20)
(0.20355535 0.63651418 -1.6988906e-21)
(0.2310597 0.61138775 1.4010355e-21)
(0.24134326 0.5962706 0)
(0.25542744 0.58048337 -4.6719704e-21)
(0.27259204 0.5634226 -2.292881e-21)
(0.29291686 0.54467246 -1.4954616e-19)
(0.31658295 0.5239531 1.2641356e-19)
(0.34375156 0.50107534 0)
(0.37451115 0.47593103 -1.2455157e-21)
(0.40881798 0.44850539 6.5355844e-21)
(0.44644233 0.41889631 -6.6082123e-21)
(0.48700861 0.38730979 -2.9596871e-21)
(0.53022076 0.3539942 -7.7265704e-21)
(0.57592047 0.31918504 -4.6554543e-20)
(0.62273284 0.28342718 5.3468076e-20)
(0.66511974 0.24862156 -2.9198856e-20)
(0.36231499 0.81827168 0)
(0.41151476 0.78047836 -3.9851465e-19)
(0.41579359 0.76557984 6.591297e-19)
(0.42633922 0.74734762 -2.7016457e-19)
(0.43905357 0.72710713 2.2825241e-21)
(0.45413659 0.70439156 5.7580194e-21)
(0.47174915 0.67888568 -1.6149459e-19)
(0.49203609 0.65035715 1.2922444e-19)
(0.51510026 0.61866492 9.7231243e-20)
(0.54096277 0.58379221 -8.8504507e-20)
(0.56951836 0.54588991 0)
(0.60057598 0.50528476 6.1233045e-20)
(0.63413978 0.46238086 -3.4422131e-20)
(0.67063091 0.41760795 0)
(0.70937306 0.37222155 0)
(0.74411782 0.33035105 0)
(0.54994515 0.94857805 -2.0798425e-19)
(0.62591573 0.88826692 8.9373767e-20)
(0.62078186 0.87710629 0)
(0.62760561 0.85736125 -2.0469451e-22)
(0.63539896 0.83546393 7.5365524e-20)
(0.64489786 0.81056456 -6.3573062e-20)
(0.65618032 0.78237446 -6.0556215e-20)
(0.66933786 0.75067014 -4.4804126e-21)
(0.68444635 0.71531775 4.8411083e-20)
(0.70154726 0.67630967 -3.9052029e-21)
(0.72062492 0.63381354 0)
(0.74162782 0.58819464 5.5962398e-20)
(0.76461059 0.53995619 -7.7423705e-21)
(0.78975627 0.4897389 -3.5654656e-20)
(0.81651239 0.43881929 0)
(0.84273401 0.38938452 -3.1243649e-21)
(0.69368975 0.9891645 1.06291e-20)
(0.86598628 0.95380121 4.522336e-19)
(0.88324659 0.99702962 -1.8021829e-19)
(0.88282692 0.97081018 -1.2529881e-19)
(0.88209956 0.94552961 1.0350088e-19)
(0.88151647 0.91624908 -6.5751575e-20)
(0.88131573 0.88301046 4.9495318e-20)
(0.8817127 0.84560035 2.9425577e-20)
(0.88289004 0.80386913 -2.8761402e-20)
(0.8850793 0.75791576 0)
(0.88850235 0.70810749 0)
(0.89334045 0.65507653 0)
(0.89985551 0.59961727 3.4350393e-21)
(0.90847422 0.5425265 0)
(0.9185452 0.4851708 -8.0798702e-21)
(0.92545354 0.43176183 1.8054371e-20)
(0.2595315 -0.066239921 9.0352143e-19)
(0.48263172 0.39491089 3.3647125e-21)
(0.65598327 0.49821752 -5.6904953e-19)
(0.74760776 0.53882203 4.6972566e-19)
(0.79566311 0.55111286 6.9545304e-21)
(0.82705594 0.54730605 2.4472601e-21)
(0.85231163 0.533926 0)
(0.8753286 0.51466829 1.7878459e-19)
(0.89788192 0.49126993 -2.9122073e-19)
(0.92068555 0.46460074 1.1405695e-19)
(0.94373001 0.43526144 -8.151047e-20)
(0.96652953 0.40382386 6.6615672e-20)
(0.98834982 0.37086157 5.1529342e-21)
(1.0082693 0.33720449 -1.0316336e-20)
(1.0253886 0.30351231 -2.5214454e-20)
(1.0453513 0.25935924 0)
(0.86742691 0.21952961 0)
(1.0216848 0.72241949 -7.8834556e-21)
(1.0958189 0.66913488 7.9318095e-19)
(1.1133532 0.6601735 -6.5174226e-19)
(1.1190584 0.64206292 -1.1453748e-20)
(1.121538 0.61852768 3.9498995e-19)
(1.1226938 0.59140526 -1.4757943e-20)
(1.123353 0.56143296 -4.9112998e-19)
(1.1239897 0.52868177 3.5170952e-20)
(1.1247858 0.49331286 1.4848749e-19)
(1.1257505 0.45567411 0)
(1.126787 0.41629851 -1.1460096e-20)
(1.1277544 0.37581318 -1.2420759e-20)
(1.128347 0.33517361 -7.0277925e-20)
(1.1284818 0.29406981 9.1732154e-20)
(1.1282208 0.25302298 1.1519825e-20)
(1.1681423 0.18098051 -2.4523808e-20)
(1.3022113 0.71991334 -2.6496518e-18)
(1.3387232 0.6027548 1.0784831e-18)
(1.3345598 0.60380687 -7.3242795e-21)
(1.3283482 0.5832228 -6.6200388e-19)
(1.3209696 0.56086045 5.3795488e-19)
(1.3128549 0.53554387 -7.2034739e-21)
(1.3040894 0.50757067 1.1168077e-20)
(1.2947261 0.47685886 -5.1235366e-21)
(1.2847745 0.44353869 -1.2962354e-20)
(1.2742538 0.40790478 1.3577357e-19)
(1.2632241 0.37043333 -9.7581189e-20)
(1.2518403 0.33170033 -1.5400801e-19)
(1.2402314 0.29271971 1.2871064e-19)
(1.2288103 0.2528269 -1.6721484e-20)
(1.2165086 0.21782565 -4.6124664e-20)
(1.4111892 0.069993954 -4.1170923e-21)
(1.5462758 0.63416025 -3.2606864e-21)
(1.5453597 0.46739767 -6.3053004e-19)
(1.5321501 0.4869187 5.3085647e-19)
(1.5191707 0.46505511 -6.7265306e-21)
(1.5045906 0.44706905 3.2414627e-19)
(1.4886225 0.42592501 -2.4240468e-19)
(1.4711601 0.40252234 -3.8452293e-19)
(1.4521789 0.37672505 2.0484753e-20)
(1.4317037 0.34867358 4.6664996e-19)
(1.4098521 0.31862708 -1.7641886e-19)
(1.3868688 0.28701335 0)
(1.3631729 0.25437096 1.0316653e-20)
(1.3392575 0.22171747 -7.505864e-20)
(1.3157511 0.18813789 3.5917078e-20)
(1.2924013 0.16078641 -7.1133774e-20)
(1.5820925 -0.093406104 4.1009337e-21)
(1.7282017 0.46963777 -8.6847012e-19)
(1.6956171 0.28075215 7.2034445e-19)
(1.6820284 0.31716962 -4.2256594e-21)
(1.6639824 0.29565398 1.0374699e-20)
(1.6443469 0.28415724 -2.8787517e-21)
(1.6225482 0.26903803 -2.8771906e-19)
(1.5985238 0.25250627 5.7047779e-21)
(1.5722137 0.23423791 1.6298056e-19)
(1.5436573 0.21438648 -1.2211954e-19)
(1.5130383 0.1931496 9.8585995e-20)
(1.4807272 0.17085854 0)
(1.447317 0.14794861 5.3889697e-20)
(1.4135385 0.12523339 -3.7697723e-20)
(1.3799794 0.10163615 1.1690868e-20)
(1.3470055 0.085034728 0)
(1.682339 -0.28454784 -5.7228356e-19)
(1.8428708 0.25197523 2.4112693e-19)
(1.7858002 0.064473808 3.7465945e-19)
(1.7753011 0.1110177 -3.0060903e-19)
(1.7531902 0.092821483 5.4694658e-22)
(1.7305031 0.08858189 9.9511907e-20)
(1.7049191 0.080675409 7.6927738e-20)
(1.6766568 0.072434587 -3.2065918e-21)
(1.6455988 0.063302123 -2.8652916e-21)
(1.6117965 0.053457208 -9.8892448e-20)
(1.5754746 0.04302403 9.9546641e-20)
(1.5370882 0.032204167 -3.503933e-21)
(1.4973544 0.021254833 -9.2615853e-21)
(1.4571674 0.010598754 -1.9755022e-20)
(1.4170693 -0.00074401749 -1.2389347e-23)
(1.3779199 -0.0051230791 8.092841e-21)
(1.7126875 -0.48268854 -2.8228719e-19)
(1.8841762 0.0028235478 -2.225083e-19)
(1.8121993 -0.16252737 5.6245245e-19)
(1.8048699 -0.11465563 -2.9970176e-19)
(1.7804325 -0.12582824 1.251149e-19)
(1.7565595 -0.12304401 1.1545359e-23)
(1.7293197 -0.12301166 1.4872313e-19)
(1.6992491 -0.12228955 -6.5664118e-20)
(1.6661745 -0.12148382 -8.1687675e-21)
(1.630168 -0.1204148 2.9418463e-20)
(1.591484 -0.11902451 -4.5604052e-20)
(1.5506307 -0.11724372 3.4401701e-20)
(1.5084004 -0.11501462 -9.1245221e-21)
(1.4657691 -0.11228924 -3.6759416e-20)
(1.4233373 -0.10972708 1.3595921e-20)
(1.3821785 -0.10206534 1.6118808e-20)
(1.6761521 -0.6690796 -6.1537373e-21)
(1.8490021 -0.25600425 8.6270008e-19)
(1.7737225 -0.38261499 -7.1068426e-19)
(1.7674727 -0.34167479 5.4986209e-19)
(1.7433299 -0.34287525 -4.596936e-19)
(1.7199857 -0.3337482 0)
(1.6933468 -0.32551798 2.7346393e-19)
(1.663996 -0.31577813 -2.1699886e-19)
(1.631776 -0.30490071 -4.2494981e-21)
(1.5967791 -0.29277496 0)
(1.5592811 -0.27940969 -1.6608938e-20)
(1.5198106 -0.2648787 7.7869138e-21)
(1.4791755 -0.24934377 -5.0476978e-20)
(1.4383434 -0.23306308 9.2002933e-20)
(1.3979528 -0.21640532 -6.0977857e-20)
(1.3584521 -0.19662259 -1.5438029e-20)
(1.5778218 -0.82653782 3.9696313e-21)
(1.7391151 -0.49892423 -3.1789255e-21)
(1.6710447 -0.58020566 0)
(1.6644516 -0.54827855 -2.8202233e-21)
(1.6430648 -0.53999472 -5.503307e-21)
(1.6221872 -0.52484553 2.9205407e-19)
(1.5985641 -0.50890729 -2.4764972e-19)
(1.5726546 -0.49075153 0)
(1.5443654 -0.47050586 1.7471585e-20)
(1.5137897 -0.44813381 1.1959658e-20)
(1.4811886 -0.4237125 1.0643471e-20)
(1.4470465 -0.39745159 -2.0655376e-20)
(1.4120973 -0.36973351 1.1132519e-20)
(1.3772323 -0.34113416 6.2284213e-20)
(1.3430176 -0.31265337 -6.9398977e-20)
(1.3094382 -0.28404318 3.6387869e-20)
(1.2583786 -1.0357084 2.4792622e-18)
(1.3760845 -0.8524542 -1.0160859e-18)
(1.3325821 -0.86582479 0)
(1.3300064 -0.83877533 -4.5593288e-21)
(1.3181352 -0.81852639 -4.8325607e-19)
(1.3072373 -0.79332575 4.1512476e-19)
(1.2951576 -0.76554037 2.8682637e-19)
(1.2820816 -0.73471138 -9.4086684e-21)
(1.2679855 -0.70076446 -1.9596249e-19)
(1.2528644 -0.66373088 9.3797343e-21)
(1.2367949 -0.62377282 0)
(1.2199702 -0.58124071 -1.2976532e-19)
(1.2028106 -0.53669197 2.7310708e-20)
(1.1863118 -0.4906049 7.1776362e-20)
(1.1720266 -0.44329306 0)
(1.1588929 -0.39720678 5.666213e-21)
(1.0899862 -1.1165243 1.0887469e-20)
(1.1905275 -0.97987976 1.700057e-18)
(1.1577302 -0.97619729 -6.9226815e-19)
(1.1599898 -0.94672331 -5.2631854e-19)
(1.1532607 -0.92239674 4.3186622e-19)
(1.147484 -0.89341196 -3.3137091e-19)
(1.1410009 -0.86101974 2.7279781e-19)
(1.1337649 -0.82509291 1.8306404e-19)
(1.1257501 -0.78552772 -1.6206794e-19)
(1.1169648 -0.74234271 0)
(1.1075213 -0.6957216 0)
(1.0976557 -0.6460627 0)
(1.0878592 -0.59397748 5.5924267e-21)
(1.07939 -0.54003127 0)
(1.0743905 -0.48508775 3.0424649e-20)
(1.0724015 -0.43286426 -4.8984707e-20)
(-0.26903003 0.42194145 1.01966e-19)
(0.12052195 -0.076679135 3.9247959e-22)
(0.30424911 -0.22650981 -5.9129244e-20)
(0.43322505 -0.30490307 4.8444364e-20)
(0.53084812 -0.34539245 8.0595654e-22)
(0.60666164 -0.36280707 2.1716536e-21)
(0.66690095 -0.3665438 0)
(0.71630547 -0.36237705 3.1465729e-20)
(0.75820816 -0.3538233 -5.3208142e-20)
(0.79475762 -0.34299547 2.4652499e-20)
(0.82734817 -0.33105669 -2.5798655e-20)
(0.85685164 -0.31843641 2.111648e-20)
(0.8837442 -0.30499996 -2.7671378e-21)
(0.90839953 -0.29018418 -3.7234619e-21)
(0.93034793 -0.2741189 -1.4460236e-20)
(0.95348422 -0.25387302 0)
(-0.12447306 0.32303701 0)
(-0.16654286 0.25821857 -9.1871113e-22)
(-0.039781786 0.12700914 9.8720841e-20)
(0.10133587 -0.0057735247 -8.0704498e-20)
(0.24209068 -0.12805289 -1.3633278e-21)
(0.36444184 -0.21455364 5.2345189e-20)
(0.46798262 -0.26766373 6.3509295e-22)
(0.55626364 -0.29810178 -7.1715811e-20)
(0.63035 -0.31357866 2.2331241e-21)
(0.69164846 -0.31914824 2.5285131e-20)
(0.7420767 -0.31806324 0)
(0.78322522 -0.31231474 -2.1380984e-21)
(0.81648195 -0.30298432 -4.0031229e-21)
(0.84353748 -0.29037815 -1.9272292e-20)
(0.86594655 -0.27470945 2.6306494e-20)
(0.88839384 -0.25415933 2.4189626e-21)
(-0.12121273 0.39019755 -1.4632808e-21)
(-0.1664003 0.31860389 -2.934413e-19)
(-0.14086905 0.29486405 1.2048204e-19)
(-0.11871917 0.279911 -8.0782447e-22)
(-0.096195758 0.26873855 -7.883095e-20)
(-0.022359577 0.19590571 6.3762312e-20)
(0.085132779 0.088126415 -8.7807154e-22)
(0.20846452 -0.026758577 1.4303991e-21)
(0.33245451 -0.12547824 -8.4152963e-22)
(0.44211043 -0.19433825 -1.8933824e-21)
(0.53628005 -0.24055624 2.0362579e-20)
(0.61318204 -0.26950292 -1.4167685e-20)
(0.67329589 -0.28370957 -2.462357e-20)
(0.71926409 -0.28505604 2.0326854e-20)
(0.75448288 -0.27578253 -3.5859787e-21)
(0.78893797 -0.25480441 -7.9490324e-21)
(-0.1007639 0.42836974 -3.3901228e-22)
(-0.12277118 0.37014995 -2.7859559e-22)
(-0.11049069 0.34343274 -6.6663691e-20)
(-0.099412487 0.32198482 5.6153153e-20)
(-0.089667833 0.30147984 -6.2656327e-22)
(-0.077732253 0.28116697 3.7924028e-20)
(-0.059092243 0.26227346 -2.8386768e-20)
(-0.034058946 0.24352298 -5.1820158e-20)
(0.021420865 0.18925094 -1.4825153e-21)
(0.12164607 0.08522461 7.1715323e-20)
(0.24239953 -0.033516359 -2.8232507e-20)
(0.33718211 -0.13088121 0)
(0.41604914 -0.20072796 1.6210801e-21)
(0.48414436 -0.2399387 -8.680891e-21)
(0.5436038 -0.25238632 4.5094507e-21)
(0.60466461 -0.24136823 -2.8428139e-21)
(-0.069464245 0.40310901 3.3901229e-22)
(-0.070210875 0.34765692 -6.0770171e-20)
(-0.069230613 0.31767654 5.0399247e-20)
(-0.070074246 0.29383665 -3.7819149e-22)
(-0.072971993 0.27135392 8.0726887e-22)
(-0.077392339 0.24843321 -1.5707153e-22)
(-0.083131127 0.22421189 -2.6804426e-20)
(-0.090081614 0.19775784 -1.6513124e-21)
(-0.097198729 0.16714707 1.6560092e-20)
(-0.10207641 0.12729229 -1.5655666e-20)
(-0.087767765 0.068323125 1.2657699e-20)
(0.047927751 -0.037813123 0)
(0.12508258 -0.13396404 5.8376697e-21)
(0.18035034 -0.18176829 -4.1384766e-21)
(0.2460826 -0.20161118 6.9115021e-22)
(0.33277339 -0.19646251 0)
(-0.047765528 0.28248548 -9.1424858e-21)
(-0.052733159 0.20423387 3.5546979e-21)
(-0.070012145 0.15782378 6.7549774e-21)
(-0.089873761 0.12199936 -6.06465e-21)
(-0.11139973 0.091255372 -5.0279433e-22)
(-0.13408514 0.063341459 2.5639642e-21)
(-0.15727521 0.037094972 2.8267886e-21)
(-0.18018619 0.011779668 2.9079409e-22)
(-0.2024353 -0.013210736 2.6130693e-22)
(-0.22430946 -0.038371194 -5.7728527e-21)
(-0.24375044 -0.063770513 6.5746628e-21)
(-0.24792438 -0.088103712 -3.4274336e-22)
(-0.21477515 -0.11155403 -1.3294302e-21)
(-0.16122064 -0.13438918 -9.0515794e-22)
(-0.085258613 -0.15057538 3.2029978e-25)
(0.054351701 -0.14863143 -1.0034779e-21)
(-0.047383206 -0.30085827 -5.9005388e-21)
(-0.051782487 -0.22797913 -5.299441e-21)
(-0.068266615 -0.18238339 1.2851513e-20)
(-0.086934282 -0.14566546 -7.5783337e-21)
(-0.1070497 -0.11292917 3.4228406e-21)
(-0.12817834 -0.082165312 3.4279863e-25)
(-0.14973579 -0.052357576 6.0950591e-21)
(-0.17106439 -0.022896528 -2.3510576e-21)
(-0.19207363 0.0067012099 -1.8422611e-22)
(-0.2134497 0.03680957 2.3679375e-21)
(-0.23280013 0.067312005 -2.8451221e-21)
(-0.23485409 0.096323768 2.5154328e-21)
(-0.19542887 0.12349845 -1.3660508e-21)
(-0.14164259 0.14781617 -1.1717205e-21)
(-0.071913772 0.1629556 1.3406101e-22)
(0.074578505 0.15766209 -1.4922461e-21)
(-0.070442682 -0.4157434 -4.5939132e-22)
(-0.072608878 -0.36076657 6.5657815e-20)
(-0.071204176 -0.32940715 -5.3967279e-20)
(-0.07118089 -0.3038411 4.4933293e-20)
(-0.073047449 -0.27962289 -3.74824e-20)
(-0.076318467 -0.25506844 0)
(-0.080876293 -0.22933787 2.7753432e-20)
(-0.086760577 -0.20147634 -2.1889886e-20)
(-0.093017396 -0.16949291 -8.471528e-22)
(-0.097280972 -0.12788537 0)
(-0.080935995 -0.065568673 -2.415196e-21)
(0.072140311 0.052919021 1.3152732e-21)
(0.12684891 0.14324621 -6.5263033e-21)
(0.18462645 0.19278581 8.047765e-21)
(0.24784056 0.2160919 -4.4109239e-21)
(0.3417497 0.21051168 5.495685e-22)
(-0.10187777 -0.43673809 3.5916648e-22)
(-0.12532049 -0.37837626 -2.9494514e-22)
(-0.11243409 -0.35059899 0)
(-0.10050243 -0.32789302 1.2449055e-21)
(-0.089982222 -0.30610339 6.9109849e-22)
(-0.077311502 -0.28455516 3.975229e-20)
(-0.057971366 -0.2645483 -3.344525e-20)
(-0.032563862 -0.24473807 0)
(0.024880612 -0.18697246 4.609974e-23)
(0.1271355 -0.0795406 -2.0155715e-21)
(0.24674733 0.041000017 1.7360497e-21)
(0.33990857 0.13957691 1.1150594e-21)
(0.41730904 0.20979163 1.6785088e-21)
(0.48435168 0.24861518 7.6871223e-21)
(0.54157098 0.26089114 -7.3965342e-21)
(0.60633849 0.24647576 2.1718402e-21)
(-0.12202263 -0.39485146 0)
(-0.16835911 -0.32289108 1.5232648e-19)
(-0.14219099 -0.29822866 -2.4927683e-19)
(-0.11915311 -0.28229643 1.0114834e-19)
(-0.095887222 -0.2702602 -6.8881282e-22)
(-0.0215389 -0.19676323 -2.0868598e-21)
(0.086776885 -0.087806615 5.553865e-20)
(0.21120499 0.028681853 -4.43466e-20)
(0.33557378 0.12827976 -3.0888645e-20)
(0.44530407 0.19790687 2.7840695e-20)
(0.53920147 0.24481653 0)
(0.61550563 0.27431815 -1.8650122e-20)
(0.67467619 0.28866127 9.5267619e-21)
(0.71956796 0.28983481 0)
(0.75335268 0.28015574 0)
(0.78924326 0.25668239 0)
(-0.1248497 -0.32519691 3.1170906e-19)
(-0.16760748 -0.26000285 -1.2823631e-19)
(-0.040499631 -0.12850761 0)
(0.10129824 0.0047985391 -5.1797892e-22)
(0.24278498 0.12779914 -6.6190742e-20)
(0.36580474 0.21500309 5.6232863e-20)
(0.46984626 0.26866608 4.3700301e-20)
(0.55847398 0.29959912 2.4227491e-21)
(0.63275996 0.31556348 -3.2838023e-20)
(0.69411729 0.32160599 1.6778205e-21)
(0.7444471 0.32093471 0)
(0.78531356 0.31548561 -3.7650692e-20)
(0.81808403 0.30627302 3.6168602e-21)
(0.84450423 0.29351603 2.3781635e-20)
(0.86566544 0.27779942 0)
(0.88846355 0.25578106 3.748748e-21)
(-0.2666674 -0.42005701 3.2853067e-21)
(0.12185952 0.078083059 1.6629747e-19)
(0.30562596 0.22775783 -6.5787218e-20)
(0.43473843 0.30605718 -4.8533488e-20)
(0.53251514 0.34654023 3.9481012e-20)
(0.60848532 0.36403166 -3.7691173e-20)
(0.66888127 0.36791653 2.8174232e-20)
(0.718434 0.36395274 3.1507777e-20)
(0.76045318 0.35563232 -3.1484401e-20)
(0.79705091 0.34503772 0)
(0.8295748 0.33329629 0)
(0.85884692 0.32080276 0)
(0.88532399 0.30738615 7.3819591e-21)
(0.90941129 0.29246515 0)
(0.9303674 0.27664 2.6223617e-20)
(0.95782558 0.25256647 -4.6670127e-20)
(0.8593945 0.96388933 0)
(0.88460068 1.0039503 0)
(0.89281679 0.97462429 0)
(0.89550391 0.95089175 6.5581976e-21)
(0.89899716 0.92301027 -4.1194386e-20)
(0.90313217 0.89098366 4.3066232e-20)
(0.90804368 0.85478291 0)
(0.91378501 0.81416758 -5.9398585e-21)
(0.9203849 0.76910423 0)
(0.92783221 0.71989 0)
(0.93605586 0.66712354 0)
(0.94503085 0.61164803 7.4359569e-21)
(0.95506955 0.55428669 0)
(0.96632711 0.49640313 1.2086702e-20)
(0.97680834 0.44359789 0)
(0.86003765 -0.96459875 0)
(0.88522015 -1.0043674 0)
(0.89352858 -0.97517401 0)
(0.89637783 -0.95155605 6.5843355e-21)
(0.90007153 -0.92383533 -3.8735793e-20)
(0.90443972 -0.89199734 4.775569e-20)
(0.90958916 -0.85599751 0)