/*--------------------------------*- C++ -*----------------------------------*\
| =========                 |                                                 |
| \\      /  F ield         | foam-extend: Open Source CFD                    |
|  \\    /   O peration     | Version:     4.1                                |
|   \\  /    A nd           | Web:         http://www.foam-extend.org         |
|    \\/     M anipulation  |                                                 |
\*---------------------------------------------------------------------------*/
FoamFile
{
    version     2.0;
    format      ascii;
    class       volScalarField;
    location    "1.1";
    object      p;
}
// * * * * * * * * * * * * * * * * * * * * * * * * * * * * * * * * * * * * * //

dimensions      [0 2 -2 0 0 0 0];

internalField   nonuniform List<scalar> 
4393
(
-46.418291
-92.981834
-146.74664
-201.53772
-258.52852
-318.02971
-380.42424
-446.02167
-515.04624
-587.60813
-663.67527
-743.04525
-825.31997
-909.88682
-995.91059
-1082.3387
-1167.9206
-1251.2389
-1330.7467
-1404.8064
-1471.7268
-1529.7976
-1577.3242
-1612.6687
-1634.3036
-1640.8857
-1631.3608
-1605.109
-1562.0234
-1502.6042
-1428.0627
-1340.3043
-1241.8236
-1135.5209
-1024.4768
-911.72608
-800.06811
-691.93554
-589.32547
-493.78611
-406.44488
-328.06286
-259.10058
-199.78392
-150.17421
-110.24048
-79.763396
-57.832451
-43.628154
-45.166127
-92.396013
-146.03405
-200.67391
-257.49558
-316.84199
-379.10968
-444.62029
-513.60994
-586.2008
-662.37246
-741.93257
-824.49005
-909.43482
-995.92841
-1082.9093
-1169.1132
-1253.1063
-1333.3248
-1408.1154
-1475.772
-1534.5699
-1582.7976
-1618.7958
-1641.0078
-1648.0571
-1638.8542
-1612.704
-1569.4363
-1509.5444
-1434.245
-1345.4787
-1245.8057
-1138.2119
-1025.8682
-911.88896
-799.13388
-690.0722
-586.71546
-490.60848
-402.863
-324.21754
-255.11
-195.75342
-146.20066
-106.36037
-75.961737
-54.862801
-44.264629
-44.361888
-91.49926
-144.77577
-199.05485
-255.5257
-314.56086
-376.57902
-441.92408
-510.85527
-583.51851
-659.91618
-739.87557
-823.01896
-908.7401
-996.19259
-1084.2949
-1171.7535
-1257.0999
-1338.7356
-1414.9754
-1484.0846
-1544.3105
-1593.9094
-1631.1788
-1654.5015
-1662.4211
-1653.7593
-1627.7383
-1584.0959
-1523.2535
-1446.4223
-1355.6121
-1253.5195
-1143.3093
-1028.3382
-911.88403
-796.92644
-686.00514
-581.1558
-483.91066
-395.34388
-316.14231
-246.69005
-187.15645
-137.55091
-97.688083
-67.257973
-46.703047
-37.920518
-43.571168
-90.203514
-142.87205
-196.57261
-252.49943
-311.05368
-372.68284
-437.76281
-506.58761
-579.33965
-656.05717
-736.59885
-820.6091
-907.48916
-996.3815
-1086.1743
-1175.5282
-1262.9216
-1346.7028
-1425.1391
-1496.4549
-1558.8587
-1610.5625
-1649.8032
-1674.8752
-1684.1998
-1676.4526
-1650.7045
-1606.5452
-1544.2896
-1465.1357
-1371.1994
-1265.3942
-1151.1697
-1032.179
-911.95622
-793.66729
-679.95763
-572.89564
-473.98976
-384.25289
-304.29117
-234.40487
-174.68816
-125.07538
-85.291551
-55.022362
-34.934411
-26.790286
-42.746034
-88.586092
-140.40166
-193.29791
-248.4767
-306.37005
-367.46092
-432.1667
-500.82804
-573.67722
-650.80228
-732.10648
-817.2665
-905.69557
-996.52142
-1088.5893
-1180.495
-1270.6407
-1357.301
-1438.6794
-1512.9486
-1578.2705
-1632.8047
-1674.7134
-1702.1785
-1713.4592
-1707.0294
-1681.7393
-1636.9532
-1572.818
-1490.4979
-1392.2539
-1281.3119
-1161.535
-1037.0029
-911.6135
-788.78916
-671.31392
-561.29041
-460.18317
-368.91177
-287.9656
-217.52598
-157.57781
-107.95382
-68.296757
-38.299903
-18.683543
-10.927133
-41.737457
-86.536903
-137.2531
-189.11404
-243.33045
-300.36951
-360.75698
-424.96202
-493.38489
-566.32302
-643.93082
-726.17243
-812.77037
-903.15702
-996.44242
-1091.4144
-1186.5796
-1280.2371
-1370.5628
-1455.68
-1533.7006
-1602.7372
-1660.8939
-1706.2495
-1736.8504
-1750.7509
-1746.1568
-1721.6154
-1676.1693
-1609.7101
-1523.3304
-1419.4775
-1301.8091
-1174.7661
-1043.018
-910.95484
-782.33338
-660.10565
-546.40023
-442.60537
-349.50325
-267.41979
-196.37241
-136.19524
-86.586872
-47.090596
-17.368845
1.8952063
9.4340291
-40.595526
-84.127186
-133.49121
-184.07012
-237.08798
-293.05308
-352.5417
-416.08559
-484.15872
-557.14086
-635.27229
-718.59827
-806.90518
-899.65548
-995.93972
-1094.4707
-1193.6353
-1291.5943
-1386.3956
-1476.0642
-1558.6466
-1632.2101
-1694.8105
-1744.4438
-1779.0052
-1796.3015
-1794.194
-1770.8253
-1724.7867
-1655.5864
-1564.1765
-1453.2324
-1326.999
-1190.7121
-1049.8415
-909.42614
-773.64366
-645.63679
-527.53729
-420.60887
-325.43869
-242.13272
-170.49432
-110.16511
-60.67997
-21.460838
7.9039717
26.823539
34.190804
-39.186024
-81.205565
-128.95647
-178.00163
-229.57707
-284.23739
-342.61697
-405.32142
-472.91383
-545.87586
-624.55678
-709.10826
-799.40468
-894.95509
-994.83064
-1097.647
-1201.6309
-1304.7576
-1404.9091
-1499.9927
-1587.9893
-1666.9352
-1734.8571
-1789.6816
-1829.1471
-1850.7728
-1851.9891
-1830.4106
-1784.0056
-1711.7094
-1614.2144
-1494.4635
-1357.4976
-1209.6433
-1057.4496
-906.79901
-762.38332
-627.54441
-504.37068
-393.9282
-296.53048
-211.99164
-139.84096
-79.481503
-30.253317
8.565526
37.490028
56.043665
63.248421
-37.653464
-77.930951
-123.79689
-171.03288
-220.89027
-273.97557
-330.98883
-392.62119
-459.54176
-532.35666
-611.5521
-697.41842
-789.95126
-888.73202
-992.81715
-1100.6986
-1210.3877
-1319.6106
-1426.0332
-1527.4233
-1621.7037
-1706.9075
-1781.069
-1842.0773
-1887.5234
-1914.6053
-1920.2267
-1901.3236
-1855.0123
-1779.3763
-1674.6458
-1544.0582
-1393.7396
-1231.5244
-1065.4182
-902.39142
-747.74722
-605.01098
-476.14668
-361.91675
-262.25671
-176.59956
-104.13057
-43.963343
4.7912144
43.023543
71.374653
89.49398
96.516793
-35.74883
-74.004841
-117.69209
-162.83156
-210.68189
-261.90429
-317.27082
-377.56971
-443.59421
-516.1005
-595.74493
-682.99684
-778.01809
-880.50128
-989.50022
-1103.3492
-1219.7674
-1336.14
-1449.8475
-1558.4925
-1659.9573
-1752.3189
-1833.6807
-1901.953
-1954.6115
-1988.5132
-1999.9356
-1984.9555
-1939.5406
-1860.5129
-1747.2976
-1603.4221
-1436.5077
-1256.5011
-1073.3831
-895.519
-728.91374
-577.218
-442.13807
-323.98113
-222.16744
-135.63967
-63.15969
-3.4982009
44.496416
81.904249
109.50736
127.08877
133.89248
-33.798649
-69.806253
-111.0279
-153.76794
-199.29485
-248.32737
-301.7146
-360.35259
-425.17749
-497.12421
-577.05839
-665.67876
-763.37436
-870.00881
-984.66046
-1105.4665
-1229.7466
-1354.4141
-1476.4677
-1593.3176
-1702.8406
-1803.2317
-1892.7566
-1969.4404
-2030.7079
-2073.0758
-2092.1041
-2082.7931
-2039.586
-1957.449
-1834.4245
-1674.2476
-1486.6345
-1284.5446
-1080.6577
-885.11628
-704.69085
-543.02766
-401.36524
-279.3424
-175.68605
-88.716729
-16.683991
42.039329
88.898326
125.17864
151.81114
168.71705
175.24981
-31.322744
-64.748365
-103.16399
-143.16712
-186.01796
-232.4905
-283.51351
-340.10053
-403.35036
-474.40923
-554.39875
-644.30985
-744.84118
-856.11878
-977.29941
-1106.278
-1239.82
-1374.1698
-1505.8019
-1631.8969
-1750.383
-1859.6805
-1958.3494
-2044.6717
-2116.136
-2168.9576
-2197.9202
-2196.6911
-2157.7329
-2073.3257
-1939.1486
-1758.8899
-1545.2553
-1315.6019
-1086.3279
-869.81876
-673.60705
-501.08714
-352.70806
-227.14615
-122.20875
-35.43992
35.518148
92.742816
137.99724
172.78069
198.1729
214.2349
220.43243
-28.935367
-59.575025
-94.898082
-131.84689
-171.67527
-215.21025
-263.45976
-317.56079
-378.79216
-448.54494
-528.24839
-619.25868
-722.68966
-839.06454
-967.71706
-1106.2536
-1250.6599
-1396.2158
-1538.664
-1674.9224
-1803.0783
-1921.9457
-2030.5698
-2127.7002
-2211.0804
-2276.7108
-2318.5369
-2328.6708
-2297.0939
-2212.1925
-2065.6522
-1860.4855
-1613.7496
-1349.4072
-1089.0114
-847.73864
-633.73493
-449.70535
-294.8275
-166.41716
-61.081635
24.585797
93.645626
148.66916
191.75089
224.60045
248.43723
263.45888
269.24607
-25.834198
-53.293423
-85.133335
-118.63359
-155.00887
-195.12767
-240.07118
-291.10198
-349.69475
-417.52251
-496.38361
-588.08856
-694.30549
-816.16095
-953.35374
-1103.1791
-1260.5224
-1419.2476
-1574.0538
-1721.5579
-1860.175
-1989.3367
-2108.7973
-2218.0403
-2315.3464
-2396.6703
-2455.0973
-2481.0202
-2461.4979
-2379.4192
-2219.7584
-1983.4127
-1693.885
-1385.4102
-1086.7048
-816.33279
-582.61634
-386.83355
-226.18383
-96.096016
8.358463
91.722531
157.84454
209.81596
250.05822
280.47291
302.39838
316.15945
321.45224
-22.988286
-47.105617
-75.194252
-104.93107
-137.4926
-173.78004
-214.93914
-262.35457
-317.7064
-382.98383
-460.41869
-552.37021
-661.22103
-788.98817
-936.05565
-1099.4245
-1272.3866
-1446.6594
-1615.3982
-1774.8827
-1924.1586
-2063.629
-2194.0751
-2316.1137
-2429.0551
-2529.151
-2608.6688
-2656.1735
-2655.5157
-2582.0937
-2409.6778
-2133.8913
-1787.8785
-1422.5331
-1076.4505
-772.1386
-517.10667
-310.00254
-145.03298
-15.064755
86.748757
166.26547
228.17983
276.09985
312.74375
340.16708
359.79268
372.05506
376.7629
-19.234016
-39.566135
-63.483983
-89.028676
-117.28553
-149.16099
-185.84184
-228.81611
-279.96343
-341.61502
-416.50501
-507.64547
-618.31846
-751.8431
-909.87015
-1089.2879
-1281.1057
-1473.7732
-1658.1745
-1830.2923
-1990.3745
-2140.3281
-2282.2802
-2418.3716
-2549.5401
-2672.7618
-2779.4825
-2856.415
-2884.4365
-2829.5605
-2647.2463
-2321.0874
-1898.5228
-1458.832
-1053.8859
-710.4582
-433.22552
-216.29715
-49.467115
77.789485
174.63803
248.39159
304.59724
347.33005
379.54018
403.37497
420.29155
430.80742
434.83647
-15.909571
-32.367249
-51.889448
-72.946153
-96.528101
-123.52999
-155.16115
-192.99624
-239.10683
-296.19289
-367.57403
-457.03017
-568.92189
-708.39612
-879.34049
-1079.0102
-1295.0596
-1510.7443
-1713.4134
-1898.7632
-2069.1477
-2228.6991
-2381.1221
-2530.4777
-2680.3859
-2829.604
-2969.1769
-3084.3382
-3154.0991
-3134.0113
-2949.9603
-2559.1609
-2029.2979
-1490.9057
-1012.5347
-624.92479
-325.99177
-102.36355
62.502414
183.47645
272.40165
338.09587
386.87956
423.18024
450.07125
469.70173
483.49618
492.01865
495.27593
-11.483943
-23.591263
-38.294694
-54.438662
-72.84813
-94.363235
-120.16999
-151.87517
-191.68072
-242.61949
-308.63692
-394.36267
-505.33321
-649.10824
-833.41868
-1057.1185
-1303.0131
-1546.0306
-1768.1216
-1964.9816
-2142.9749
-2309.8853
-2471.3084
-2633.6121
-2804.7357
-2986.7703
-3170.3481
-3338.4984
-3469.9068
-3511.2592
-3344.1369
-2870.7986
-2184.1434
-1512.8703
-942.7453
-506.96193
-189.29485
35.498444
192.78337
302.75042
380.12555
435.11281
474.59752
503.15995
523.83624
538.65816
548.93464
555.23077
557.62908
-7.5459632
-15.399263
-25.214362
-36.272629
-49.208302
-64.768108
-84.06898
-108.69892
-140.93297
-184.11087
-242.90335
-322.98253
-431.14921
-577.96577
-777.5875
-1033.2902
-1320.8809
-1601.2883
-1847.8987
-2056.6846
-2241.3079
-2415.2348
-2585.4246
-2759.5252
-2951.4777
-3168.7939
-3401.8415
-3630.6653
-3839.9342
-3979.4507
-3868.0221
-3294.1305
-2367.87
-1515.4537
-830.29355
-345.1599
-15.872207
201.09495
342.92624
435.89018
497.45806
538.8265
567.05974
586.589
600.19869
609.65718
616.06246
619.92831
621.3919
-2.4940669
-5.655415
-10.105305
-15.573839
-22.445007
-31.342413
-43.273895
-59.74943
-83.013064
-116.56758
-165.75619
-237.36428
-339.18044
-484.64176
-697.71923
-992.03991
-1333.768
-1659.6124
-1930.104
-2142.1475
-2323.1208
-2495.6065
-2666.7934
-2843.1724
-3048.9949
-3303.174
-3599.0876
-3914.1976
-4241.4072
-4553.2176
-4583.0236
-3903.4786
-2589.3115
-1483.2205
-653.43113
-124.34853
202.50717
397.84698
513.68332
582.3987
623.4331
648.17718
663.26838
672.57985
678.38223
682.01624
684.26782
685.54466
686.01522
2.9587806
3.9729852
4.5462551
4.3727619
3.3873185
1.154657
-3.1201839
-10.724069
-23.652353
-45.261195
-81.374395
-140.13089
-230.2734
-367.38845
-589.87785
-934.91094
-1357.8546
-1750.6945
-2054.8913
-2266.9262
-2439.8817
-2611.5597
-2788.5992
-2969.4139
-3193.9262
-3500.0127
-3883.2973
-4313.0922
-4763.9033
-5291.5202
-5573.8104
-4825.358
-2837.3022
-1376.2421
-376.92596
174.90827
474.14896
627.83427
704.33994
740.62116
756.28021
761.57907
761.89108
760.03418
757.47726
754.96719
752.88218
751.47246
750.91494
8.2851151
13.265332
19.32354
25.157987
31.02067
36.677895
41.595146
44.763122
44.510462
37.799887
18.45218
-23.539107
-98.146701
-220.10639
-443.94204
-853.46461
-1397.283
-1876.4163
-2210.7445
-2392.8808
-2530.4297
-2685.6844
-2862.7831
-3027.815
-3238.64
-3573.5317
-4023.7138
-4561.7459
-5089.7117
-5960.361
-6823.7183
-6299.5148
-3074.0131
-1170.9517
36.506527
572.65476
805.01191
890.17351
911.79898
907.31711
893.25914
876.87525
861.26367
847.66111
836.46167
827.67539
821.19671
817.07812
815.48581
17.841148
25.859719
36.761766
47.719783
59.416679
71.801431
84.631604
97.258561
108.5224
116.23591
114.96664
93.715531
41.620168
-49.538179
-244.67526
-715.15151
-1441.8812
-2033.612
-2413.3751
-2545.7139
-2643.0198
-2787.2004
-2982.1464
-3113.6796
-3276.677
-3677.699
-4224.3713
-4961.7031
-5679.3055
-7242.854
-8882.0928
-9068.3531
-3578.1301
-1038.2197
635.19305
1099.092
1197.3508
1178.9794
1129.5273
1077.2884
1030.5875
991.36653
959.44113
934.0243
914.2385
899.26855
888.48473
881.72021
879.11824
22.150612
30.895279
46.136795
62.238293
80.171627
100.10838
122.29224
146.74797
173.26305
201.23865
227.41527
240.71483
225.96348
180.34585
45.409077
-483.28428
-1555.1602
-2311.5021
-2773.6653
-2771.0103
-2749.6672
-2813.1464
-3022.6411
-3099.9054
-3207.1626
-3763.264
-4232.9945
-5185.2216
-6470.8429
-7863.4476
-9589.1443
-12103.541
-4823.2664
-72.51524
1722.8306
1811.9826
1641.1421
1478.76
1346.2295
1243.2033
1163.5571
1101.9564
1054.3113
1017.6216
989.69032
968.87436
954.02876
944.77057
941.21728
36.937126
46.533272
66.460151
87.314078
110.74815
137.07752
166.90672
200.721
238.86229
281.66289
327.57489
365.35532
371.82695
347.26671
293.74232
-191.10884
-1818.0799
-2617.1385
-3115.5
-2772.7584
-2626.8107
-2732.5457
-3131.7573
-3271.1257
-3302.4319
0
0
0
0
0
0
0
0
6202.3751
3402.456
2582.4953
2068.2384
1755.8594
1545.1251
1396.0883
1287.0013
1205.4549
1143.7777
1096.995
1061.7468
1035.664
1017.1504
1005.6368
1001.2224
35.366811
42.182795
64.028488
87.075179
113.20503
142.73986
176.57945
215.67678
261.07501
314.42485
377.59051
445.98974
502.80009
560.82638
710.68182
552.8059
-1996.7872
-2776.9671
-3646.912
-2968.6389
-3044.3385
-3012.3259
0
0
0
0
0
0
0
0
0
0
10129.574
6286.2536
4123.9547
3000.3242
2361.3128
1969.178
1709.0491
1527.5631
1396.2858
1299.0426
1225.9923
1170.8553
1129.4569
1098.8966
1077.2396
1063.7839
1058.6264
44.263841
54.950297
80.950111
106.97768
136.15451
169.03616
206.87588
251.10438
303.50639
367.0807
447.11695
546.08898
653.28935
754.39197
842.19689
568.47461
-3108.2286
-3581.6036
-3205.2835
0
0
0
0
0
0
0
0
0
0
0
1780.6719
3364.5944
5756.1164
5236.0895
3961.3823
3100.1683
2507.1429
2107.74
1830.6542
1632.992
1488.4297
1380.7308
1299.5696
1238.1935
1192.0513
1157.9575
1133.7806
1118.7535
1112.9924
22.191618
42.166398
66.371106
91.285038
118.75253
149.54743
184.74344
225.50555
273.13269
329.83009
399.50023
478.02764
537.53068
536.2482
558.10776
702.38946
0
0
0
0
0
0
-1132.0677
-1103.5234
-1011.3056
-917.55619
-790.08503
-495.29889
-94.947297
697.08388
2026.4398
3361.9107
4750.9873
4489.8575
3714.802
3058.6865
2552.6654
2182.2202
1911.4455
1711.6614
1562.3546
1449.5319
1363.6923
1298.3449
1248.9833
1212.3853
1186.3704
1170.1778
1163.9661
19.953979
50.022231
74.970564
100.54391
127.96171
158.05691
191.47982
228.66512
269.57221
313.41823
357.90002
396.5626
406.14947
338.0923
142.01834
-338.13466
-1284.4179
-1227.475
-1147.1017
-1100.4784
-1051.0813
-1021.6128
-1010.3641
-803.28926
-838.6822
-583.18177
-362.3451
-204.6174
259.08278
904.85459
1960.2927
3049.3234
3956.5654
3851.8966
3404.298
2933.597
2528.4616
2206.0155
1956.7039
1765.4223
1618.5287
1505.3808
1418.1053
1351.0012
1299.9422
1261.8833
1234.7283
1217.7884
1211.2839
20.663337
46.485469
72.120349
97.971891
125.28652
154.8153
187.13931
222.62517
261.25935
302.13439
342.0353
373.73592
384.81909
353.15881
205.21623
-227.9218
-792.30537
-920.95924
-962.54823
-966.15091
-887.80294
-842.32034
-818.54947
-691.80011
-620.94371
-417.54038
-179.14337
77.742866
510.88691
1096.4662
1896.1868
2721.5882
3334.8855
3356.8267
3105.6567
2777.1431
2463.3573
2193.81
1973.5974
1797.6785
1658.5137
1548.943
1463.0387
1396.1803
1344.8434
1306.3177
1278.6979
1261.4184
1254.7756
14.996608
36.230643
58.797062
81.291115
104.29094
128.03562
152.53063
177.41613
201.79018
223.68936
238.89709
240.18134
218.24919
159.21473
15.075429
-283.91183
-606.90331
-732.46477
-784.51859
-794.2865
-753.12528
-703.47419
-642.23498
-537.76213
-423.8864
-238.24318
-11.498621
269.88378
668.60842
1187.7222
1823.2423
2450.8964
2889.5205
2967.0586
2834.972
2613.0011
2376.1814
2157.6761
1969.1884
1812.3855
1684.4722
1581.3761
1499.0909
1434.1696
1383.7999
1345.7038
1318.2394
1300.9994
1294.3626
23.838387
46.444932
70.189938
93.65624
117.54433
141.96113
166.72612
191.21064
214.09595
232.81537
242.68459
236.67022
205.98903
135.39788
-7.2590653
-236.55082
-460.15473
-579.80585
-635.38327
-644.54095
-615.83466
-568.29274
-497.28106
-394.46
-264.34912
-82.932917
139.16098
416.11343
777.02658
1223.772
1735.5102
2221.7454
2557.23
2658.5601
2599.6226
2454.8462
2280.1778
2107.1227
1949.7496
1813.4689
1698.7942
1604.1108
1527.1061
1465.4575
1417.085
1380.1845
1353.4179
1336.5533
1330.0511
12.024229
29.927746
50.032255
70.035832
90.041131
109.92738
129.38632
147.7471
163.76097
175.18296
178.31594
168.06183
137.63881
74.654593
-40.054897
-203.50751
-358.80716
-456.74754
-506.07908
-514.23366
-488.93012
-440.00563
-365.68927
-262.60088
-128.53856
46.964159
261.85445
525.19093
849.67429
1232.3374
1648.6362
2032.8057
2301.9488
2411.5832
2398.1276
2308.5354
2183.1595
2048.951
1920.3868
1804.4654
1703.831
1618.675
1548.0641
1490.6661
1445.0903
1410.005
1384.3868
1368.1814
1361.9232
21.40728
40.632457
60.854146
80.3678
99.453686
117.84358
135.02379
150.10189
161.62917
167.32388
163.94567
147.5488
113.08133
52.273872
-43.556736
-165.61518
-279.00332
-356.12478
-395.69006
-400.45676
-375.18749
-324.72564
-248.6741
-145.28273
-11.774239
156.7924
361.05908
606.02192
895.95174
1224.4159
1567.8664
1878.5076
2101.997
2212.1875
2227.1466
2176.7606
2089.8436
1988.0677
1885.0998
1788.3898
1701.7411
1626.5696
1562.9908
1510.4909
1468.2866
1435.4859
1411.3699
1396.0508
1390.1249
11.864162
27.968686
45.959802
63.611693
80.820612
97.232047
112.3168
125.22221
134.61731
138.50986
134.22507
118.55931
87.502512
35.679875
-40.002088
-130.43163
-213.52475
-271.83072
-300.84907
-300.62655
-273.46209
-221.63393
-145.03198
-42.511176
87.99416
248.90856
441.01368
666.3004
924.57411
1207.7343
1495.1769
1752.1623
1942.6281
2049.7639
2082.4753
2059.9381
2002.6781
1927.6335
1846.8493
1767.6915
1694.4092
1629.1883
1572.8938
1525.6524
1487.1884
1456.9987
1434.6431
1420.3805
1414.8537
17.140373
33.237343
50.220045
66.364832
81.714401
95.886825
108.32938
118.22228
124.38343
125.1858
118.61245
102.36264
73.69124
29.625613
-29.988725
-97.382058
-158.13644
-200.46213
-219.38494
-213.53446
-183.5578
-130.34324
-53.764366
46.960264
173.10547
325.77656
505.1749
711.24631
941.41825
1187.1581
1431.2313
1648.3113
1813.9321
1916.4939
1960.2186
1957.4979
1922.9611
1869.6952
1807.8366
1744.3104
1683.4265
1627.7751
1578.719
1536.8592
1502.3257
1474.9438
1454.5174
1441.4277
1436.3463
11.965893
26.365741
42.104232
57.216657
71.535827
84.633835
95.955602
104.72792
109.89857
110.11363
103.80218
89.276828
64.758451
28.907482
-17.01952
-66.703582
-110.25003
-139.22885
-148.99455
-137.55136
-104.54787
-50.079653
26.067885
124.39876
245.54582
389.78541
556.64725
744.78758
950.46864
1165.4734
1375.7034
1562.5375
1708.9273
1806.4498
1856.889
1868.2991
1851.131
1815.4434
1769.5685
1719.7248
1670.0959
1623.4068
1581.3249
1544.783
1514.2209
1489.7314
1471.3238
1459.4741
1454.8658
13.672535
27.359601
41.871701
55.550807
68.315788
79.771261
89.415531
96.581242
100.40729
99.84909
93.763721
81.007326
60.559694
32.098586
-2.589288
-38.476518
-68.501662
-86.407666
-88.110046
-71.431282
-35.489638
20.054002
95.479315
191.07372
307.00122
442.97346
597.96293
769.86566
954.48568
1144.3018
1327.8969
1491.4045
1622.6061
1715.1566
1769.5577
1791.0637
1787.1664
1765.5771
1733.0732
1695.058
1655.4634
1616.9944
1581.4709
1550.0421
1523.3733
1501.7674
1485.4
1474.8151
1470.6912
11.353762
24.027858
37.645155
50.500611
62.432432
73.046854
81.880121
88.35211
91.760793
91.312757
86.206207
75.732859
59.446142
37.65117
12.276122
-12.652334
-31.896849
-40.645135
-35.40509
-14.03788
24.575407
80.988304
155.49842
248.21849
358.97842
487.10013
631.16252
788.66198
955.34893
1124.5374
1286.9998
1432.2481
1551.2803
1639.1809
1695.7797
1724.5053
1730.75
1720.4242
1699.0133
1671.1269
1640.3515
1609.2936
1579.8156
1553.1932
1530.2478
1511.4413
1497.0798
1487.7492
1484.1077
11.407428
23.296019
35.923504
47.754386
58.66624
68.305085
76.268527
82.076799
85.182649
85.010469
81.033357
72.87645
60.489202
44.522156
26.847325
10.721187
0.16247768
-1.0283081
10.10537
35.553884
76.49872
133.57344
207.05499
296.91476
402.74665
523.60906
657.83533
802.75902
954.29708
1106.6005
1252.1844
1382.9754
1492.1645
1575.8547
1633.5314
1667.4213
1681.4223
1680.072
1667.8002
1648.5063
1625.3922
1600.9184
1576.9178
1554.727
1535.2678
1519.1186
1506.6845
1498.5703
1495.3985
10.343713
21.515234
33.418505
44.560574
54.805709
63.829476
71.285788
76.787082
79.922919
80.301722
77.620706
71.76278
62.951173
52.019598
40.7118
31.704859
28.182079
33.206427
49.281255
78.204353
121.12209
178.66786
251.07254
338.1932
439.45893
553.75808
679.2931
813.38245
952.21534
1090.7114
1222.7514
1342.0031
1443.185
1523.1434
1581.1971
1618.7738
1638.7037
1644.4829
1639.6904
1627.6167
1611.0828
1592.3712
1573.2514
1555.0721
1538.813
1525.135
1514.5165
1507.561
1504.8393
9.9406208
20.476381
31.670331
42.130043
51.740099
60.213342
67.259755
72.575221
75.865317
76.886786
75.510481
71.807557
66.17838
59.53829
53.481568
50.250056
52.431829
62.544039
82.715211
114.54293
159.0895
216.94393
288.27806
372.85678
469.99601
578.48213
696.46766
821.3417
949.60207
1076.8385
1197.9926
1307.9982
1402.6584
1479.3699
1537.3815
1577.5852
1602.0458
1613.4716
1614.7641
1608.7017
1597.7597
1584.0283
1569.1942
1554.5866
1541.2123
1529.7896
1520.8526
1514.9872
1512.6934
9.3565025
19.364704
30.008342
39.956357
49.101899
57.191888
63.988312
69.26154
72.816003
74.529342
74.408055
72.661257
69.801758
66.7698
65.018112
66.459644
73.249553
87.495565
111.02118
145.23575
191.09831
249.13283
319.44846
401.73654
495.23703
598.68204
710.22641
827.37304
946.92371
1065.0319
1177.4571
1280.0604
1369.4252
1443.36
1501.0941
1543.1582
1571.0666
1586.9345
1593.1293
1592.0069
1585.7417
1576.2383
1565.0919
1553.5959
1542.7635
1533.3523
1525.9435
1521.096
1519.2104
8.9349395
18.485956
28.6501
38.160493
46.92286
54.715703
61.346581
66.648581
70.506361
72.892318
73.915243
73.881815
73.372993
73.323742
75.062174
80.252113
90.729966
108.29451
134.52468
170.6634
217.56518
275.68318
345.06664
425.34902
515.72087
614.89168
721.04862
831.82325
944.29372
1055.0745
1160.5505
1257.264
1342.365
1413.9707
1471.3164
1514.6884
1545.2058
1564.5396
1574.6427
1577.529
1575.12
1569.1526
1561.1297
1552.3026
1543.6751
1536.0297
1529.9955
1526.1074
1524.6261
8.549104
17.743456
27.539698
36.720632
45.201163
52.78814
59.328807
64.708725
68.877138
71.880002
73.902273
75.318387
76.748805
79.10973
83.625659
91.773014
105.15327
125.33313
153.69927
191.35466
239.05853
297.19695
365.76608
444.35493
532.12321
627.77708
729.54965
835.19744
942.03521
1047.0435
1147.0791
1239.1826
1320.9147
1390.6225
1447.5582
1491.8426
1524.3118
1546.3085
1559.468
1565.5345
1566.2221
1563.1244
1557.6591
1551.0352
1544.2389
1538.0664
1533.2129
1530.2279
1529.1731
8.1798104
17.102098
26.616397
35.5494
43.821711
51.264893
57.758967
63.231171
67.68042
71.207624
74.052684
76.635888
79.599508
83.837485
90.492431
100.90238
116.49794
138.67451
168.67212
207.48184
255.78272
313.90298
381.79479
459.01396
544.70178
637.57104
735.90253
837.56218
940.05594
1040.6445
1136.5325
1225.1188
1304.2583
1372.4659
1429.0139
1473.9121
1507.7983
1531.7773
1547.249
1555.7519
1558.8386
1557.9875
1554.5457
1549.6888
1544.386
1539.4367
1535.6168
1533.5682
1533.0776
7.807481
16.603275
25.940296
34.712496
42.847007
50.199362
56.6766
62.238027
66.919295
70.860821
74.340588
77.808694
81.918335
87.542418
95.761709
107.81606
125.0174
148.64071
179.82017
219.4634
268.1876
326.27576
393.6465
469.83225
553.96404
644.76489
740.55739
839.29434
938.62559
1036.0147
1128.911
1214.9613
1292.2229
1359.3287
1415.5683
1460.88
1495.7668
1521.1689
1538.3192
1548.6077
1553.4681
1554.2919
1552.3722
1548.8589
1544.7053
1540.6821
1537.6139
1536.3936
1536.6787
7.304176
16.167708
25.424194
34.111415
42.165221
49.465597
55.940367
61.571007
66.417273
70.644625
74.554376
78.613701
83.480031
90.010537
99.246082
112.36655
130.6103
155.17368
187.12059
227.30319
276.29689
334.35382
401.37009
476.86324
559.95898
649.38923
743.50673
840.32382
937.58584
1032.8878
1123.8345
1208.2292
1284.2562
1350.6233
1406.6334
1452.1814
1487.687
1513.986
1532.2048
1543.6366
1549.6371
1551.5382
1550.5926
1547.936
1544.5155
1541.047
1538.3506
1537.9199
1540.113
6.0814757
15.835491
25.143193
33.822827
41.845946
49.124568
55.600734
61.268121
66.198789
70.570727
74.696994
79.053517
84.300596
91.290233
101.04807
114.71785
133.49025
158.52476
190.85534
231.30728
280.43509
338.47525
405.31238
480.45646
563.03064
651.77171
745.0481
840.90273
937.12926
1031.3884
1121.3624
1204.9312
1280.3423
1346.3406
1402.2364
1447.9043
1483.7238
1510.4797
1529.2464
1541.2703
1547.8634
1550.3271
1549.9021
1547.7274
1544.7603
1541.676
1539.2602
1539.7832
1545.6254
-2227.7592
-2483.6265
-2699.5411
-2881.4863
-3023.9704
-3106.2177
-3108.2286
-3029.2244
-2857.2816
-2664.0059
-3205.3916
-3205.2835
-3198.4381
-3187.4514
-3173.3372
-3160.5845
-3148.7488
-3158.2153
-3158.8176
-3131.4133
-3183.0333
-3181.9089
-3167.1546
-3150.1914
-3133.2762
-3124.2852
-3105.9926
-3113.2098
-3100.0784
-3046.5525
-3137.8444
-3135.1824
-3126.5791
-3117.8832
-3109.0896
-3112.1016
-3101.0059
-3098.9734
-3085.5723
-3048.7105
-3078.1525
-3076.7178
-3072.1723
-3066.2549
-3057.7495
-3058.1498
-3057.8152
-3057.1448
-3055.6662
-3059.403
-3030.171
-3029.3787
-3023.6177
-3013.4564
-2998.2012
-2968.6389
-2990.803
-3003.1039
-3009.7497
-3023.0987
-3013.4144
-3015.1084
-3018.36
-3021.747
-3032.6633
-3008.5369
-3008.2154
-3004.5885
-2989.6707
-2966.6829
-3027.9251
-3029.556
-3035.6419
-3044.3385
-3068.3888
-3076.105
-3056.7237
-3030.7062
-3000.8693
-2965.4653
-3848.453
-3860.7651
-3831.7262
-3787.3166
-3749.7567
-3717.6916
-3696.1882
-3682.4621
-3673.5222
-3675.2643
-2986.9835
-2985.7914
-2977.9101
-2960.9542
-2921.5862
-2946.9474
-2958.9524
-2961.1453
-2950.6596
-2923.5527
-3009.2495
-3012.3259
-3018.6892
-3037.9318
-3013.9708
-3005.251
-3001.3
-2993.8849
-2979.8951
-2964.7536
-3048.5097
-3050.9625
-3056.1409
-3080.7307
-3093.5001
-3069.4274
-3042.6951
-3022.4103
-3003.5412
-2987.0553
-2999.6642
-2995.8355
-2976.947
-2951.6665
-2974.6036
-2992.0842
-3003.3226
-3010.7418
-3013.0043
-3020.0213
-3033.2694
-3035.7296
-3034.8662
-2997.9757
-3007.1087
-3020.7212
-3031.5209
-3038.7535
-3041.8025
-3051.3667
-3156.8909
-3164.6847
-3188.9178
-3187.4474
-3159.5482
-3131.7573
-3111.064
-3095.6711
-3080.2537
-3063.0208
-3141.9769
-3137.1421
-3129.6584
-3149.8291
-3150.4233
-3144.6311
-3138.4091
-3132.9744
-3126.9767
-3128.8792
-3162.7536
-3162.0329
-3137.7483
-3147.9026
-3159.3485
-3167.4848
-3171.9054
-3173.7095
-3173.0004
-3177.7021
-3277.1147
-3289.5179
-3285.4669
-3271.1257
-3255.8042
-3243.7637
-3235.0324
-3229.239
-3222.424
-3213.8638
-3282.489
-3286.5607
-3294.0154
-3285.9372
-3276.2938
-3270.7935
-3270.5583
-3274.9995
-3280.0403
-3292.3428
-3186.3244
-3172.2144
-3189.5509
-3215.4277
-3244.901
-3273.5979
-3300.5718
-3325.1447
-3345.2976
-3370.2629
-3326.051
-3302.4319
-3312.0395
-3332.3474
-3359.1111
-3384.3592
-3406.8249
-3425.2564
-3437.775
-3453.49
-3701.673
-3692.6536
-3661.955
-3627.8841
-3602.8055
-3583.3205
-3571.2307
-3564.0729
-3557.9581
-3555.0922
-3016.6817
-3015.1561
-3009.7411
-2998.1231
-2992.6378
-2999.8963
-2999.533
-2994.182
-2984.9494
-2983.9255
-3540.5428
-3549.1397
-3563.5738
-3610.8577
-3667.0333
-3718.8649
-3739.9473
-3721.8083
-3638.1076
-3466.2578
-3268.7622
-3268.997
-3271.9465
-3276.8148
-3277.9257
-3277.0297
-3275.0686
-3269.9238
-3265.7661
-3219.2889
-3179.5288
-3227.5552
-3289.67
-3394.3733
-3505.699
-3592.5249
-3635.0808
-3595.2114
-3447.0681
-3214.639
-3480.2816
-3490.3252
-3511.2559
-3547.9552
-3581.6036
-3610.2633
-3618.8344
-3618.3297
-3582.5515
-3470.1623
-3367.3495
-3371.7395
-3385.9191
-3409.8775
-3430.8385
-3448.4946
-3456.6202
-3446.2014
-3433.5836
-3381.832
11318.722
10715.547
10129.574
9489.9392
8832.846
8179.5391
7545.1803
6936.7837
6347.344
5770.3041
8301.8486
8224.5317
8101.2597
7839.6076
7501.7193
7111.285
6689.6066
6254.5662
5816.399
5360.0011
-3709.5024
-3727.9381
-3745.3455
-3751.3115
-3759.9999
-3763.264
-3768.0593
-3771.4949
-3772.82
-3776.3116
-3705.8529
-3709.7042
-3745.0504
-3776.281
-3815.3397
-3842.5113
-3866.4375
-3882.4674
-3891.1148
-3895.3026
-3946.5153
-3939.2799
-3955.5089
-3963.086
-3991.466
-4009.8457
-4029.6726
-4042.6489
-4048.0682
-4043.6183
-4222.4229
-4212.0679
-4226.3368
-4216.9233
-4232.9945
-4234.8765
-4241.3992
-4242.4478
-4238.8758
-4234.5147
-4544.8763
-4526.7366
-4538.4818
-4511.4467
-4515.2325
-4497.3857
-4484.9276
-4464.9006
-4437.2332
-4404.8726
-4901.105
-4873.8829
-4883.4899
-4837.0688
-4828.6368
-4790.1479
-4757.3171
-4713.895
-4659.2255
-4599.0146
-5281.8491
-5243.3988
-5252.0389
-5185.2216
-5165.6715
-5107.5829
-5056.1875
-4992.7186
-4916.4633
-4831.1513
-5682.8597
-5630.7847
-5639.6094
-5550.5883
-5519.7715
-5441.5435
-5370.8773
-5288.4424
-5198.4685
-5115.9181
-6105.0436
-6035.9211
-6045.7702
-5931.7759
-5888.3053
-5787.8965
-5693.5291
-5583.5006
-5458.1875
-5322.587
-6548.5
-6458.4122
-6470.8429
-6329.198
-6271.9439
-6149.0592
-6030.8962
-5896.7841
-5747.178
-5585.4188
-7019.3411
-6902.2101
-6917.9742
-6744.4914
-6670.3452
-6522.7544
-6376.8531
-6214.6282
-6036.1368
-5850.2662
-7516.44
-7366.2087
-7388.3261
-7179.8868
-7085.7237
-6911.6633
-6733.8684
-6537.786
-6319.1649
-6081.8848
-8058.1146
-7863.4476
-7892.3975