/*--------------------------------*- C++ -*----------------------------------*\
| =========                 |                                                 |
| \\      /  F ield         | foam-extend: Open Source CFD                    |
|  \\    /   O peration     | Version:     4.1                                |
|   \\  /    A nd           | Web:         http://www.foam-extend.org         |
|    \\/     M anipulation  |                                                 |
\*---------------------------------------------------------------------------*/
FoamFile
{
    version     2.0;
    format      ascii;
    class       surfaceScalarField;
    location    "1.1";
    object      phi;
}
// * * * * * * * * * * * * * * * * * * * * * * * * * * * * * * * * * * * * * //

dimensions      [0 3 -1 0 0 0 0];

internalField   nonuniform List<scalar> 
8438
(
-0.59716188
0.0016987987
-0.59892802
0.0017661416
-0.60073108
0.0018030658
-0.60258001
0.0018489287
-0.60448446
0.0019044508
-0.60645475
0.0019702832
-0.60850011
0.0020453674
-0.610628
0.0021278822
-0.61284329
0.0022152931
-0.61514765
0.0023043615
-0.61753879
0.002391136
-0.62000977
0.0024709829
-0.62254846
0.0025386869
-0.6251371
0.0025886449
-0.62775226
0.0026151557
-0.63036507
0.0026128088
-0.63294188
0.0025768161
-0.63544522
0.0025033437
-0.63783488
0.0023896579
-0.64006899
0.0022341125
-0.64210504
0.0020360491
-0.64390071
0.0017956655
-0.64541466
0.0015139562
-0.64660746
0.0011927965
-0.64744269
0.00083523195
-0.64788868
0.00044599096
-0.64792054
3.1856946e-05
-0.64752166
-0.00039888278
-0.64668779
-0.00083386659
-0.64543112
-0.0012566701
-0.64378109
-0.0016500346
-0.64178418
-0.0019969025
-0.63950184
-0.0022823468
-0.63700637
-0.0024954733
-0.63437573
-0.0026306356
-0.63168805
-0.0026876816
-0.62901675
-0.0026712989
-0.62642698
-0.0025897703
-0.62397347
-0.0024535066
-0.6216998
-0.0022736679
-0.61963874
-0.0020610648
-0.61781334
-0.001825404
-0.61623848
-0.0015748542
-0.61492253
-0.001315955
-0.61386844
-0.0010540879
-0.6130743
-0.00079414148
-0.61253625
-0.00053805125
-0.61225924
-0.00027701157
-1.4285733e-05
-0.61095766
0.0031894661
-0.61244376
0.0032522411
-0.61395904
0.0033183522
-0.6155167
0.003406582
-0.61712907
0.0035168225
-0.61880724
0.0036484562
-0.62056092
0.0037990421
-0.62239788
0.0039648456
-0.62432337
0.0041407888
-0.62633941
0.004320396
-0.62844402
0.0044957505
-0.63063058
0.004657541
-0.63288715
0.0047952529
-0.63519605
0.0048975541
-0.63753378
0.0049528851
-0.63987123
0.0049502583
-0.64217438
0.0048799599
-0.64440527
0.0047342365
-0.64652321
0.0045075962
-0.64848586
0.0041967696
-0.65025029
0.0038004763
-0.65177375
0.0033191257
-0.65301446
0.0027546699
-0.65393243
0.0021107614
-0.65449052
0.0013933254
-0.65465608
0.00061155278
-0.65440332
-0.0002209052
-0.65371732
-0.0010848806
-0.65259575
-0.0019554451
-0.65105011
-0.0028023078
-0.64910899
-0.0035911539
-0.64681855
-0.0042873454
-0.64424052
-0.0048603749
-0.64144803
-0.0052879607
-0.63852005
-0.0055586125
-0.63553561
-0.0056721219
-0.63256875
-0.0056381595
-0.62968486
-0.0054736622
-0.62693858
-0.0051997913
-0.62437314
-0.0048391097
-0.62202085
-0.0044133557
-0.61990431
-0.0039419375
-0.61803807
-0.0034411023
-0.61643022
-0.0029237969
-0.615084
-0.0024003113
-0.61399952
-0.001878618
-0.61317613
-0.0013614437
-0.61260536
-0.0008477796
-0.00037484943
-0.61201482
0.004630089
-0.61345573
0.0046931549
-0.61492344
0.0047860634
-0.61643282
0.0049159604
-0.61799706
0.0050810667
-0.61962786
0.0052792491
-0.62133539
0.0055065759
-0.62312796
0.0057574173
-0.62501139
0.0060242174
-0.62698832
0.0062973294
-0.62905748
0.0065649069
-0.63121288
0.0068129402
-0.63344314
0.0070255177
-0.63573099
0.0071853966
-0.63805301
0.0072749101
-0.64037998
0.0072772235
-0.64267749
0.0071774721
-0.64490711
0.0069638562
-0.64702762
0.00662811
-0.64899625
0.0061653998
-0.65076966
0.0055738887
-0.65230473
0.0048541901
-0.65355913
0.0040090715
-0.65449202
0.0030436556
-0.65506499
0.0019662895
-0.65524355
0.00079011314
-0.65499951
-0.00046494139
-0.65431369
-0.0017706978
-0.65317942
-0.0030897172
-0.65160629
-0.0043754351
-0.64962274
-0.0055747138
-0.6472766
-0.006633477
-0.64463305
-0.0075039275
-0.64176974
-0.0081512756
-0.63877044
-0.0085579046
-0.6357185
-0.0087240638
-0.6326912
-0.0086654639
-0.62975589
-0.0084089732
-0.62696795
-0.0079877248
-0.62437039
-0.0074366732
-0.62199458
-0.0067891667
-0.61986182
-0.0060746949
-0.6179852
-0.0053177294
-0.61637142
-0.0045375715
-0.61502278
-0.0037489573
-0.61393929
-0.002962106
-0.61311907
-0.002181665
-0.61255341
-0.0014134342
-0.00068331212
-0.61237176
0.0060414972
-0.61379247
0.0061138674
-0.61524063
0.0062342232
-0.6167311
0.0064064384
-0.61827757
0.006627533
-0.61989242
0.006894094
-0.62158661
0.0072007701
-0.62336931
0.0075401138
-0.62524725
0.0079021656
-0.62722408
0.0082741511
-0.62929944
0.0086402728
-0.6314682
0.0089817024
-0.63371957
0.0092768839
-0.63603645
0.0095022774
-0.63839515
0.0096336116
-0.64076561
0.0096476816
-0.64311218
0.0095240396
-0.64539492
0.009246599
-0.64757111
0.0088042996
-0.64959659
0.0081908848
-0.65142685
0.0074041429
-0.65301764
0.0064449818
-0.65432544
0.0053168731
-0.65530782
0.0040260413
-0.65592417
0.00258264
-0.65613705
0.0010029902
-0.65591452
-0.00068747009
-0.65523341
-0.0024518108
-0.65408337
-0.0042397621
-0.65247143
-0.0059873685
-0.65042571
-0.0076204371
-0.64799665
-0.0090625388
-0.64525477
-0.010245801
-0.64228495
-0.011121102
-0.63917858
-0.011664269
-0.63602576
-0.011876886
-0.63290878
-0.01178244
-0.62989797
-0.011419786
-0.62704974
-0.010835953
-0.6244066
-0.010079813
-0.62199842
-0.0091973506
-0.61984442
-0.0082286948
-0.61795543
-0.007206722
-0.61633605
-0.0061569464
-0.61498687
-0.0050981432
-0.61390631
-0.0040426645
-0.61309061
-0.0029973603
-0.6125342
-0.0019698455
-0.00097256468
-0.61279394
0.0074261198
-0.61419172
0.0075116495
-0.61561794
0.0076604418
-0.61708766
0.0078761576
-0.61861504
0.0081549159
-0.62021326
0.0084923161
-0.62189425
0.0088817565
-0.62366826
0.0093141214
-0.62554326
0.0097771739
-0.6275242
0.010255088
-0.62961203
0.010728098
-0.63180273
0.011172407
-0.63408633
0.011560481
-0.636446
0.011861949
-0.63885761
0.012045226
-0.64128991
0.012079982
-0.64370544
0.011939563
-0.64606211
0.011603272
-0.64831508
0.011057276
-0.65041837
0.010294171
-0.65232594
0.0093117124
-0.65399226
0.0081113036
-0.65537241
0.0066970211
-0.65642207
0.0050757016
-0.65709786
0.0032584347
-0.65735846
0.0012635862
-0.6571669
-0.00087903462
-0.65649431
-0.0031244006
-0.65532479
-0.0054092785
-0.65366135
-0.0076508049
-0.65153125
-0.0097505369
-0.64898843
-0.011605365
-0.64611109
-0.013123143
-0.64299449
-0.014237697
-0.63974102
-0.014917739
-0.63645032
-0.015167591
-0.6332116
-0.015021159
-0.63009908
-0.014532306
-0.62717033
-0.013764707
-0.62446688
-0.012783259
-0.62201628
-0.011647949
-0.61983475
-0.010410233
-0.61792993
-0.0091115408
-0.61630354
-0.007783335
-0.61495371
-0.0064479691
-0.61387672
-0.0051196547
-0.61306746
-0.0038066236
-0.61252183
-0.0025154755
-0.0012495946
-0.61332806
0.0087788722
-0.61469657
0.0088801554
-0.61609489
0.0090587715
-0.61753828
0.0093195429
-0.61904146
0.0096580971
-0.62061851
0.010069369
-0.62228251
0.010545754
-0.62404508
0.011076694
-0.62591578
0.011647871
-0.62790123
0.01224054
-0.63000412
0.012830984
-0.63222198
0.013390272
-0.63454599
0.013884489
-0.63695977
0.014275732
-0.63943869
0.014524143
-0.64194991
0.0145912
-0.6444535
0.014443159
-0.6469045
0.014054273
-0.64925525
0.013408019
-0.65145739
0.012496312
-0.65346312
0.011317442
-0.65522549
0.0098736766
-0.65669809
0.0081696257
-0.6578345
0.0062121043
-0.658588
0.0040119375
-0.65891233
0.0015879209
-0.65876394
-0.001027428
-0.65810621
-0.0037821282
-0.65691534
-0.0066001465
-0.65518824
-0.0093779079
-0.65295037
-0.011988407
-0.65026008
-0.014295658
-0.64720612
-0.016177097
-0.64389824
-0.017545578
-0.64045395
-0.01836203
-0.63698582
-0.018635727
-0.63359209
-0.018414883
-0.63035174
-0.017772654
-0.62732334
-0.016793114
-0.62454665
-0.01555995
-0.62204574
-0.014148852
-0.61983259
-0.012623387
-0.6179105
-0.01103363
-0.61627722
-0.0094166218
-0.61492744
-0.0077977492
-0.61385458
-0.0061925069
-0.61305188
-0.0046093315
-0.61251486
-0.0030524948
-0.0015195012
-0.61397735
0.010096039
-0.6153107
0.010213512
-0.61667483
0.010422898
-0.61808566
0.01073037
-0.61955871
0.011131152
-0.62110913
0.011619789
-0.62275134
0.012187966
-0.62449864
0.012823988
-0.6263625
0.013511737
-0.62835172
0.014229759
-0.63047119
0.014950457
-0.63272054
0.015639617
-0.63509253
0.016256481
-0.63757153
0.016754738
-0.64013236
0.017084972
-0.64274016
0.017198994
-0.64535173
0.017054729
-0.64791823
0.016620775
-0.65038832
0.015878114
-0.65271077
0.014818754
-0.65483576
0.013442438
-0.65671501
0.011752931
-0.65830079
0.0097553977
-0.65954453
0.0074558526
-0.66039585
0.0048632572
-0.66080253
0.001994594
-0.6607126
-0.0011173575
-0.66007915
-0.0044155763
-0.65886733
-0.0078119703
-0.65706491
-0.011180328
-0.65469388
-0.014359432
-0.65181788
-0.017171659
-0.64853988
-0.019455097
-0.64498945
-0.021096015
-0.64130461
-0.022046868
-0.63761499
-0.022325339
-0.63403027
-0.021999609
-0.63063485
-0.021168072
-0.62748779
-0.019940172
-0.62462589
-0.018421857
-0.62206824
-0.016706495
-0.6198211
-0.014870535
-0.6178821
-0.012972621
-0.61624393
-0.011054801
-0.61489694
-0.00914474
-0.61383107
-0.0072583717
-0.61303718
-0.0054032222
-0.61250904
-0.0035806366
-0.001783589
-0.61473637
0.011369329
-0.61602743
0.011504566
-0.61735064
0.011746117
-0.61872239
0.012102117
-0.62015903
0.012567793
-0.6216769
0.013137652
-0.62329197
0.01380304
-0.62501949
0.014551514
-0.62687331
0.01536555
-0.62886485
0.016221301
-0.63100184
0.017087452
-0.63328663
0.017924408
-0.63571422
0.018684064
-0.63827013
0.019310647
-0.64092866
0.019743501
-0.64365239
0.019922728
-0.64639381
0.019796149
-0.64909892
0.019325888
-0.65171161
0.018490803
-0.65417709
0.017284231
-0.65644348
0.01570883
-0.65846145
0.013770899
-0.66018239
0.011476342
-0.66155599
0.0088294553
-0.66252799
0.0058352572
-0.66303927
0.0025058732
-0.66302747
-0.0011291616
-0.66243224
-0.0050108084
-0.66120352
-0.0090406901
-0.65931557
-0.013068275
-0.65678403
-0.016890969
-0.65367853
-0.020277164
-0.65012109
-0.023012531
-0.64626839
-0.024948713
-0.64228611
-0.026029153
-0.63832609
-0.026285362
-0.63451197
-0.025813724
-0.63093399
-0.024746051
-0.62765055
-0.023223614
-0.62469358
-0.021378831
-0.62207517
-0.019324905
-0.61979393
-0.017151775
-0.61784029
-0.014926258
-0.61620059
-0.012694496
-0.61486
-0.010485334
-0.61380438
-0.0083139881
-0.61302167
-0.0061859367
-0.61250325
-0.0040990562
-0.002042039
-0.61560615
0.012595283
-0.61684895
0.012747362
-0.61812444
0.013021606
-0.61945009
0.013427773
-0.62084332
0.013961024
-0.62232179
0.014616123
-0.62390325
0.0153845
-0.62560521
0.016253466
-0.62744426
0.017204607
-0.62943512
0.018212155
-0.63158904
0.019241374
-0.63391192
0.020247285
-0.63640181
0.021173956
-0.63904608
0.021954919
-0.64181868
0.022516102
-0.64467902
0.022783069
-0.64757386
0.022690993
-0.65044233
0.022194354
-0.65322206
0.021270537
-0.655854
0.019916172
-0.65828425
0.018139082
-0.66046309
0.015949737
-0.66234199
0.013355235
-0.66386964
0.010357108
-0.66498816
0.0069537764
-0.66563073
0.0031484462
-0.66572237
-0.0010375217
-0.66518544
-0.0055477366
-0.66394917
-0.010276962
-0.66196791
-0.01504954
-0.65924613
-0.019612749
-0.6558597
-0.023663592
-0.6519563
-0.026915933
-0.64772989
-0.02917512
-0.64338347
-0.030375575
-0.63909762
-0.030571211
-0.63501272
-0.029898622
-0.63122457
-0.028534205
-0.62778887
-0.026659307
-0.62472997
-0.024437738
-0.62205019
-0.022004683
-0.61973818
-0.019463789
-0.61777528
-0.016889154
-0.61614017
-0.014329605
-0.61481186
-0.011813651
-0.61377152
-0.0093543219
-0.61300367
-0.0069537912
-0.61249701
-0.0046057188
-0.0022940942
-0.61658046
0.013762186
-0.61776637
0.013933271
-0.61898645
0.014241686
-0.62025843
0.014699757
-0.62160065
0.015303244
-0.62303217
0.016047638
-0.62457266
0.016924988
-0.62624218
0.017922988
-0.6280606
0.019023027
-0.63004652
0.020198078
-0.63221563
0.021410482
-0.63457839
0.022610043
-0.63713704
0.023732611
-0.63988179
0.024699667
-0.64278664
0.025420952
-0.6458071
0.025803534
-0.64888231
0.025766203
-0.65194205
0.025254088
-0.65491569
0.024244177
-0.65773898
0.022739464
-0.66035628
0.020756388
-0.66271863
0.018312082
-0.6647791
0.015415705
-0.66648689
0.012064901
-0.66778128
0.0082481627
-0.66858726
0.0039544335
-0.66881494
-0.00080984477
-0.66836472
-0.0059979577
-0.66713795
-0.011503731
-0.66505987
-0.017127623
-0.66211582
-0.022556794
-0.65838713
-0.027392283
-0.65405621
-0.03124685
-0.64936905
-0.033862286
-0.64457929
-0.035165337
-0.63990451
-0.035245991
-0.63550448
-0.034298646
-0.63147923
-0.032559457
-0.62787837
-0.030260165
-0.62471467
-0.027601441
-0.62197711
-0.024742245
-0.61964147
-0.021799428
-0.61767794
-0.018852681
-0.61605611
-0.015951439
-0.61474794
-0.013121823
-0.61372939
-0.010372866
-0.61298119
-0.0077019902
-0.61248925
-0.0050976622
-0.0025383937
-0.61765902
0.014869192
-0.61878253
0.015056776
-0.61993998
0.015399141
-0.62115054
0.015910319
-0.62243366
0.016586358
-0.62380985
0.017423834
-0.62530087
0.018416007
-0.62692961
0.019551724
-0.62871965
0.020813073
-0.63069427
0.022172692
-0.63287456
0.023590775
-0.63527685
0.025012335
-0.63790909
0.026364844
-0.64076579
0.027556367
-0.64382184
0.028477006
-0.64702811
0.029009801
-0.65031349
0.029051587
-0.65359495
0.028535541
-0.65679077
0.02744
-0.65983042
0.025779112
-0.66265718
0.023583153
-0.66522469
0.020879594
-0.66749004
0.017681057
-0.6694053
0.013980157
-0.67090849
0.009751358
-0.67191642
0.0049623613
-0.67232212
-0.00040415031
-0.67199833
-0.0063217411
-0.67080938
-0.012692682
-0.66863829
-0.01929872
-0.66543817
-0.025756916
-0.6612927
-0.031537746
-0.65643197
-0.036107586
-0.65117578
-0.03911847
-0.64584723
-0.04049389
-0.64071128
-0.040381941
-0.63594919
-0.039060731
-0.63166202
-0.036846637
-0.62788783
-0.034034351
-0.62462225
-0.030867023
-0.62183621
-0.027528279
-0.61948919
-0.024146446
-0.61753788
-0.020803995
-0.61594133
-0.017547987
-0.61466368
-0.014399479
-0.61367525
-0.011361295
-0.6129528
-0.0084244362
-0.61247947
-0.0055709966
-0.0027730618
-0.61883646
0.015899591
-0.61988688
0.016107198
-0.62097281
0.016485074
-0.62211306
0.017050567
-0.6233278
0.017801096
-0.62463893
0.018734961
-0.62607031
0.019847393
-0.62764792
0.021129332
-0.62939956
0.022564717
-0.63135399
0.024127117
-0.63353895
0.025775741
-0.63597825
0.027451631
-0.63868752
0.029074113
-0.64166786
0.030536715
-0.64489663
0.031705767
-0.64831932
0.032432495
-0.65185099
0.032583263
-0.65539061
0.032075158
-0.6588412
0.03089059
-0.66212441
0.02906232
-0.66518358
0.026642321
-0.66797765
0.023673672
-0.67047116
0.020174565
-0.67262259
0.016131585
-0.67437159
0.011500358
-0.6756275
0.0062182695
-0.67626401
0.00023236453
-0.67612051
-0.0064652433
-0.67501368
-0.013799508
-0.67276539
-0.021547015
-0.66927501
-0.029247295
-0.6646207
-0.036192053
-0.65909869
-0.041629595
-0.65313616
-0.045081003
-0.64715231
-0.046477744
-0.64147242
-0.046061823
-0.63629973
-0.044233428
-0.63172998
-0.041416381
-0.62778134
-0.037982997
-0.62442452
-0.034223841
-0.62160649
-0.030346308
-0.61926637
-0.026486567
-0.61734489
-0.022725482
-0.61578923
-0.019103638
-0.61455509
-0.015633623
-0.61360695
-0.012309429
-0.61291765
-0.0091137442
-0.61246767
-0.0060209752
-0.00299578
-0.62010339
0.016857149
-0.62107629
0.017080095
-0.62208335
0.017492136
-0.623145
0.018112213
-0.62428233
0.018938429
-0.62551858
0.019971213
-0.62687974
0.021208552
-0.628395
0.022644587
-0.63009681
0.024266529
-0.63202026
0.026050566
-0.63420112
0.027956602
-0.63667254
0.029923053
-0.6394604
0.031861972
-0.64257557
0.033651886
-0.64600055
0.035130747
-0.64967511
0.03610705
-0.65349531
0.036403466
-0.65733438
0.035914232
-0.66107394
0.03463015
-0.66462601
0.032614389
-0.66793624
0.029952555
-0.67097328
0.026710704
-0.67371411
0.022915397
-0.67612895
0.018546424
-0.67816371
0.013535123
-0.67972232
0.0077768807
-0.68065647
0.001166508
-0.68076647
-0.0063552438
-0.67980913
-0.014756842
-0.67751922
-0.023836926
-0.67370751
-0.033059004
-0.66842887
-0.041470699
-0.66207236
-0.047986106
-0.65522583
-0.051927526
-0.64844298
-0.053260595
-0.64212495
-0.052379854
-0.63649375
-0.049864628
-0.6316285
-0.04628163
-0.62751473
-0.042096769
-0.62408782
-0.037650754
-0.62126341
-0.033170712
-0.61895578
-0.028794201
-0.61708725
-0.024594012
-0.61559209
-0.020598793
-0.61441724
-0.016808474
-0.61352148
-0.013205195
-0.61287395
-0.0097612726
-0.61245286
-0.0064420632
-0.0032038408
-0.62146335
0.017718506
-0.62234562
0.017962365
-0.62326365
0.018410173
-0.62423641
0.019084966
-0.6252851
0.019987123
-0.62643392
0.021120029
-0.62771078
0.022485417
-0.62914813
0.024081935
-0.63078341
0.025901815
-0.63265893
0.027926086
-0.63482008
0.030117745
-0.6373117
0.032414679
-0.64017321
0.034723481
-0.64342996
0.036908637
-0.64707457
0.038775359
-0.65104187
0.040074346
-0.65520206
0.040563661
-0.65939107
0.040103236
-0.66345987
0.038698948
-0.66730848
0.036463007
-0.67088853
0.033532603
-0.67418434
0.030006514
-0.67719162
0.025922673
-0.67989887
0.021253675
-0.6822649
0.015901156
-0.68419241
0.009704396
-0.68551095
0.0024850465
-0.68597507
-0.0058911269
-0.68526725
-0.01546466
-0.68300308
-0.026101096
-0.67884927
-0.037212813
-0.67279949
-0.047520477
-0.66537359
-0.055412006
-0.65740862
-0.059892498
-0.649648
-0.061021217
-0.64258618
-0.059441672
-0.63645341
-0.055997399
-0.63129263
-0.051442414
-0.62703809
-0.046351304
-0.62357604
-0.041112802
-0.62078214
-0.035964618
-0.61854107
-0.031035273
-0.6167547
-0.026380383
-0.61534381
-0.02200968
-0.61424681
-0.017905474
-0.61341728
-0.01403472
-0.61282131
-0.010357246
-0.61243532
-0.0068280498
-0.0033942137
-0.62288505
0.018493932
-0.62367376
0.018751071
-0.62449528
0.019231696
-0.6253702
0.019959886
-0.6263201
0.020937024
-0.62736993
0.02216986
-0.62854935
0.023664836
-0.62989397
0.025426551
-0.63144645
0.027454301
-0.63325714
0.029736774
-0.63538278
0.032243385
-0.63788264
0.034914536
-0.64081349
0.037654334
-0.64422143
0.040316577
-0.64811724
0.042671167
-0.6524335
0.04439061
-0.6570044
0.045134566
-0.66160975
0.044708578
-0.66605486
0.043144062
-0.67022426
0.040632407
-0.67408189
0.037390236
-0.67763729
0.033561912
-0.68091392
0.029199302
-0.68392847
0.024268227
-0.68666401
0.01863669
-0.68903057
0.012070962
-0.69083675
0.0042912294
-0.69178522
-0.0049426599
-0.69147073
-0.015779148
-0.68934976
-0.028222075
-0.68485786
-0.041704712
-0.67784907
-0.054529267
-0.66902494
-0.064236136
-0.65962585
-0.069291587
-0.6506639
-0.06998317
-0.64274363
-0.067361938
-0.63607854
-0.062662495
-0.63064302
-0.056877928
-0.62629335
-0.050700974
-0.62284907
-0.044557081
-0.62013614
-0.038677545
-0.61800533
-0.033166084
-0.61633678
-0.028048936
-0.6150381
-0.023308365
-0.6140401
-0.018903471
-0.61329225
-0.014782567
-0.61275853
-0.01089097
-0.61241437
-0.0071722112
-0.003563632
-0.62439953
0.01915152
-0.62507957
0.019431111
-0.6257944
0.019946522
-0.62656126
0.020726745
-0.62740065
0.02177642
-0.62833744
0.023106653
-0.62940235
0.024729747
-0.63063364
0.026657834
-0.63207891
0.028899575
-0.63379694
0.0314548
-0.63585748
0.034303928
-0.63833724
0.037394296
-0.6413148
0.040631893
-0.64486522
0.043867001
-0.64903105
0.046836996
-0.65375093
0.049110492
-0.65881024
0.050193871
-0.66390424
0.049802579
-0.66877073
0.04801055
-0.67327607
0.045137748
-0.67740946
0.041523627
-0.68122076
0.037373216
-0.68477192
0.03275046
-0.6881177
0.027614006
-0.69127851
0.0217975
-0.6941822
0.014974655
-0.69661747
0.0067264971
-0.69822882
-0.0033313062
-0.69851323
-0.015494735
-0.69673083
-0.030004474
-0.69195816
-0.046477383
-0.68375181
-0.062735619
-0.67305211
-0.074935833
-0.66178537
-0.080558327
-0.65134228
-0.080426264
-0.64244694
-0.076257281
-0.63524381
-0.069865622
-0.62958676
-0.062534974
-0.62521693
-0.055070807
-0.62186599
-0.047908023
-0.61930042
-0.041243115
-0.61733398
-0.035132521
-0.61582538
-0.029557543
-0.61467065
-0.024463089
-0.61379496
-0.019779157
-0.61314539
-0.015432139
-0.6126852
-0.011351159
-0.61238988
-0.0074675386
-0.0037087084
-0.62592522
0.019710774
-0.62649565
0.020001536
-0.62709573
0.020546601
-0.62774402
0.021375039
-0.62846021
0.022492607
-0.62926867
0.023915112
-0.63020069
0.025661773
-0.63129679
0.027753931
-0.63260935
0.030212132
-0.634206
0.033051457
-0.63617159
0.036269517
-0.63860427
0.039826971
-0.64160967
0.043637296
-0.64530189
0.047559227
-0.64977676
0.051311865
-0.65499757
0.054331295
-0.66068331
0.055879611
-0.66639616
0.055515431
-0.67176787
0.053382261
-0.67663997
0.05000985
-0.68104586
0.045929517
-0.68509569
0.041423046
-0.68890012
0.036554889
-0.69256174
0.031275626
-0.6961604
0.025396159
-0.69966665
0.01848091
-0.70286285
0.0099226973
-0.70533923
-0.00085492944
-0.70649108
-0.014342883
-0.70535827
-0.031137281
-0.7004722
-0.051363455
-0.69077843
-0.072429389
-0.67748102
-0.088233239
-0.66373953
-0.094299826
-0.65146758
-0.09269821
-0.64149484
-0.086230017
-0.6337942
-0.07756626
-0.62801778
-0.0683114
-0.62374225
-0.059346333
-0.62058794
-0.051062337
-0.61825386
-0.043577195
-0.61651649
-0.036869889
-0.61521585
-0.030858186
-0.61423988
-0.025439053
-0.61351122
-0.020507819
-0.61297706
-0.015966299
-0.61260183
-0.011726394
-0.61236233
-0.0077070382
-0.0038260838
-0.62754195
0.020126736
-0.62798527
0.020444863
-0.62846144
0.021022771
-0.6289828
0.021896394
-0.62956608
0.023075893
-0.63023391
0.024582937
-0.6310169
0.026444764
-0.63195643
0.028693463
-0.6331081
0.031363803
-0.63454702
0.03449037
-0.63637331
0.038095813
-0.63870978
0.042163444
-0.64169338
0.046620895
-0.64548602
0.051351867
-0.65026767
0.056093513
-0.65606566
0.060129285
-0.66251302
0.062326973
-0.66895934
0.06196175
-0.67487169
0.059294608
-0.68006405
0.055202216
-0.68465741
0.050522872
-0.68886327
0.045628912
-0.69286022
0.040551839
-0.69681043
0.03522584
-0.7008866
0.029472324
-0.70513677
0.022731085
-0.70934558
0.014131506
-0.71301691
0.0028163956
-0.71543879
-0.011921002
-0.71545607
-0.031120003
-0.71084007
-0.055979455
-0.69935167
-0.083917786
-0.68231997
-0.10526494
-0.66524419
-0.1113756
-0.65072206
-0.10722034
-0.63961753
-0.097334545
-0.63154033
-0.085643458
-0.6258185
-0.074033238
-0.62180317
-0.063361654
-0.61898116
-0.053884347
-0.61698123
-0.045577126
-0.6155473
-0.038303827
-0.61450712
-0.03189836
-0.61374639
-0.026199784
-0.61318976
-0.021064453
-0.61278785
-0.016368208
-0.61250853
-0.012005708
-0.61233147
-0.0078840986
-0.0039126059
-0.62899211
0.020428303
-0.62931018
0.020762926
-0.62965406
0.021366659
-0.63003592
0.022278248
-0.63046943
0.023509401
-0.63097431
0.025087818
-0.63157905
0.027049505
-0.63232435
0.029438771
-0.63326752
0.032306967
-0.63448976
0.035712614
-0.6361073
0.039713349
-0.63827372
0.044329869
-0.64116549
0.049512664
-0.64500112
0.055187497
-0.65008925
0.061181639
-0.65660535
0.066645391
-0.66408432
0.069805944
-0.67152308
0.069400504
-0.67812436
0.06589589
-0.68366555
0.060743405
-0.68842707
0.055284393
-0.69277617
0.049978018
-0.69696464
0.044740304
-0.70119058
0.039451784
-0.70574505
0.034026794
-0.71079641
0.027782446
-0.71615392
0.019489008
-0.72124235
0.0079048266
-0.72527609
-0.0078872542
-0.72708836
-0.029307734
-0.7235245
-0.059543314
-0.7100961
-0.097346188
-0.68751623
-0.12784481
-0.66589575
-0.13299609
-0.64863823
-0.12447787
-0.63645874
-0.10951403
-0.62826012
-0.093842074
-0.62286885
-0.079424513
-0.61934362
-0.066886878
-0.61702482
-0.056203146
-0.61547888
-0.047123068
-0.61442982
-0.039352891
-0.61370456
-0.032623615
-0.61319516
-0.026709189
-0.61283432
-0.021425295
-0.61258013
-0.016622392
-0.61240655
-0.012179294
-0.61229773
-0.0079929194
-0.0039655334
-0.63014339
0.020550932
-0.6303068
0.02092634
-0.63049815
0.021558009
-0.63072038
0.02250048
-0.63098195
0.023770971
-0.6312986
0.025404465
-0.63169547
0.027446374
-0.63221099
0.029954288
-0.63290185
0.032997834
-0.63385161
0.036662374
-0.63518823
0.041049969
-0.63709756
0.046239194
-0.63980069
0.052215791
-0.64356612
0.058952932
-0.64886862
0.066484134
-0.65618581
0.073962587
-0.66497115
0.078591279
-0.67360786
0.078037219
-0.68087937
0.073167399
-0.68651726
0.066381292
-0.69110997
0.059877109
-0.69527609
0.054144133
-0.69935836
0.048822579
-0.70354601
0.043639438
-0.70833063
0.038811409
-0.71414242
0.033594242
-0.72088858
0.026235166
-0.72801271
0.015028955
-0.73451886
-0.001381104
-0.73944408
-0.024382513
-0.73860392
-0.060383474
-0.72380364
-0.11214647
-0.6927886
-0.15885985
-0.66495326
-0.16083142
-0.64450441
-0.14492672
-0.63155074
-0.12246771
-0.62370653
-0.10168628
-0.61906145
-0.084069596
-0.61633058
-0.069617745
-0.61471973
-0.057813996
-0.61375989
-0.048082908
-0.61317927
-0.039933509
-0.61282141
-0.032981476
-0.61259624
-0.026934368
-0.61245181
-0.021569719
-0.61235821
-0.016715988
-0.61229822
-0.012239285
-0.61226217
-0.0080289725
-0.0039827533
-0.62975404
0.020492134
-0.62974403
0.020916328
-0.62975499
0.021568973
-0.62978451
0.022529999
-0.62983459
0.023821051
-0.62991437
0.025484245
-0.63004158
0.027573583
-0.63024677
0.030159474
-0.63057901
0.033330079
-0.63111475
0.03719811
-0.63198178
0.041917001
-0.63339544
0.047652855
-0.63563788
0.054458228
-0.63902209
0.062337148
-0.64421052
0.071672559
-0.65228649
0.082038555
-0.6627889
0.089093696
-0.67297993
0.088228249
-0.6809925
0.081179963
-0.68646211
0.071850911
-0.69057951
0.063994508
-0.69436186
0.057926484
-0.69829004
0.052750756
-0.70240507
0.047754471
-0.70745182
0.043858156
-0.71431709
0.040459513
-0.72285463
0.034772709
-0.73275384
0.024928161
-0.74202152
0.0078865822
-0.75067381
-0.015730225
-0.75443607
-0.056621219
-0.7407789
-0.12580364
-0.69674766
-0.20289109
-0.66082658
-0.19675249
-0.63724189
-0.16851141
-0.62431117
-0.13539843
-0.61763631
-0.10836114
-0.61432909
-0.087376815
-0.61277223
-0.071174603
-0.61209811
-0.058488117
-0.61185839
-0.048322634
-0.61182394
-0.039967959
-0.61187853
-0.032926889
-0.61196378
-0.026849111
-0.61205107
-0.021482436
-0.61212696
-0.016640091
-0.61218568
-0.01218057
-0.61222519
-0.0079894602
-0.003962993
-0.62596435
0.020177225
-0.62570709
0.020659077
-0.62545395
0.021315829
-0.62519607
0.022272117
-0.62492737
0.023552351
-0.62464816
0.025205043
-0.62436562
0.027291038
-0.62409843
0.029892288
-0.62388407
0.033115713
-0.62378731
0.037101359
-0.623926
0.042055688
-0.62453819
0.048265047
-0.62599511
0.055915143
-0.62864713
0.064989176
-0.63323666
0.076262087
-0.64188014
0.090682033
-0.6547505
0.10196406
-0.66680209
0.10027984
-0.6752439
0.089621768
-0.67948048
0.076087494
-0.68202784
0.066541874
-0.68449253
0.060391173
-0.68757481
0.055833035
-0.69075719
0.050936849
-0.69483587
0.047936834
-0.70187301
0.047496655
-0.71114787
0.044047568
-0.72393545
0.037715746
-0.73544701
0.019398138
-0.74981616
-0.0013610741
-0.76253527
-0.043902103
-0.75942602
-0.12891289
-0.69493492
-0.26738219
-0.65101805
-0.24066937
-0.62551091
-0.19401855
-0.6141139
-0.14679543
-0.60987446
-0.11260057
-0.60869232
-0.088558954
-0.6087454
-0.071121531
-0.60923729
-0.057996223
-0.60983587
-0.047724054
-0.61040812
-0.039395711
-0.61090602
-0.032428987
-0.6113173
-0.026437834
-0.61164398
-0.021155747
-0.61189302
-0.016391052
-0.61207207
-0.012001526
-0.61218781
-0.0078737175
-0.0039060028
-0.61280493
0.019394805
-0.61211386
0.019968011
-0.61141055
0.02061252
-0.61066955
0.021531117
-0.60987305
0.022755849
-0.6090083
0.02434029
-0.60806537
0.026348113
-0.60704081
0.028867725
-0.60594496
0.032019863
-0.60480797
0.035964374
-0.60369372
0.040941431
-0.60278694
0.047358269
-0.60250955
0.055637754
-0.60324627
0.0657259
-0.60548765
0.078503467
-0.61281681
0.098011189
-0.62805639
0.11720364
-0.64111562
0.11333907
-0.64851974
0.097025889
-0.64892563
0.076493382
-0.6477328
0.065349049
-0.6469793
0.059637673
-0.64779927
0.056653005
-0.64842378
0.051561356
-0.64892823
0.048441286
-0.65593379
0.054502221
-0.66546467
0.053578446
-0.6830617
0.05531278
-0.69832788
0.034664318
-0.727428
0.027739045
-0.75006991
-0.021260198
-0.77339743
-0.10558536
-0.67754587
-0.36323376
-0.63105467
-0.28716056
-0.6064174
-0.21865582
-0.60005625
-0.15315658
-0.60036373
-0.11229309
-0.60232045
-0.086602236
-0.60442604
-0.069015945
-0.60627058
-0.056151684
-0.60778366
-0.04621097
-0.60899177
-0.038187599
-0.60994229
-0.03147847
-0.61068073
-0.025699389
-0.61124494
-0.020591537
-0.61166447
-0.015971527
-0.61196142
-0.011704579
-0.61215163
-0.0076835013
-0.0038126841
-0.58548402
0.018154327
-0.58423251
0.0187165
-0.58288761
0.019267614
-0.58144202
0.020085528
-0.57986814
0.021181969
-0.57813357
0.022605722
-0.57619929
0.024413832
-0.57402144
0.026689875
-0.57155708
0.029555511
-0.56876982
0.033177112
-0.56562783
0.037799445
-0.56218313
0.043913569
-0.55888197
0.052336586
-0.55644419
0.063288121
-0.55490112
0.076960406
-0.55875544
0.1018655
-0.57979978
0.13824798
-0.59504787
0.12858717
-0.60191142
0.10388944
-0.59547266
0.070054629
-0.58804624
0.057922628
-0.58184612
0.053437551
-0.57972855
0.054535434
-0.57732285
0.049155657
-0.56959408
0.040712523
-0.58196291
0.031477941
-0.5922488
0.03611711
-0.60165668
0.03938683
-0.60069388
0.020244507
-0.63316366
0.039434033
-0.71327793
0.019550202
-0.66883948
-0.054781251
-0.60713102
-0.22784594
-0.57400992
-0.32028166
-0.57165301
-0.22101273
-0.58124264
-0.14356695
-0.5895298
-0.10400593
-0.5956755
-0.080456535
-0.60012842
-0.064563022
-0.60339168
-0.05288843
-0.6058187
-0.043783943
-0.60764549
-0.036360818
-0.60902988
-0.030094078
-0.61007937
-0.024649895
-0.61086837
-0.019802534
-0.61144885
-0.015391049
-0.61185697
-0.011296465
-0.61211736
-0.0074231077
-0.0036851376
-0.52905789
0.01572082
-0.52652722
0.016185836
-0.5238357
0.016576091
-0.52094046
0.017190294
-0.51778624
0.01802775
-0.51430358
0.01912306
-0.51040471
0.020514964
-0.50598121
0.022266369
-0.50090448
0.024478785
-0.49503263
0.027305265
-0.4881987
0.030965509
-0.4802086
0.035923468
-0.47121149
0.043339481
-0.46222473
0.05430136
-0.45261604
0.067351716
-0.44147046
0.090719915
-0.46791816
0.16469569
-0.47227438
0.13294339
-0.46226268
0.093877742
-0.42271042
0.030502372
-0.38803007
0.023242269
-0.35767906
0.023086551
-0.29092808
0.018878905
-0.14090232
0.012655807
-0.025234034
0.0038107466