/*--------------------------------*- C++ -*----------------------------------*\
| =========                 |                                                 |
| \\      /  F ield         | foam-extend: Open Source CFD                    |
|  \\    /   O peration     | Version:     4.1                                |
|   \\  /    A nd           | Web:         http://www.foam-extend.org         |
|    \\/     M anipulation  |                                                 |
\*---------------------------------------------------------------------------*/
FoamFile
{
    version     2.0;
    format      ascii;
    class       volScalarField;
    location    "1.1";
    object      rAU;
}
// * * * * * * * * * * * * * * * * * * * * * * * * * * * * * * * * * * * * * //

dimensions      [0 0 1 0 0 0 0];

internalField   nonuniform List<scalar> 
4393
(
0.00022764397
0.00022727017
0.00022690413
0.00022653025
0.00022614642
0.0002257512
0.00022534223
0.0002249183
0.00022447858
0.00022402286
0.00022355175
0.00022306675
0.00022257036
0.00022206611
0.0002215584
0.00022105334
0.00022055676
0.00022007563
0.00021961759
0.00021919022
0.00021880126
0.00021845839
0.00021816911
0.0002179406
0.00021777952
0.00021769178
0.00021768205
0.00021768205
0.00021775362
0.0002179076
0.00021814215
0.00021845228
0.00021882979
0.00021926365
0.00021974058
0.00022024606
0.00022076525
0.00022128398
0.00022178941
0.00022227054
0.00022271839
0.00022312602
0.00022348837
0.00022380199
0.00022406477
0.00022427573
0.00022443495
0.00022454295
0.00022458507
0.00022451156
0.00022419109
0.00022388554
0.00022357094
0.00022324453
0.00022290465
0.0002225491
0.00022217699
0.00022178792
0.00022138226
0.00022096128
0.00022052726
0.00022008357
0.00021963468
0.00021918592
0.0002187443
0.00021831643
0.00021790989
0.00021753278
0.00021719294
0.00021689822
0.00021665631
0.00021647462
0.00021636014
0.00021631921
0.00021635722
0.0002164439
0.00021641681
0.00021646002
0.00021658692
0.00021679902
0.00021709477
0.00021746903
0.00021791304
0.00021841481
0.00021896007
0.00021953333
0.00022011909
0.00022070278
0.00022127145
0.00022181423
0.00022232241
0.00022278938
0.0002232104
0.00022358224
0.00022390274
0.00022417103
0.00022438861
0.00022454271
0.0002240062
0.00022369755
0.00022339742
0.00022308574
0.00022275977
0.00022241802
0.00022205847
0.00022168056
0.00022128428
0.00022087053
0.0002204412
0.00021999936
0.00021954925
0.00021909633
0.00021864691
0.00021820903
0.00021779015
0.00021739862
0.00021704305
0.00021673163
0.00021647238
0.00021627304
0.00021614103
0.00021608325
0.00021610587
0.00021621394
0.00021630071
0.00021618162
0.00021614335
0.00021619291
0.00021633521
0.00021657194
0.00021690054
0.00021731385
0.00021780032
0.00021834506
0.00021893111
0.00021954098
0.00022015792
0.00022076683
0.00022135487
0.00022191168
0.00022242935
0.00022290213
0.00022332603
0.00022369842
0.00022401821
0.00022428551
0.00022448062
0.00022365085
0.00022334759
0.00022304738
0.00022273256
0.00022240067
0.00022205041
0.00022167992
0.00022128888
0.00022087761
0.00022044746
0.00022000093
0.00021954181
0.00021907525
0.00021860774
0.00021814675
0.00021770143
0.00021728037
0.0002168928
0.00021654804
0.00021625476
0.00021602128
0.00021585555
0.0002157651
0.00021575699
0.00021583746
0.00021601156
0.0002160931
0.00021588795
0.00021576535
0.00021573584
0.00021580813
0.00021598742
0.00021627386
0.0002166617
0.00021713941
0.00021769085
0.00021829699
0.00021893784
0.00021959403
0.00022024811
0.00022088521
0.00022149338
0.00022206348
0.00022258894
0.00022306525
0.0002234896
0.00022386075
0.00022417775
0.00022442244
0.00022328897
0.00022298986
0.00022268997
0.00022237233
0.00022203466
0.00022167578
0.00022129396
0.00022088906
0.00022046167
0.00022001351
0.00021954761
0.00021906849
0.0002185822
0.00021809634
0.00021761959
0.00021716244
0.00021673466
0.00021634658
0.00021600827
0.00021572894
0.00021551724
0.00021538134
0.00021532898
0.00021536749
0.00021550345
0.00021574226
0.00021582936
0.00021553372
0.00021532284
0.00021521127
0.00021521212
0.00021533469
0.00021558211
0.00021594992
0.0002164261
0.00021699255
0.00021762738
0.00021830739
0.00021901016
0.00021971555
0.00022040659
0.00022106975
0.00022169486
0.00022227467
0.00022280439
0.00022328117
0.00022370371
0.00022407086
0.00022436675
0.00022291129
0.00022261686
0.00022231834
0.00022199884
0.00022165617
0.00022128921
0.0002208963
0.00022047738
0.00022003322
0.00021956585
0.00021907878
0.00021857718
0.00021806802
0.00021756005
0.00021706335
0.00021658986
0.00021615081
0.0002157577
0.00021542151
0.00021515197
0.00021495808
0.00021484819
0.00021483033
0.00021491224
0.00021510114
0.0002154032
0.00021551098
0.00021511904
0.00021481425
0.00021461582
0.00021454213
0.00021460742
0.00021481831
0.00021517159
0.00021565413
0.00021624493
0.00021691822
0.00021764671
0.0002184043
0.00021916786
0.00021991817
0.00022064022
0.00022132297
0.00022195878
0.00022254285
0.00022307255
0.00022354676
0.00022396477
0.00022431252
0.00022251828
0.00022222922
0.0002219331
0.00022161274
0.00022126592
0.00022089149
0.00022048775
0.00022005466
0.00021959308
0.00021910521
0.00021859496
0.00021806812
0.00021753257
0.0002169983
0.00021647693
0.00021598214
0.00021552682
0.0002151239
0.00021478533
0.00021452138
0.00021434129
0.00021425358
0.00021426654
0.00021438847
0.00021462754
0.0002149912
0.00021513997
0.00021464446
0.00021423828
0.00021394615
0.00021379288
0.00021379894
0.00021397529
0.00021431995
0.00021481791
0.00021544401
0.00021616724
0.00021695514
0.00021777715
0.00021860673
0.00021942234
0.00022020758
0.00022095078
0.0002216442
0.00022228331
0.00022286596
0.00022339158
0.00022386032
0.0002242595
0.00022211197
0.00022182963
0.00022153709
0.00022121688
0.00022086676
0.00022048544
0.00022007112
0.00021962365
0.00021914384
0.00021863399
0.00021809826
0.000217543
0.00021697698
0.00021641153
0.00021586005
0.00021533824
0.00021486106
0.00021444309
0.00021409734
0.00021383461
0.00021366421
0.00021359467
0.0002136345
0.00021379265
0.0002140786
0.00021450167
0.00021471791
0.00021410989
0.00021359266
0.00021319742
0.00021295706
0.00021290016
0.0002130433
0.00021338587
0.00021390985
0.00021458418
0.00021537088
0.00021623088
0.00021712825
0.00021803263
0.0002189201
0.0002197731
0.0002205796
0.00022133217
0.00022202689
0.0002226624
0.00022323899
0.00022375787
0.00022420763
0.00022169404
0.00022141927
0.00022113139
0.00022081241
0.00022045991
0.00022007239
0.00021964783
0.00021918585
0.00021868708
0.00021815373
0.0002175901
0.00021700297
0.00021640198
0.00021579989
0.00021521214
0.00021465692
0.00021415169
0.00021371305
0.00021335522
0.00021308934
0.00021292456
0.00021286915
0.00021293166
0.00021312179
0.00021345062
0.00021393007
0.0002142477
0.00021351641
0.0002128759
0.00021236501
0.00021202695
0.0002119011
0.00021201172
0.00021235972
0.00021292255
0.00021366082
0.00021452717
0.00021547415
0.00021645939
0.0002174483
0.00021841466
0.00021934001
0.00022021247
0.00022102534
0.00022177576
0.00022246353
0.00022309014
0.00022365803
0.00022415708
0.0002212665
0.00022100118
0.00022071937
0.00022040282
0.00022004895
0.00021965601
0.00021922163
0.00021874507
0.00021822658
0.00021766814
0.00021707394
0.00021645107
0.00021580996
0.00021516489
0.00021453367
0.00021393756
0.00021339719
0.00021293169
0.0002125566
0.00021228318
0.00021212
0.0002120746
0.00021215531
0.0002123725
0.0002127392
0.00021327072
0.00021373272
0.00021286541
0.00021208638
0.00021144344
0.00021099292
0.00021078909
0.00021086701
0.00021122952
0.00021184714
0.00021266871
0.00021363425
0.00021468568
0.00021577304
0.00021685716
0.00021790973
0.00021891196
0.00021985269
0.00022072655
0.00022153224
0.00022227114
0.00022294626
0.0002235615
0.00022410812
0.00022083199
0.00022057673
0.00022030209
0.00021998914
0.00021963501
0.00021923755
0.00021879395
0.0002183029
0.00021776412
0.00021717905
0.0002165516
0.0002158889
0.00021520205
0.00021450689
0.00021382399
0.00021317845
0.00021259506
0.00021209614
0.00021169869
0.00021141372
0.0002112485
0.00021120923
0.00021130347
0.00021154208
0.00021194036
0.00021251792
0.00021317829
0.00021216008
0.00021122376
0.00021042743
0.00020984418
0.00020954908
0.00020959305
0.00020998141
0.00021067415
0.00021160327
0.00021269182
0.00021386828
0.00021507383
0.00021626465
0.00021741083
0.00021849404
0.00021950469
0.00022043946
0.0002212992
0.00022208738
0.00022280884
0.00022346915
0.00022406111
0.00022039149
0.00022014882
0.00021988314
0.00021957532
0.00021922231
0.00021882156
0.00021836965
0.00021786457
0.00021730521
0.0002166922
0.00021602884
0.00021532198
0.00021458314
0.00021382966
0.00021308533
0.00021238013
0.00021174435
0.00021120458
0.00021077948
0.00021047916
0.00021030859
0.00021027162
0.00021037434
0.00021062773
0.00021104954
0.00021166466
0.00021248479
0.000211405
0.00021028887
0.00020931168
0.00020856793
0.00020816218
0.00020816935
0.00020859837
0.00020939278
0.00021046035
0.00021170114
0.00021302681
0.00021436855
0.00021567812
0.00021692503
0.00021809255
0.00021917378
0.00022016836
0.00022108
0.00022191472
0.00022267957
0.00022338201
0.00022401652
0.00021995019
0.00021972021
0.00021946454
0.00021916317
0.00021881266
0.00021840988
0.00021795071
0.00021743219
0.00021685213
0.00021620999
0.00021550801
0.00021475236
0.00021395458
0.00021313336
0.00021231608
0.00021153906
0.00021084011
0.00021025164
0.00020979425
0.00020947612
0.00020929835
0.00020926095
0.00020936753
0.00020962849
0.00021006395
0.00021070517
0.00021159217
0.00021060819
0.00020928517
0.00020809194
0.00020714953
0.0002066047
0.00020656987
0.00020705959
0.00020799117
0.00020923706
0.00021066612
0.00021216931
0.00021366702
0.00021510754
0.00021646144
0.00021771531
0.00021886637
0.0002199183
0.00022087847
0.00022175596
0.00022256037
0.00022330124
0.0002239749
0.00021950679
0.00021929285
0.00021904938
0.00021875642
0.00021841038
0.00021800755
0.00021754297
0.00021701255
0.00021641268
0.00021574119
0.00021499871
0.00021419017
0.00021332649
0.0002124272
0.00021152357
0.00021066005
0.000209885
0.00020923903
0.00020874501
0.00020840759
0.00020822156
0.00020818122
0.00020828635
0.00020854591
0.00020898207
0.00020963341
0.00021055293
0.00020978141
0.00020821965
0.00020676582
0.0002055723
0.00020484619
0.0002047603
0.00020533899
0.00020645623
0.00020793257
0.00020959445
0.00021130798
0.0002129828
0.00021456587
0.00021603143
0.00021737173
0.00021858991
0.00021969503
0.00022069889
0.00022161419
0.00022245334
0.00022322814
0.00022393684
0.00021907206
0.00021887363
0.0002186434
0.00021836043
0.00021802064
0.00021761966
0.00021715151
0.00021661072
0.00021599189
0.00021529072
0.00021450553
0.00021363919
0.00021270119
0.00021171096
0.00021070363
0.00020973416
0.00020886608
0.00020815213
0.00020761808
0.00020726251
0.00020707032
0.00020702731
0.00020712782
0.00020737791
0.0002078006
0.00020844227
0.00020937174
0.00020894124
0.00020710452
0.00020533472
0.00020381804
0.00020284711
0.00020269436
0.00020340355
0.00020477406
0.00020654976
0.0002084994
0.00021046064
0.00021233421
0.00021406966
0.00021564883
0.00021707281
0.00021835289
0.00021950487
0.00022054589
0.00022149268
0.00022236071
0.00022316407
0.000223903
0.00021863751
0.00021845858
0.00021824401
0.00021797327
0.00021764223
0.00021724589
0.00021677719
0.00021622911
0.00021559409
0.00021486509
0.0002140373
0.00021311052
0.00021209158
0.00021099826
0.00020986857
0.00020877078
0.0002077905
0.00020699872
0.00020642485
0.00020605709
0.00020586446
0.00020582038
0.00020591212
0.00020614126
0.00020652995
0.00020713274
0.00020803799
0.00020811336
0.00020596025
0.00020380692
0.00020186872
0.00020055564
0.00020030759
0.00020121091
0.0002029308
0.00020509778
0.00020740247
0.00020965273
0.00021174548
0.00021363954
0.00021533008
0.00021683109
0.00021816458
0.00021935459
0.00022042431
0.00022139483
0.00022228474
0.00022311043
0.00022387405
0.00021822601
0.00021806541
0.00021786762
0.00021761117
0.00021729154
0.00021690297
0.00021643719
0.00021588537
0.00021523737
0.00021448268
0.00021361219
0.00021262127
0.00021151246
0.00021029938
0.00020902038
0.00020775982
0.00020663641
0.00020574987
0.00020513478
0.00020476254
0.0002045775
0.00020453598
0.00020461747
0.00020481791
0.00020515479
0.00020568902
0.00020653133
0.00020732637
0.00020481648
0.00020220289
0.00019971122
0.00019790464
0.00019750715
0.00019870637
0.00020091471
0.00020359648
0.00020633731
0.00020891987
0.00021124803
0.00021330066
0.00021509415
0.00021666038
0.00021803482
0.00021925109
0.00022033895
0.00022132392
0.00022222764
0.0002230686
0.00022385067
0.00021781698
0.00021767893
0.00021750028
0.00021726041
0.00021695497
0.00021657757
0.00021611875
0.00021556773
0.00021491159
0.00021413577
0.0002132257
0.00021217068
0.00021096724
0.00020962146
0.00020816662
0.00020670476
0.00020540471
0.00020441266
0.00020377005
0.00020342049
0.00020326807
0.00020324425
0.00020332041
0.00020348554
0.00020374498
0.00020416162
0.00020487332
0.0002060401
0.00020373311
0.00020057028
0.00019735027
0.00019481285
0.00019415672
0.00019582046
0.00019872074
0.00020208366
0.00020535541
0.00020831103
0.00021088175
0.00021308279
0.00021496216
0.00021657521
0.00021797347
0.00021920103
0.0002202943
0.000221283
0.00022219142
0.00022303983
0.00022383347
0.00021746807
0.00021735087
0.00021719274
0.00021697238
0.00021668527
0.00021632443
0.0002158792
0.00021533684
0.00021468135
0.0002138934
0.00021295138
0.00021183587
0.00021053461
0.00020904159
0.00020737448
0.00020564941
0.00020411182
0.00020298642
0.00020232356
0.00020202233
0.00020192142
0.00020191782
0.00020198023
0.00020209628
0.0002022499
0.00020250001
0.00020301713
0.00020404787
0.0002027772
0.00019900129
0.00019484864
0.00019121043
0.00019006024
0.00019246947
0.00019635934
0.00020062689
0.00020453436
0.0002078925
0.00021069599
0.00021301995
0.00021495652
0.00021658999
0.00021798971
0.00021921029
0.00022029418
0.00022127458
0.00022217776
0.00022302518
0.000223823
0.00021720042
0.00021710846
0.00021697479
0.00021677844
0.00021651526
0.0002161777
0.00021575394
0.00021522924
0.0002145844
0.00021379497
0.00021283097
0.00021166153
0.00021026299
0.00020861397
0.00020670097
0.00020463888
0.00020279057
0.00020152058
0.00020088653
0.00020071727
0.00020074092
0.00020080622
0.00020089045
0.00020099368
0.00020105257
0.00020109866
0.00020133227
0.00020206215
0.00020232362
0.00019782302
0.00019245203
0.00018712488
0.00018495928
0.0001885729
0.00019388286
0.00019934648
0.00020399073
0.00020775227
0.0002107497
0.00021314893
0.00021509924
0.00021671763
0.0002180911
0.00021928334
0.00022034133
0.00022130042
0.00022218782
0.00022302541
0.00022381969
0.00021725955
0.0002171957
0.0002170925
0.00021692797
0.00021669829
0.00021639568
0.00021600769
0.00021551822
0.00021490558
0.00021414085
0.00021318522
0.00021199277
0.00021052314
0.00020873583
0.00020656263
0.00020406857
0.00020178743
0.00020035074
0.00019980552
0.00019987916
0.00020010534
0.00020026571
0.0002003632
0.00020044933
0.0002003694
0.0002000928
0.00019988254
0.00020010171
0.00020118342
0.0001974009
0.00019066094
0.00018291672
0.0001786145
0.00018416416
0.00019146818
0.00019845303
0.00020389575
0.00020800294
0.00021110925
0.00021350605
0.00021540929
0.00021696771
0.00021828235
0.00021942251
0.00022043696
0.00022136121
0.00022222208
0.00022304091
0.00022382377
0.00021801692
0.00021798808
0.00021792997
0.0002178154
0.0002176406
0.00021739772
0.00021707423
0.00021665326
0.00021611103
0.00021541412
0.00021451395
0.00021334404
0.00021183687
0.00020993093
0.00020748656
0.00020441533
0.00020147791
0.00019988178
0.00019958091
0.00020017762
0.00020082174
0.00020120642
0.00020138399
0.00020158216
0.00020150163
0.00020093326
0.00020031543
0.00019986122
0.000200808
0.00019976211
0.00019129698
0.00018002133
0.0001709479
0.00017965787
0.00018947931
0.00019827187
0.00020448874
0.00020878073
0.00021184202
0.00021412136
0.00021589859
0.00021734406
0.00021856403
0.00021962726
0.00022058034
0.00022145642
0.00022228027
0.00022307161
0.00022383532
0.00022066377
0.00022071195
0.0002207418
0.00022072124
0.0002206484
0.00022051633
0.00022031372
0.00022002467
0.00021962542
0.00021908116
0.00021833801
0.00021731138
0.00021589834
0.00021401609
0.00021146407
0.00020778633
0.00020388368
0.00020236606
0.00020272479
0.00020450458
0.00020600932
0.00020691023
0.00020732217
0.00020797702
0.00020832161
0.00020732402
0.00020618935
0.00020432514
0.00020496015
0.00020348415
0.0001965
0.00018118218
0.0001622207
0.00017630852
0.00018869761
0.00019949692
0.00020614908
0.00021024636
0.00021300403
0.00021500912
0.00021656676
0.00021784219
0.00021893131
0.00021989361
0.00022076857
0.00022158411
0.00022236123
0.00022311694
0.00022385413
0.00022642314
0.00022656631
0.00022672901
0.00022685666
0.00022694703
0.00022699522
0.00022699405
0.00022693268
0.00022679277
0.00022654465
0.00022613725
0.0002254727
0.00022438812
0.00022271878
0.00022022031
0.0002157666
0.00020956602
0.00020824663
0.00020948511
0.00021348528
0.00021646283
0.0002183533
0.00021896629
0.00022040498
0.00022210358
9.3007809e-05
9.5433617e-05
9.769177e-05
9.9882215e-05
0.00010288238
9.4463722e-05
8.6204555e-05
0.00010657295
0.00017933365
0.00019343354
0.00020412703
0.00020945437
0.00021253456
0.00021460548
0.000216152
0.00021739469
0.00021844685
0.00021937312
0.00022021386
0.00022099645
0.00022174091
0.00022246291
0.0002231758
0.00022387979
0.00023924596
0.00023969361
0.00024019457
0.00024068077
0.0002411613
0.00024164026
0.00024212247
0.00024261167
0.00024310669
0.00024359677
0.0002440492
0.00024437123
0.00024434207
0.00024362561
0.00024200534
0.00023807366
0.00022682279
0.00022935524
0.00023549217
0.00025021143
0.00026144223
0.00027023506
0.00012828178
0.00016688314
0.00032275323
0.00046159717
0.00049956686
0.00049956686
0.00049956686
0.00049956686
0.00049956686
0.0004503124
0.00033649834
6.807528e-05
0.00021297386
0.00021346092
0.00021437881
0.0002154944
0.00021653645
0.00021748112
0.00021833986
0.00021913132
0.00021987231
0.00022057686
0.00022125674
0.00022192219
0.0002225825
0.00022324666
0.00022391166
0.00026426933
0.00026527783
0.00026643151
0.00026762799
0.00026888782
0.0002702356
0.00027170544
0.00027334037
0.00027519352
0.0002773324
0.00027984342
0.00028282396
0.0002863753
0.00029054938
0.00029518204
0.0003023399
0.00027345908
0.00030501227
0.00035659957
0.00037255306
0.00027822806
0.00031972322
0.00049956686
0.00049956686
0.00049956686
0.00049956686
0.00049956686
0.00049956686
0.00049956686
0.00049956686
0.00041263393
0.00041826934
0.0001020382
0.0002665903
0.00023114001
0.00022209703
0.0002192753
0.00021853486
0.00021855428
0.0002188818
0.00021934148
0.0002198605
0.00022040744
0.00022096903
0.00022154069
0.00022212237
0.00022271654
0.00022332755
0.00022394887
0.00030195455
0.00030409701
0.00030622713
0.0003084296
0.00031077892
0.00031334792
0.00031622255
0.00031951609
0.00032338798
0.00032808182
0.00033399384
0.00034169974
0.00035173244
0.00036474721
0.00038492199
0.00040157991
0.00025703054
0.0002531946
0.00026338167
0.00048920878
0.00047849348
0.00048855217
0.00047869855
0.00047372164
0.00047746533
0.00045865802
0.00045171925
0.00045351616
0.00044093604
0.00043652044
0.00010691824
0.00010767072
0.0002197762
0.00025235684
0.0002369483
0.00022741065
0.00022311581
0.00022121905
0.0002204494
0.00022024472
0.00022033822
0.00022059794
0.00022095583
0.00022137584
0.00022183887
0.00022233531
0.00022286118
0.00022341624
0.00022399043
0.0002885646
0.00028908284
0.00028927271
0.0002894592
0.00028964438
0.00028986021
0.0002901327
0.0002904987
0.00029101118
0.00029174774
0.00029283052
0.00029387581
0.00029481485
0.00029557298
0.00029293094
0.00010292902
0.00037622816
0.00047082284
0.00047253697
0.00049383689
0.00048613824
0.00048245081
0.00012420997
0.00012127924
0.00010077008
0.0001000541
0.00010062898
0.00010197279
0.00010292722
0.00010452158
0.00020120885
0.00020767807
0.0002180828
0.00023901562
0.0002396301
0.00023076142
0.00022595777
0.00022341699
0.00022210832
0.00022149281
0.00022128033
0.00022131151
0.00022149645
0.00022178333
0.00022214193
0.00022255482
0.00022301242
0.00022351038
0.00022403524
0.000223275
0.00022310723
0.00022281887
0.00022254017
0.00022227891
0.00022205225
0.00022187616
0.00022177399
0.00022177805
0.00022193322
0.00022230445
0.00022209433
0.00022116298
0.00021941663
0.00021672843
0.00021314642
9.5859266e-05
9.9101763e-05
9.9869037e-05
9.9773858e-05
0.0001001496
0.00010017636
0.00021253985
0.00021081367
0.00020892983
0.00020554379
0.00020443533
0.00020387896
0.00020210797
0.00020212615
0.00020330657
0.00020901271
0.00021823614
0.00023217535
0.00023802121
0.00023248197
0.00022785742
0.00022508944
0.00022347611
0.00022257923
0.00022213281
0.00022197624
0.00022201177
0.00022217923
0.00022244133
0.00022277503
0.00022316637
0.00022360756
0.00022408215
0.00021926623
0.00021934612
0.00021947249
0.00021960784
0.00021976342
0.00021995136
0.00022018424
0.00022047813
0.00022085232
0.00022132967
0.0002218642
0.00022156878
0.00022081333
0.00021957736
0.00021780349
0.00021498946
0.00021250669
0.00021402893
0.00021587918
0.00021421457
0.0002123815
0.00021121567
0.00021005903
0.00020833718
0.00020730336
0.00020568591
0.00020477972
0.00020420531
0.00020347947
0.00020394824
0.00020593221
0.00021088845
0.0002185482
0.00022810786
0.00023383141
0.0002331821
0.00022902064
0.00022628601
0.00022454837
0.00022348497
0.00022287576
0.00022257534
0.00022248865
0.00022255365
0.0002227298
0.00022299071
0.00022331943
0.00022370554
0.00022413006
0.00021788937
0.00021796895
0.00021809428
0.00021823304
0.00021838807
0.00021856693
0.00021877815
0.00021903282
0.00021934346
0.00021972378
0.00021997927
0.00021948721
0.00021872908
0.00021765471
0.00021622742
0.00021439181
0.00021326099
0.00021411259
0.00021527035
0.00021349512
0.00021190181
0.00021068264
0.00020952602
0.000208311
0.00020735619
0.00020629721
0.00020564684
0.00020528623
0.00020521187
0.00020608758
0.00020833111
0.00021262016
0.00021875897
0.00022561445
0.00023029985
0.00023231265
0.00022962739
0.00022708139
0.00022534762
0.00022421042
0.00022350166
0.00022309953
0.00022291848
0.00022289937
0.0002230016
0.0002231975
0.00022346845
0.00022380225
0.00022417791
0.00021721109
0.00021733205
0.00021747178
0.00021762282
0.00021779112
0.0002179831
0.00021820496
0.00021846418
0.00021876781
0.00021912122
0.00021921488
0.00021877176
0.00021812018
0.00021723015
0.00021608131
0.00021482206
0.00021419521
0.00021469886
0.00021503894
0.00021341151
0.00021201397
0.00021086201
0.00020980448
0.00020882293
0.00020800284
0.00020726727
0.00020684867
0.00020673386
0.00020702995
0.00020812296
0.00021033519
0.00021399232
0.00021887058
0.00022400935
0.00022786293
0.00023021853
0.00022984665
0.00022755956
0.0002259109
0.0002247686
0.00022401226
0.00022354581
0.00022329668
0.00022321171
0.00022325257
0.000223392
0.00022361085
0.00022389592
0.0002242248
0.00021692183
0.00021699491
0.0002171109
0.00021724607
0.00021739849
0.0002175717
0.00021776949
0.00021799676
0.00021825739
0.00021855287
0.0002185232
0.00021813371
0.00021760119
0.00021691403
0.00021608473
0.00021529058
0.00021497709
0.00021536536
0.00021499575
0.00021359463
0.00021236921
0.00021132266
0.00021038919
0.00020956876
0.00020889439
0.00020837622
0.00020813541
0.00020820834
0.00020871205
0.0002098876
0.0002119529
0.00021505056
0.00021895089
0.00022294335
0.00022613909
0.00022830368
0.00022930036
0.00022779415
0.00022627866
0.00022517899
0.00022441528
0.0002239158
0.00022362199
0.00022348824
0.00022348003
0.00022357173
0.00022374459
0.0002239851
0.00022426992
0.00021677918
0.00021689218
0.00021701773
0.00021715342
0.00021730327
0.00021747035
0.00021765633
0.0002178631
0.0002180907
0.00021833597
0.00021824905
0.00021790036
0.00021744814
0.00021689707
0.00021628719
0.00021577738
0.00021563491
0.00021596282
0.00021504855
0.00021385922
0.000212796
0.00021186999
0.0002110608
0.00021037601
0.00020983849
0.0002094808
0.00020937823
0.00020958333
0.0002101975
0.00021137676
0.000213257
0.00021588274
0.00021904246
0.00022223339
0.00022490808
0.00022685658
0.00022809001
0.00022785098
0.0002264905
0.00022546374
0.00022472195
0.00022421434
0.00022389569
0.00022372842
0.00022368264
0.00022373512
0.00022386821
0.00022406865
0.00022431264
0.00021670588
0.00021677601
0.00021688241
0.00021700568
0.00021714334
0.0002172965
0.00021746533
0.00021765004
0.00021784875
0.00021805596
0.00021796819
0.00021768301
0.00021732708
0.00021691352
0.00021649067
0.00021618345
0.00021615672
0.00021618165
0.0002151407
0.00021413966
0.00021322845
0.00021242682
0.00021173729
0.0002111732
0.00021075728
0.00021052507
0.00021053099
0.00021082764
0.00021149508
0.00021263498
0.00021432534
0.00021655985
0.00021915729
0.00022176449
0.00022402356
0.00022576025
0.00022694898
0.00022750551
0.00022658064
0.00022564459
0.00022494493
0.00022444814
0.0002241208
0.00022393315
0.00022386011
0.00022388136
0.00022398079
0.00022414578
0.00022435249
0.00021665261
0.00021674414
0.00021685096
0.00021696708
0.00021709408
0.00021723292
0.00021738273
0.00021754232
0.00021770833
0.00021787401
0.00021779683
0.00021755892
0.00021727651
0.00021696853
0.00021668269
0.00021651261
0.00021656362
0.00021610929
0.00021525406
0.00021441757
0.00021364666
0.00021296632
0.0002123904
0.00021193619
0.00021162717
0.00021149652
0.00021158715
0.00021194535
0.00021263123
0.00021370993
0.00021522094
0.00021713372
0.00021929934
0.00022146737
0.00022339227
0.00022493373
0.00022605189
0.00022677676
0.00022657921
0.00022574182
0.0002250971
0.00022462481
0.00022430148
0.00022410433
0.00022401305
0.00022401032
0.00022408185
0.00022421597
0.00022438911
0.00021662048
0.00021668715
0.00021678211
0.00021688946
0.00021700702
0.00021713449
0.00021726999
0.00021741133
0.00021755416
0.00021769101
0.00021764806
0.00021746004
0.00021724615
0.0002170275
0.00021684686
0.00021677387
0.00021670986
0.0002160885
0.00021538619
0.00021469263
0.00021404933
0.00021348312
0.00021301306
0.00021265865
0.00021244316
0.00021239614
0.00021255247
0.00021295027
0.00021363308
0.00021464109
0.00021598943
0.00021763802
0.000219467
0.0002212957
0.00022294916
0.00022431569
0.00022535201
0.00022606777
0.00022637969
0.00022577298
0.00022519061
0.00022475223
0.00022444245
0.00022424458
0.00022414267
0.00022412236
0.00022417131
0.000224279
0.00022442233
0.00021659667
0.00021666909
0.00021675951
0.00021685805
0.00021696438
0.00021707812
0.00021719697
0.00021731824
0.00021743729
0.00021754673
0.00021753783
0.00021739146
0.0002172337
0.00021708552
0.00021698322
0.0002169515
0.00021664407
0.00021610974
0.00021553544
0.00021496625
0.00021443802
0.00021397713
0.00021360446
0.00021334013
0.00021320627
0.00021322864
0.00021343569
0.00021385748
0.00021452449
0.00021545991
0.00021666416
0.00021809538
0.00021965792
0.00022121879
0.00022264957
0.00022386151
0.00022481306
0.00022550247
0.00022595404
0.00022575333
0.00022523653
0.00022483801
0.00022454868
0.00022435692
0.00022425062
0.00022421826
0.00022424942
0.00022433483
0.00022445205
0.00021658578
0.00021664591
0.00021672853
0.00021681965
0.00021691731
0.00021702056
0.00021712665
0.00021723259
0.00021733362
0.00021742274
0.00021744899
0.00021733987
0.00021722937
0.00021713711
0.00021709324
0.00021696835
0.00021660055
0.0002161657
0.00021570012
0.00021523948
0.00021481441
0.00021444956
0.00021416564
0.00021398222
0.00021391964
0.00021399997
0.0002142462
0.00021468124
0.0002153256
0.00021619098
0.00021726941
0.00021852109
0.00021986968
0.00022121533
0.00022246154
0.00022353762
0.00022440595
0.0002250588
0.00022550991
0.00022566434
0.00022524461
0.00022488926
0.00022462506
0.00022444452
0.00022433886
0.00022429909
0.00022431668
0.00022438362
0.00022447828
0.00021658211
0.00021664079
0.00021671781
0.00021680114
0.00021688944
0.00021698171
0.00021707507
0.00021716654
0.00021725154
0.00021732376
0.00021736694
0.00021730089
0.0002172287
0.00021717976
0.00021711423
0.00021689994
0.00021659951
0.00021624938
0.00021587735
0.00021551196
0.0002151792
0.00021490135
0.00021469787
0.00021458698
0.00021458683
0.00021471601
0.00021499277
0.00021543403
0.00021605279
0.00021685313
0.00021782268
0.00021892529
0.00022009978
0.00022126981
0.00022236147
0.00022331825
0.00022410715
0.00022471776
0.00022515706
0.00022544321
0.0002252232
0.00022491239
0.00022467627
0.00022451063
0.00022440948
0.00022436611
0.00022437374
0.00022442567
0.00022450113
0.00021658695
0.00021663917
0.00021671037
0.00021678719
0.00021686779
0.000216951
0.00021703392
0.00021711365
0.00021718602
0.00021724549
0.00021728496
0.000217269
0.00021722798
0.00021717785
0.00021706203
0.00021687263
0.00021663158
0.00021635484
0.00021606425
0.00021578293
0.00021553282
0.0002153336
0.0002152029
0.00021515712
0.00021521201
0.00021538291
0.00021568399
0.00021612723
0.00021672007
0.0002174616
0.00021833747
0.00021931567
0.00022034681
0.00022137159
0.00022233253
0.00022318427
0.00022389849
0.00022446399
0.00022488365
0.00022517002
0.00022517963
0.00022491323
0.00022470671
0.0002245584
0.00022446464
0.00022442069
0.0002244214
0.00022446136
0.00022452074
0.00021659772
0.00021664667
0.00021671289
0.00021678345
0.00021685668
0.00021693144
0.00021700495
0.00021707454
0.00021713651
0.00021718616
0.00021721771
0.00021722449
0.00021719932
0.00021713539
0.00021702774
0.00021687686
0.00021668874
0.00021647643
0.00021625751
0.00021605085
0.00021587495
0.00021574687
0.00021568213
0.00021569505
0.00021579893
0.00021600612
0.00021632723
0.00021677024
0.00021733849
0.00021802786
0.00021882345
0.00021969723
0.00022060903
0.00022151215
0.00022236136
0.00022312016
0.0002237646
0.00022428389
0.00022467851
0.00022495722
0.00022509779
0.00022489673
0.00022472031
0.0002245908
0.00022450645
0.00022446423
0.00022446048
0.00022449112
0.00022453727
0.00021661387
0.00021665886
0.00021672059
0.00021678578
0.00021685269
0.00021692024
0.00021698579
0.00021704703
0.00021710078
0.00021714318
0.0002171697
0.0002171753
0.00021715488
0.00021710402
0.00021702011
0.00021690506
0.00021676452
0.00021660941
0.00021645417
0.00021631431
0.00021620537
0.00021614191
0.00021613726
0.00021620353
0.00021635163
0.00021659115
0.00021692962
0.00021737175
0.00021791785
0.00021856176
0.00021928879
0.00022007449
0.00022088597
0.00022168601
0.00022243871
0.0002231147
0.00022369402
0.00022416692
0.0002245327