/*--------------------------------*- C++ -*----------------------------------*\
| =========                 |                                                 |
| \\      /  F ield         | foam-extend: Open Source CFD                    |
|  \\    /   O peration     | Version:     4.1                                |
|   \\  /    A nd           | Web:         http://www.foam-extend.org         |
|    \\/     M anipulation  |                                                 |
\*---------------------------------------------------------------------------*/
FoamFile
{
    version     2.0;
    format      ascii;
    class       volVectorField;
    location    "1.1";
    object      U;
}
// * * * * * * * * * * * * * * * * * * * * * * * * * * * * * * * * * * * * * //

dimensions      [0 1 -1 0 0 0 0];

internalField   nonuniform List<vector> 
4393
(
(146.0489 -0.1565031 0)
(146.5975 -0.16293707 0)
(147.0118 -0.16595119 0)
(147.45302 -0.16960192 0)
(147.90407 -0.17400978 0)
(148.36986 -0.17926023 0)
(148.8526 -0.18527512 0)
(149.35444 -0.19190819 0)
(149.87699 -0.19895376 0)
(150.42114 -0.20614883 0)
(150.98694 -0.21317317 0)
(151.57338 -0.21965262 0)
(152.17825 -0.22516781 0)
(152.79805 -0.22927006 0)
(153.42788 -0.23150444 0)
(154.06149 -0.23143766 0)
(154.69139 -0.22868567 0)
(155.30905 -0.2229351 0)
(155.90509 -0.21395434 0)
(156.46957 -0.2015937 0)
(156.99221 -0.18577843 0)
(157.46263 -0.166501 0)
(157.87046 -0.14381868 0)
(158.20564 -0.11786196 0)
(158.4586 -0.088857062 0)
(158.62066 -0.057159528 0)
(158.68449 -0.023276023 0)
(158.64489 0.012126619 0)
(158.49853 0.04797329 0)
(158.24628 0.082848824 0)
(157.89311 0.11530708 0)
(157.44835 0.14393712 0)
(156.92537 0.16751058 0)
(156.3408 0.18513471 0)
(155.71333 0.196351 0)
(155.0623 0.20115495 0)
(154.40646 0.19994212 0)
(153.76286 0.19340544 0)
(153.14622 0.18241422 0)
(152.56855 0.16790049 0)
(152.03911 0.15076884 0)
(151.56467 0.13183514 0)
(151.14978 0.11179341 0)
(150.79719 0.091217235 0)
(150.50827 0.070610794 0)
(150.28348 0.050432478 0)
(150.12222 0.030837473 0)
(150.02092 0.011723077 0)
(149.97389 -0.0031700214 0)
(149.47194 -0.39491505 0)
(149.94134 -0.40586663 0)
(150.28758 -0.41396635 0)
(150.65757 -0.42450842 0)
(151.03721 -0.43760815 0)
(151.43148 -0.45330137 0)
(151.84275 -0.4713179 0)
(152.27326 -0.4912123 0)
(152.72471 -0.51237222 0)
(153.19807 -0.53401661 0)
(153.69348 -0.55519374 0)
(154.20999 -0.57478901 0)
(154.74548 -0.5915498 0)
(155.29645 -0.60413179 0)
(155.85802 -0.61116777 0)
(156.4239 -0.61135172 0)
(156.98653 -0.60352317 0)
(157.53727 -0.58673323 0)
(158.06665 -0.56027896 0)
(158.56461 -0.52370444 0)
(159.02078 -0.47678022 0)
(159.42465 -0.41948045 0)
(159.76579 -0.35197779 0)
(160.03398 -0.27467239 0)
(160.2195 -0.18826583 0)
(160.31345 -0.093877046 0)
(160.3083 0.0068451667 0)
(160.19843 0.1116585 0)
(159.98172 0.21748534 0)
(159.65888 0.3205135 0)
(159.23466 0.41654791 0)
(158.71823 0.50139309 0)
(158.12299 0.57135848 0)
(157.46573 0.62373688 0)
(156.76535 0.65710943 0)
(156.04147 0.67140899 0)
(155.31302 0.66776023 0)
(154.59716 0.64817301 0)
(153.90862 0.61518112 0)
(153.25934 0.57150311 0)
(152.6585 0.51977215 0)
(152.11272 0.46235049 0)
(151.62645 0.40122603 0)
(151.20242 0.33800176 0)
(150.84201 0.27399617 0)
(150.54554 0.21026768 0)
(150.31218 0.1471053 0)
(150.14086 0.08434487 0)
(150.03531 0.028580563 0)
(149.73739 -0.62939415 0)
(150.19159 -0.63857107 0)
(150.52687 -0.65072077 0)
(150.88501 -0.66771156 0)
(151.25284 -0.68939219 0)
(151.63542 -0.71554045 0)
(152.03526 -0.74564675 0)
(152.45473 -0.77895232 0)
(152.89564 -0.81443504 0)
(153.35911 -0.85079338 0)
(153.84544 -0.88643753 0)
(154.35386 -0.91949921 0)
(154.88236 -0.94787107 0)
(155.42757 -0.96928395 0)
(155.98468 -0.98142441 0)
(156.54738 -0.98208103 0)
(157.10806 -0.96929267 0)
(157.65798 -0.94146413 0)
(158.18754 -0.89742412 0)
(158.68661 -0.83642208 0)
(159.14472 -0.75808522 0)
(159.55127 -0.66237094 0)
(159.89571 -0.5495517 0)
(160.16767 -0.42026134 0)
(160.35714 -0.27562219 0)
(160.45482 -0.1174564 0)
(160.45264 0.051463461 0)
(160.34438 0.22725321 0)
(160.12641 0.40485522 0)
(159.79878 0.57802933 0)
(159.36598 0.73967624 0)
(158.83741 0.88259907 0)
(158.22711 1.0004401 0)
(157.55291 1.0885462 0)
(156.83491 1.1445116 0)
(156.09388 1.1682801 0)
(155.34967 1.1618478 0)
(154.6201 1.1287115 0)
(153.9202 1.0732321 0)
(153.26196 1.0000464 0)
(152.6544 0.91360633 0)
(152.10385 0.81786977 0)
(151.61442 0.71613376 0)
(151.18849 0.61100877 0)
(150.82718 0.50451248 0)
(150.53034 0.39807291 0)
(150.29671 0.29220456 0)
(150.12702 0.18720532 0)
(150.02928 0.087413783 0)
(149.82993 -0.85841032 0)
(150.2762 -0.86818743 0)
(150.60689 -0.88443596 0)
(150.96021 -0.90797734 0)
(151.32346 -0.93842316 0)
(151.70181 -0.97532282 0)
(152.09796 -1.0179335 0)
(152.51447 -1.0651984 0)
(152.95336 -1.1157043 0)
(153.41601 -1.1676454 0)
(153.90293 -1.2188019 0)
(154.41358 -1.2665469 0)
(154.94612 -1.3078963 0)
(155.49728 -1.3396158 0)
(156.06222 -1.3583911 0)
(156.63452 -1.3610456 0)
(157.20631 -1.3447652 0)
(157.76854 -1.307274 0)
(158.31127 -1.2469183 0)
(158.82403 -1.162652 0)
(159.29607 -1.0539579 0)
(159.71652 -0.92076043 0)
(160.07456 -0.76338771 0)
(160.35947 -0.58262744 0)
(160.56077 -0.37990544 0)
(160.66846 -0.15759471 0)
(160.67364 0.080594446 0)
(160.56908 0.32929762 0)
(160.35013 0.58129865 0)
(160.01601 0.82757904 0)
(159.57083 1.0577955 0)
(159.02428 1.2613676 0)
(158.39144 1.4289114 0)
(157.69177 1.5535894 0)
(156.94728 1.6319474 0)
(156.18053 1.6640469 0)
(155.41286 1.6529781 0)
(154.66304 1.6039961 0)
(153.94658 1.523552 0)
(153.2755 1.4184204 0)
(152.65854 1.2950355 0)
(152.10159 1.1590618 0)
(151.60818 1.0151826 0)
(151.1802 0.86707321 0)
(150.81825 0.71749262 0)
(150.52164 0.56832291 0)
(150.28881 0.42059245 0)
(150.12121 0.27534752 0)
(150.02715 0.13502559 0)
(149.93892 -1.0819511 0)
(150.37711 -1.0932732 0)
(150.70246 -1.1137405 0)
(151.05041 -1.1439492 0)
(151.40865 -1.1833398 0)
(151.78247 -1.2312727 0)
(152.17479 -1.2867849 0)
(152.58843 -1.3485317 0)
(153.02569 -1.4147164 0)
(153.48825 -1.4830299 0)
(153.97695 -1.5506114 0)
(154.49154 -1.6140473 0)
(155.03044 -1.669427 0)
(155.59049 -1.7124787 0)
(156.16684 -1.7387982 0)
(156.75287 -1.7441537 0)
(157.34035 -1.724809 0)
(157.91977 -1.6777758 0)
(158.48071 -1.6009273 0)
(159.01226 -1.4929607 0)
(159.50327 -1.3532603 0)
(159.94259 -1.1817473 0)
(160.31906 -0.97880043 0)
(160.62154 -0.74531294 0)
(160.83897 -0.48292599 0)
(160.96048 -0.19445147 0)
(160.97602 0.11557365 0)
(160.87701 0.4404091 0)
(160.65725 0.770755 0)
(160.31472 1.094636 0)
(159.85288 1.3980366 0)
(159.28173 1.6664153 0)
(158.61787 1.8868027 0)
(157.88307 2.0498085 0)
(157.10209 2.1508399 0)
(156.3001 2.1902458 0)
(155.50046 2.1725461 0)
(154.72327 2.1051455 0)
(153.98459 1.9969417 0)
(153.29645 1.8571164 0)
(152.66714 1.6942489 0)
(152.10183 1.5157731 0)
(151.60332 1.3277344 0)
(151.17272 1.1347785 0)
(150.80995 0.9402646 0)
(150.51371 0.74638686 0)
(150.28219 0.55444179 0)
(150.11706 0.36561718 0)
(150.02586 0.18119234 0)
(150.07649 -1.302952 0)
(150.50472 -1.316311 0)
(150.82324 -1.3411839 0)
(151.16438 -1.3782824 0)
(151.51625 -1.4269422 0)
(151.88433 -1.4863916 0)
(152.27176 -1.5554863 0)
(152.68167 -1.6326278 0)
(153.11674 -1.7156639 0)
(153.57904 -1.8017994 0)
(154.06983 -1.8875321 0)
(154.58926 -1.9686346 0)
(155.13607 -2.0402091 0)
(155.70733 -2.096848 0)
(156.29815 -2.1329277 0)
(156.90166 -2.1430238 0)
(157.50916 -2.1223635 0)
(158.11051 -2.0671832 0)
(158.69463 -1.9748783 0)
(159.25004 -1.8439241 0)
(159.76515 -1.6736481 0)
(160.22843 -1.4639795 0)
(160.62838 -1.2153023 0)
(160.95343 -0.92849841 0)
(161.19179 -0.6052394 0)
(161.33155 -0.24854847 0)
(161.36114 0.13642513 0)
(161.27019 0.54165265 0)
(161.05039 0.95566233 0)
(160.69784 1.3632371 0)
(160.21494 1.7460862 0)
(159.61207 2.0848715 0)
(158.90778 2.3622197 0)
(158.12714 2.56566 0)
(157.29869 2.6893651 0)
(156.45115 2.7342649 0)
(155.61059 2.7068432 0)
(154.79877 2.6172587 0)
(154.0324 2.477402 0)
(153.32335 2.2992821 0)
(152.67921 2.0939005 0)
(152.10416 1.870609 0)
(151.59994 1.6368631 0)
(151.16662 1.3982522 0)
(150.80317 1.1586723 0)
(150.50754 0.92055157 0)
(150.27748 0.68523075 0)
(150.11443 0.45353925 0)
(150.02513 0.22567277 0)
(150.24333 -1.514914 0)
(150.66 -1.5306052 0)
(150.9702 -1.5601518 0)
(151.30294 -1.6044745 0)
(151.64694 -1.6628351 0)
(152.00783 -1.7343737 0)
(152.38907 -1.8178042 0)
(152.79415 -1.9113123 0)
(153.22619 -2.0124238 0)
(153.68777 -2.1178801 0)
(154.18067 -2.2235393 0)
(154.70559 -2.324331 0)
(155.26171 -2.4142982 0)
(155.84638 -2.4867756 0)
(156.45474 -2.5347548 0)
(157.07959 -2.5514391 0)
(157.71159 -2.5308757 0)
(158.33977 -2.4684618 0)
(158.9522 -2.361143 0)
(159.53666 -2.2072658 0)
(160.08104 -2.006206 0)
(160.57343 -1.7579676 0)
(161.00204 -1.462927 0)
(161.35486 -1.1218396 0)
(161.61936 -0.7361878 0)
(161.78237 -0.30890604 0)
(161.83046 0.15456271 0)
(161.75091 0.64516156 0)
(161.53252 1.1493546 0)
(161.16872 1.6483685 0)
(160.66021 2.1188359 0)
(160.01762 2.5354316 0)
(159.26211 2.8751745 0)
(158.42322 3.1217398 0)
(157.5347 3.2679345 0)
(156.62999 3.3156984 0)
(155.73869 3.2742244 0)
(154.88454 3.1572323 0)
(154.08491 2.9802987 0)
(153.35126 2.7587569 0)
(152.69013 2.5063249 0)
(152.10436 2.2343982 0)
(151.59425 1.951849 0)
(151.15854 1.6651488 0)
(150.79505 1.3786523 0)
(150.50078 1.0949561 0)
(150.27284 0.81535759 0)
(150.11214 0.54028887 0)
(150.02456 0.26916633 0)
(150.43875 -1.7254246 0)
(150.84135 -1.7434652 0)
(151.14158 -1.7777069 0)
(151.46428 -1.8293613 0)
(151.79881 -1.8976666 0)
(152.15099 -1.9817296 0)
(152.52462 -2.0801796 0)
(152.92362 -2.191045 0)
(153.35163 -2.3115845 0)
(153.81186 -2.438117 0)
(154.30677 -2.5658771 0)
(154.8377 -2.6889273 0)
(155.40449 -2.8001702 0)
(156.00486 -2.8915289 0)
(156.63403 -2.9543855 0)
(157.28442 -2.980315 0)
(157.94584 -2.9619709 0)
(158.60621 -2.8938103 0)
(159.25248 -2.7723627 0)
(159.87151 -2.595973 0)
(160.45059 -2.3642108 0)
(160.9775 -2.0772432 0)
(161.44023 -1.7354186 0)
(161.82644 -1.3392078 0)
(162.12287 -0.88960134 0)
(162.31495 -0.38902708 0)
(162.38701 0.15723975 0)
(162.32337 0.7394671 0)
(162.10896 1.3421783 0)
(161.73338 1.9427308 0)
(161.19461 2.5116554 0)
(160.5033 3.0159751 0)
(159.68399 3.4253641 0)
(158.77235 3.7185545 0)
(157.80919 3.8868765 0)
(156.83422 3.9339779 0)
(155.88146 3.8728723 0)
(154.977 3.7219818 0)
(154.1387 3.5015023 0)
(153.3772 3.2307239 0)
(152.6975 2.9264241 0)
(152.10061 2.6021564 0)
(151.58495 2.2681657 0)
(151.14761 1.9316698 0)
(150.78497 1.5973064 0)
(150.49295 1.2676449 0)
(150.26784 0.94373499 0)
(150.10983 0.62551192 0)
(150.02402 0.31173439 0)
(150.66219 -1.9210466 0)
(151.0492 -1.9416744 0)
(151.33789 -1.9810164 0)
(151.64881 -2.0405642 0)
(151.97212 -2.119546 0)
(152.31385 -2.2170832 0)
(152.6782 -2.3317795 0)
(153.06956 -2.4615723 0)
(153.49222 -2.6035183 0)
(153.95009 -2.7535677 0)
(154.44648 -2.9063566 0)
(154.98362 -3.0550581 0)
(155.56213 -3.191341 0)
(156.18037 -3.3055249 0)
(156.83368 -3.3870857 0)
(157.51403 -3.4256162 0)
(158.21014 -3.4120781 0)
(158.90843 -3.3398601 0)
(159.59436 -3.2051559 0)
(160.25367 -3.0065364 0)
(160.87299 -2.7440208 0)
(161.4399 -2.4181157 0)
(161.94234 -2.0291674 0)
(162.36788 -1.5771957 0)
(162.70264 -1.0623257 0)
(162.93058 -0.48592729 0)
(163.03337 0.1475391 0)
(162.99172 0.82827083 0)
(162.78538 1.5392598 0)
(162.3985 2.2537526 0)
(161.82486 2.9348986 0)
(161.07447 3.5397213 0)
(160.17633 4.027985 0)
(159.17447 4.371892 0)
(158.11936 4.5612114 0)
(157.05902 4.6023803 0)
(156.03299 4.5138337 0)
(155.06991 4.3202489 0)
(154.18778 4.0476353 0)
(153.39583 3.7199942 0)
(152.69681 3.3575292 0)
(152.08924 2.9760379 0)
(151.56919 2.5870518 0)
(151.13168 2.1983643 0)
(150.77141 1.8146981 0)
(150.483 1.4383938 0)
(150.2618 1.0700618 0)
(150.10717 0.70902269 0)
(150.02341 0.35333296 0)
(150.91341 -2.1185688 0)
(151.2815 -2.1416609 0)
(151.5568 -2.1859522 0)
(151.85405 -2.2533031 0)
(152.16426 -2.3429958 0)
(152.49367 -2.4542331 0)
(152.84687 -2.5856748 0)
(153.22882 -2.7352605 0)
(153.64451 -2.8999434 0)
(154.09873 -3.0753945 0)
(154.59582 -3.2557123 0)
(155.13911 -3.433188 0)
(155.7303 -3.5981786 0)
(156.36861 -3.739191 0)
(157.04972 -3.8434243 0)
(157.76504 -3.8980132 0)
(158.50184 -3.8918103 0)
(159.24453 -3.8169628 0)
(159.97659 -3.6694666 0)
(160.68231 -3.4484696 0)
(161.34765 -3.1548216 0)
(161.96015 -2.7896228 0)
(162.50808 -2.3532603 0)
(162.97923 -1.8450895 0)
(163.35942 -1.2638754 0)
(163.63114 -0.60918388 0)
(163.77308 0.11624494 0)
(163.76153 0.90344846 0)
(163.56949 1.7345462 0)
(163.17347 2.578644 0)
(162.56057 3.3900026 0)
(161.7391 4.1123551 0)
(160.74374 4.6917333 0)
(159.63022 5.0914939 0)
(158.46231 5.299895 0)
(157.29902 5.3278906 0)
(156.18666 5.2016869 0)
(155.15645 4.9543378 0)
(154.22587 4.6191805 0)
(153.40177 4.2257863 0)
(152.6837 3.7981198 0)
(152.0669 3.3542081 0)
(151.54448 2.9066632 0)
(151.10898 2.4635703 0)
(150.75314 2.0294458 0)
(150.47013 1.6061361 0)
(150.25423 1.1935962 0)
(150.1039 0.79039417 0)
(150.02268 0.39378361 0)
(151.1905 -2.2909275 0)
(151.53868 -2.3166143 0)
(151.79896 -2.3662417 0)
(152.08069 -2.4420016 0)
(152.37584 -2.5432456 0)
(152.69089 -2.669324 0)
(153.03085 -2.8190437 0)
(153.40129 -2.9904579 0)
(153.80799 -3.1805389 0)
(154.25679 -3.3847955 0)
(154.75325 -3.596875 0)
(155.30209 -3.8082115 0)
(155.90646 -4.0077707 0)
(156.56681 -4.1819916 0)
(157.2794 -4.3152937 0)
(158.03506 -4.3916531 0)
(158.81916 -4.3971622 0)
(159.61335 -4.3224345 0)
(160.3984 -4.1634586 0)
(161.15678 -3.9204872 0)
(161.8738 -3.5957793 0)
(162.53728 -3.1914313 0)
(163.13633 -2.7080041 0)
(163.65953 -2.1440048 0)
(164.09285 -1.4962796 0)
(164.41756 -0.76165896 0)
(164.60907 0.060039374 0)
(164.63844 0.96206491 0)
(164.46999 1.9268349 0)
(164.06949 2.9196727 0)
(163.4137 3.8843458 0)
(162.50705 4.7466748 0)
(161.39152 5.433125 0)
(160.13942 5.8947238 0)
(158.83316 6.1185701 0)
(157.54627 6.1228995 0)
(156.33319 5.9451399 0)
(155.22741 5.6295984 0)
(154.2447 5.218818 0)
(153.3881 4.7488737 0)
(152.6527 4.247739 0)
(152.02945 3.7355109 0)
(151.50782 3.2255296 0)
(151.07742 2.7257668 0)
(150.72878 2.2401495 0)
(150.45347 1.7697005 0)
(150.24464 1.3134615 0)
(150.09983 0.86906763 0)
(150.02177 0.43282098 0)
(151.49499 -2.4738465 0)
(151.8188 -2.5022074 0)
(152.06188 -2.5571317 0)
(152.32587 -2.6412542 0)
(152.60371 -2.7540746 0)
(152.90201 -2.8951712 0)
(153.22623 -3.0636036 0)
(153.58258 -3.25767 0)
(153.97773 -3.4745152 0)
(154.41872 -3.709646 0)
(154.91259 -3.9563935 0)
(155.46579 -4.2054099 0)
(156.08338 -4.4442355 0)
(156.76757 -4.6569957 0)
(157.51569 -4.8247302 0)
(158.31801 -4.9273191 0)
(159.15738 -4.9471877 0)
(160.01158 -4.8730542 0)
(160.85765 -4.7013045 0)
(161.67565 -4.4342179 0)
(162.45029 -4.0764226 0)
(163.1702 -3.6316511 0)
(163.826 -3.1008581 0)
(164.4079 -2.4814846 0)
(164.90282 -1.7677127 0)
(165.29123 -0.95232203 0)
(165.54522 -0.030498481 0)
(165.62896 0.99513107 0)
(165.49756 2.1090135 0)
(165.10114 3.2741399 0)
(164.40039 4.4222943 0)
(163.39186 5.4549453 0)
(162.12684 6.2698976 0)
(160.70163 6.8004576 0)
(159.22515 7.03362 0)
(157.79023 6.9993788 0)
(156.46075 6.7514862 0)
(155.27147 6.3493661 0)
(154.23446 5.8470199 0)
(153.3469 5.2879319 0)
(152.59774 4.7041221 0)
(151.97246 4.1173451 0)
(151.4561 3.5410954 0)
(151.0349 2.9826598 0)
(150.69697 2.4448819 0)
(150.4322 1.9275673 0)
(150.23259 1.4285522 0)
(150.09477 0.94433474 0)
(150.02066 0.47010137 0)
(151.82145 -2.6141384 0)
(152.12076 -2.6447338 0)
(152.34508 -2.7047754 0)
(152.58941 -2.7972824 0)
(152.84782 -2.9219249 0)
(153.12706 -3.0786042 0)
(153.43304 -3.2667735 0)
(153.77259 -3.4851615 0)
(154.15338 -3.7313122 0)
(154.58378 -4.000981 0)
(155.07259 -4.2874204 0)
(155.6284 -4.5806765 0)
(156.25871 -4.8669258 0)
(156.96828 -5.1277857 0)
(157.75619 -5.340191 0)
(158.61236 -5.4785766 0)
(159.51622 -5.5202424 0)
(160.44011 -5.4513104 0)
(161.35574 -5.2690147 0)
(162.24005 -4.9788736 0)
(163.07735 -4.5890943 0)
(163.85786 -4.1057417 0)
(164.57482 -3.5303333 0)
(165.2213 -2.8590025 0)
(165.78633 -2.0824832 0)
(166.25049 -1.1879828 0)
(166.5826 -0.16396531 0)
(166.73938 0.99331433 0)
(166.66426 2.2730475 0)
(166.28652 3.638821 0)
(165.54188 5.0097666 0)
(164.4117 6.2542118 0)
(162.95882 7.2267856 0)
(161.31518 7.8343655 0)
(159.62819 8.0664534 0)
(158.01629 7.9721069 0)
(156.55374 7.6289868 0)
(155.27431 7.1167444 0)
(154.18321 6.5034099 0)
(153.26889 5.8405804 0)
(152.51197 5.1639755 0)
(151.89108 4.4962169 0)
(151.38601 3.8500822 0)
(150.97926 3.2313974 0)
(150.65637 2.6413019 0)
(150.40553 2.0779205 0)
(150.21767 1.5375578 0)
(150.08855 1.0153537 0)
(150.01929 0.50521345 0)
(152.17465 -2.7815916 0)
(152.44372 -2.8153305 0)
(152.64675 -2.8812289 0)
(152.86889 -2.9828186 0)
(153.10516 -3.1200373 0)
(153.36236 -3.2932115 0)
(153.64675 -3.5023231 0)
(153.96579 -3.7467056 0)
(154.32815 -4.0245207 0)
(154.74375 -4.3320275 0)
(155.22343 -4.6626475 0)
(155.77837 -5.0060014 0)
(156.41923 -5.3469738 0)
(157.1544 -5.6644757 0)
(157.98597 -5.9304079 0)
(158.90397 -6.1117735 0)
(159.88345 -6.1784395 0)
(160.88888 -6.1128384 0)
(161.88436 -5.9139516 0)
(162.84262 -5.5927962 0)
(163.74793 -5.1634852 0)
(164.59334 -4.6359233 0)
(165.37602 -4.0129122 0)
(166.09333 -3.2894671 0)
(166.73807 -2.45224 0)
(167.29224 -1.4808975 0)
(167.72185 -0.35406063 0)
(167.97575 0.94198362 0)
(167.98399 2.405285 0)
(167.64863 4.0054604 0)
(166.86701 5.650778 0)
(165.592 7.1649937 0)
(163.89973 8.3359326 0)
(161.97666 9.0292359 0)
(160.02752 9.2430079 0)
(158.20443 9.0573631 0)
(156.59184 8.5851883 0)
(155.21816 7.9329412 0)
(154.07683 7.1853563 0)
(153.14355 6.4023157 0)
(152.38796 5.6222385 0)
(151.78027 4.8672726 0)
(151.29428 4.1482216 0)
(150.90845 3.468436 0)
(150.60573 2.8266005 0)
(150.37276 2.2186361 0)
(150.19952 1.6389694 0)
(150.08103 1.0811618 0)
(150.01763 0.53768752 0)
(152.54178 -2.8798066 0)
(152.7815 -2.9149435 0)
(152.96176 -2.9850767 0)
(153.15971 -3.0941273 0)
(153.3716 -3.2422909 0)
(153.60416 -3.4304042 0)
(153.86398 -3.6591369 0)
(154.15911 -3.928671 0)
(154.49927 -4.2381322 0)
(154.896 -4.5847391 0)
(155.36254 -4.9626035 0)
(155.91316 -5.3614261 0)
(156.56248 -5.7652609 0)
(157.32392 -6.1505987 0)
(158.2045 -6.4836775 0)
(159.19543 -6.7216556 0)
(160.26586 -6.8236488 0)
(161.36871 -6.766788 0)
(162.45663 -6.5532373 0)
(163.49646 -6.2028055 0)
(164.4732 -5.7384154 0)
(165.38456 -5.1748572 0)
(166.23364 -4.5158083 0)
(167.02423 -3.7542693 0)
(167.75556 -2.8713334 0)
(168.4135 -1.8362724 0)
(168.96247 -0.61392062 0)
(169.34329 0.82335987 0)
(169.472 2.4868605 0)
(169.21629 4.3601554 0)
(168.41529 6.3472048 0)
(166.96902 8.213765 0)
(164.96627 9.6418772 0)
(162.6795 10.429066 0)
(160.40122 10.595948 0)
(158.32696 10.273423 0)
(156.54861 9.6265372 0)
(155.08116 8.7966267 0)
(153.89885 7.8874001 0)
(152.95927 6.9661164 0)
(152.21794 6.071857 0)
(151.63504 5.2241943 0)
(151.17781 4.4302247 0)
(150.82062 3.6895491 0)
(150.54402 2.9975265 0)
(150.33333 2.3473116 0)
(150.17788 1.731108 0)
(150.07212 1.1406983 0)
(150.01568 0.56700792 0)
(152.93699 -3.0310672 0)
(153.14049 -3.0701531 0)
(153.29541 -3.146864 0)
(153.46664 -3.2656883 0)
(153.65135 -3.4272535 0)
(153.85599 -3.6331106 0)
(154.08727 -3.8848717 0)
(154.3537 -4.1838802 0)
(154.66593 -4.5306146 0)
(155.03721 -4.9237349 0)
(155.48341 -5.3585696 0)
(156.02239 -5.8253358 0)
(156.67363 -6.3075845 0)
(157.4574 -6.7795958 0)
(158.38869 -7.2009843 0)
(159.46226 -7.5149775 0)
(160.63986 -7.6635611 0)
(161.85729 -7.6146641 0)
(163.05023 -7.3750427 0)
(164.17756 -6.9781596 0)
(165.22682 -6.4605419 0)
(166.20377 -5.8441818 0)
(167.12003 -5.1345136 0)
(167.98794 -4.3239708 0)
(168.81607 -3.3897473 0)
(169.5972 -2.2900761 0)
(170.29528 -0.9723075 0)
(170.84295 0.61051267 0)
(171.14351 2.4900832 0)
(171.02502 4.6786411 0)
(170.24136 7.0944249 0)
(168.5961 9.4336107 0)
(166.18203 11.207699 0)
(163.41157 12.093521 0)
(160.7165 12.166132 0)
(158.34554 11.639648 0)
(156.38986 10.756603 0)
(154.83682 9.7022165 0)
(153.63054 8.5999744 0)
(152.7037 7.5216343 0)
(151.99418 6.5033441 0)
(151.4508 5.5590044 0)
(151.034 4.6897286 0)
(150.71437 3.8898444 0)
(150.4705 3.150432 0)
(150.2869 2.4613166 0)
(150.1526 1.8121684 0)
(150.06175 1.1928357 0)
(150.01342 0.5926295 0)
(153.33169 -3.0768208 0)
(153.50078 -3.1160458 0)
(153.62882 -3.1954277 0)
(153.77115 -3.3198175 0)
(153.926 -3.49015 0)
(154.09947 -3.7086359 0)
(154.29829 -3.9778286 0)
(154.53128 -4.3003155 0)
(154.80995 -4.6781564 0)
(155.1493 -5.1119224 0)
(155.56818 -5.5989028 0)
(156.08871 -6.1307031 0)
(156.73614 -6.6913617 0)
(157.53982 -7.2544079 0)
(158.52746 -7.773598 0)
(159.70196 -8.1744141 0)
(161.01591 -8.3732981 0)
(162.37903 -8.3244935 0)
(163.70037 -8.0441557 0)
(164.92694 -7.5894199 0)
(166.05132 -7.0193902 0)
(167.09189 -6.3662488 0)
(168.07142 -5.6359756 0)
(169.01248 -4.8188898 0)
(169.93708 -3.8864093 0)
(170.85099 -2.7790443 0)
(171.72208 -1.4149019 0)
(172.4772 0.28402562 0)
(173.01214 2.377656 0)
(173.11575 4.9213728 0)
(172.42032 7.8764342 0)
(170.55375 10.866634 0)
(167.5816 13.127294 0)
(164.15062 14.10542 0)
(160.92371 14.004725 0)
(158.20685 13.174883 0)
(156.07174 11.973508 0)
(154.4537 10.637667 0)
(153.25146 9.3079477 0)
(152.36449 8.0544016 0)
(151.70971 6.9044399 0)
(151.22387 5.8619843 0)
(150.86106 4.91934 0)
(150.58892 4.0638548 0)
(150.38491 3.2813687 0)
(150.23339 2.5578763 0)
(150.12367 1.8802829 0)
(150.04994 1.2364227 0)
(150.01084 0.61399924 0)
(153.75569 -3.2105257 0)
(153.88268 -3.255429 0)
(153.98163 -3.3424582 0)
(154.09299 -3.4770471 0)
(154.2157 -3.6607019 0)
(154.35516 -3.896687 0)
(154.51781 -4.189031 0)
(154.71249 -4.5422768 0)
(154.95118 -4.9610003 0)
(155.2503 -5.4489336 0)
(155.63165 -6.0069211 0)
(156.12193 -6.6295751 0)
(156.75263 -7.3027624 0)
(157.56418 -8.0010891 0)
(158.60366 -8.6739763 0)
(159.89075 -9.2230195 0)
(161.368 -9.5216896 0)
(162.90496 -9.4972057 0)
(164.36899 -9.1778303 0)
(165.69042 -8.6551965 0)
(166.87324 -8.0208326 0)
(167.9584 -7.3168974 0)
(168.9853 -6.5442404 0)
(169.9892 -5.6889961 0)
(171.01178 -4.7215313 0)
(172.08126 -3.5675663 0)
(173.17389 -2.1154409 0)
(174.20834 -0.25761442 0)
(175.06621 2.0891955 0)
(175.52436 5.0320954 0)
(175.04923 8.656014 0)
(172.96252 12.558857 0)
(169.21552 15.541402 0)
(164.85469 16.579559 0)
(160.94683 16.174546 0)
(157.83669 14.893701 0)
(155.53883 13.265541 0)
(153.89572 11.581255 0)
(152.74048 9.9887713 0)
(151.93042 8.5449906 0)
(151.35922 7.2598645 0)
(150.95215 6.1217176 0)
(150.65849 5.1107884 0)
(150.44443 4.2057098 0)
(150.28758 3.3862393 0)
(150.17313 2.6341905 0)
(150.0913 1.933607 0)
(150.03677 1.2703395 0)
(150.00798 0.63058297 0)
(154.13603 -3.1946833 0)
(154.22231 -3.237884 0)
(154.29033 -3.3244976 0)
(154.36798 -3.4608671 0)
(154.45498 -3.6490495 0)
(154.55571 -3.8932546 0)
(154.67605 -4.1987705 0)
(154.82445 -4.5717896 0)
(155.01294 -5.0190351 0)
(155.25899 -5.5471187 0)
(155.58751 -6.1605228 0)
(156.03057 -6.8572072 0)
(156.62673 -7.6250514 0)
(157.42961 -8.4414997 0)
(158.5156 -9.2566629 0)
(159.93816 -9.9451386 0)
(161.63228 -10.313359 0)
(163.40428 -10.24388 0)
(165.05398 -9.792457 0)
(166.48648 -9.1123506 0)
(167.72733 -8.3536462 0)
(168.85533 -7.575034 0)
(169.93072 -6.7696662 0)
(170.99656 -5.9227026 0)
(172.11533 -5.018334 0)
(173.3477 -3.9702156 0)
(174.6841 -2.6195405 0)
(176.03287 -0.79604763 0)
(177.28228 1.6461399 0)
(178.24498 4.9155057 0)
(178.21501 9.3274187 0)
(175.983 14.535081 0)
(171.15292 18.674789 0)
(165.44356 19.68566 0)
(160.66921 18.753509 0)
(157.13224 16.799795 0)
(154.72272 14.604312 0)
(153.12358 12.497235 0)
(152.07795 10.610404 0)
(151.39325 8.9683385 0)
(150.94036 7.5513289 0)
(150.63596 6.3253581 0)
(150.42752 5.2552419 0)
(150.28222 4.3094134 0)
(150.1796 3.461014 0)
(150.10684 2.6875897 0)
(150.05591 1.9704257 0)
(150.02242 1.2935626 0)
(150.00486 0.64189692 0)
(154.44917 -3.3022426 0)
(154.48551 -3.3566761 0)
(154.51866 -3.4545579 0)
(154.55834 -3.603312 0)
(154.60487 -3.8054424 0)
(154.66137 -4.0662414 0)
(154.73286 -4.3925694 0)
(154.82708 -4.7929278 0)
(154.95559 -5.2774021 0)
(155.13607 -5.8576246 0)
(155.39586 -6.54546 0)
(155.77244 -7.347717 0)
(156.31061 -8.260065 0)
(157.07566 -9.2697729 0)
(158.18316 -10.341534 0)
(159.74877 -11.3278 0)
(161.70941 -11.924427 0)
(163.76892 -11.919024 0)
(165.61626 -11.407363 0)
(167.11992 -10.628215 0)
(168.34711 -9.8215899 0)
(169.44331 -9.0578365 0)
(170.4972 -8.2998241 0)
(171.55038 -7.5092723 0)
(172.69262 -6.6866629 0)
(174.0481 -5.721056 0)
(175.64977 -4.3714309 0)
(177.40807 -2.3761583 0)
(179.22605 0.47500388 0)
(181.00097 4.3266775 0)
(181.86788 9.7701167 0)
(179.76964 16.835906 0)
(173.45905 22.958854 0)
(165.74647 23.683953 0)
(159.90419 21.828255 0)
(155.95016 18.86961 0)
(153.54168 15.933065 0)
(152.09817 13.330051 0)
(151.24923 11.129255 0)
(150.75032 9.2935256 0)
(150.45538 7.7579982 0)
(150.27891 6.4592291 0)
(150.17159 5.3438311 0)
(150.10503 4.3692428 0)
(150.06289 3.5020131 0)
(150.03575 2.7157269 0)
(150.01815 1.9892767 0)
(150.00717 1.305239 0)
(150.00155 0.64754237 0)
(154.38531 -3.2264166 0)
(154.36104 -3.2763519 0)
(154.35209 -3.3656607 0)
(154.34548 -3.5056683 0)
(154.34209 -3.7001689 0)
(154.34314 -3.956072 0)
(154.35202 -4.2822248 0)
(154.37465 -4.6898388 0)
(154.4205 -5.1926708 0)
(154.50529 -5.8074437 0)
(154.65648 -6.5534381 0)
(154.91618 -7.4463697 0)
(155.33502 -8.487053 0)
(155.98634 -9.6663879 0)
(157.03631 -10.969702 0)
(158.71811 -12.239152 0)
(161.00762 -12.990449 0)
(163.4422 -12.819354 0)
(165.52459 -11.932103 0)
(167.06704 -10.721723 0)
(168.21041 -9.6087496 0)
(169.22024 -8.6682179 0)
(170.23034 -7.7968855 0)
(171.25942 -6.899518 0)
(172.42045 -6.0540384 0)
(173.93752 -5.1960468 0)
(175.90351 -4.0102254 0)
(178.21013 -2.1967295 0)
(180.68137 0.51389542 0)
(183.37351 4.0150904 0)
(185.59558 9.851047 0)
(184.21843 19.141195 0)
(175.9947 28.862686 0)
(165.32564 28.721181 0)
(158.34142 25.418854 0)
(154.09604 21.01828 0)
(151.90623 17.149384 0)
(150.78834 13.997868 0)
(150.25051 11.488968 0)
(150.00811 9.4845547 0)
(149.913 7.8576926 0)
(149.88886 6.5098705 0)
(149.8968 5.3684183 0)
(149.91719 4.3802708 0)
(149.94031 3.5062465 0)
(149.96157 2.7167924 0)
(149.97892 1.9890831 0)
(149.99135 1.3047623 0)
(149.99812 0.64724101 0)
(153.47561 -3.2561457 0)
(153.37705 -3.3298683 0)
(153.30978 -3.4386818 0)
(153.23683 -3.598797 0)
(153.16067 -3.8143022 0)
(153.08018 -4.0930061 0)
(152.99649 -4.4447025 0)
(152.91279 -4.8820183 0)
(152.83544 -5.4208854 0)
(152.77658 -6.0815791 0)
(152.76201 -6.8904679 0)
(152.83888 -7.8764415 0)
(153.06517 -9.0553879 0)
(153.51259 -10.434105 0)
(154.39402 -12.05707 0)
(156.14056 -13.846333 0)
(158.8497 -15.094572 0)
(161.75875 -14.978296 0)
(164.04125 -13.952291 0)
(165.43469 -12.558991 0)
(166.2282 -11.491838 0)
(166.92115 -10.75576 0)
(167.71744 -10.149313 0)
(168.53755 -9.4729353 0)
(169.45585 -9.0181337 0)
(170.86712 -8.8483508 0)
(172.96928 -8.2920785 0)
(175.65779 -7.0428905 0)
(178.57216 -4.4765402 0)
(182.42926 -0.72728322 0)
(187.15839 7.2307678 0)
(188.24556 20.228469 0)
(177.92812 36.681031 0)
(163.24699 34.969198 0)
(155.5947 29.536039 0)
(151.35119 23.102783 0)
(149.73668 18.092289 0)
(149.1848 14.38826 0)
(149.09723 11.621625 0)
(149.18648 9.5029448 0)
(149.33031 7.8291588 0)
(149.47858 6.465629 0)
(149.61204 5.3226119 0)
(149.72459 4.3389854 0)
(149.81557 3.4717864 0)
(149.88647 2.6897355 0)
(149.93934 1.9692823 0)
(149.97543 1.291844 0)
(149.99467 0.64086763 0)
(150.27861 -3.1552717 0)
(150.03198 -3.2213476 0)
(149.86064 -3.3060099 0)
(149.67254 -3.4358334 0)
(149.47246 -3.6160348 0)
(149.25558 -3.8554422 0)
(149.01943 -4.1649166 0)
(148.76261 -4.5592291 0)
(148.48548 -5.0584107 0)
(148.19176 -5.6900303 0)
(147.89692 -6.4944239 0)
(147.64242 -7.5277708 0)
(147.48317 -8.8431743 0)
(147.45914 -10.471262 0)
(147.78384 -12.50751 0)
(149.20302 -15.035369 0)
(152.18258 -17.053641 0)
(155.43126 -16.589304 0)
(157.58611 -14.746134 0)
(158.3364 -12.183455 0)
(158.23481 -10.348638 0)
(158.16907 -9.1901312 0)
(158.40397 -8.4350353 0)
(158.60251 -7.5247477 0)
(158.71872 -7.0237569 0)
(159.66764 -7.0176144 0)
(161.78113 -5.9947813 0)
(164.94962 -4.8735776 0)
(168.68335 -1.9567584 0)
(175.06206 4.1667714 0)
(184.04686 12.175432 0)
(189.65396 24.095433 0)
(176.92314 49.629305 0)
(157.54553 45.387777 0)
(150.91436 34.317509 0)
(147.40324 24.793057 0)
(146.95732 18.491099 0)
(147.31608 14.349941 0)
(147.83444 11.452163 0)
(148.32309 9.3129421 0)
(148.73401 7.6556665 0)
(149.06588 6.3187895 0)
(149.32881 5.2029579 0)
(149.53445 4.2439439 0)
(149.69303 3.3981258 0)
(149.81295 2.6344621 0)
(149.90068 1.9299355 0)
(149.95989 1.2665721 0)
(149.99131 0.62847591 0)
(143.5099 -2.9198309 0)
(143.10988 -3.0121963 0)
(142.7997 -3.1137222 0)
(142.45148 -3.2633207 0)
(142.07689 -3.4659071 0)
(141.66672 -3.7316198 0)
(141.21292 -4.072779 0)
(140.70609 -4.5065499 0)
(140.13586 -5.0567002 0)
(139.49026 -5.7559344 0)
(138.76264 -6.6519292 0)
(137.97551 -7.8156758 0)
(137.18232 -9.3207482 0)
(136.39285 -11.178071 0)
(135.76004 -13.444304 0)
(136.50386 -16.540647 0)
(140.14376 -19.656632 0)
(144.25782 -18.174234 0)
(146.43867 -15.446632 0)
(146.26448 -11.96718 0)
(144.63857 -10.768966 0)
(143.25526 -10.900756 0)
(142.63851 -11.37037 0)
(142.04303 -10.884906 0)
(141.16562 -10.369108 0)
(141.99172 -10.532128 9.2157725e-18)
(143.27223 -11.921795 -2.0396731e-19)
(145.57725 -13.589588 0)
(146.66476 -7.4755438 1.0016067e-17)
(144.02819 -14.510048 -7.4990624e-18)
(161.53016 -10.135071 4.4273294e-18)
(180.41243 5.4383809 -9.8916347e-18)
(167.93166 72.289498 6.3471855e-18)
(142.12824 58.029224 0)
(140.66652 37.126154 0)
(141.63428 24.706925 0)
(143.57067 17.830774 0)
(145.29833 13.692641 0)
(146.55469 10.91285 0)
(147.47727 8.8913068 0)
(148.16032 7.3301411 0)
(148.67269 6.06807 0)
(149.06042 5.0101304 0)
(149.35481 4.0963446 0)
(149.57745 3.2864571 0)
(149.74366 2.5519731 0)
(149.86425 1.8717969 0)
(149.94526 1.2294453 0)
(149.98814 0.61031303 0)
(129.54801 -2.8693173 0)
(128.7641 -2.9446606 0)
(128.16039 -3.0084958 0)
(127.48611 -3.1100054 0)
(126.7612 -3.2511129 0)
(125.9666 -3.4389917 0)
(125.08414 -3.6816081 0)