/*--------------------------------*- C++ -*----------------------------------*\
| =========                 |                                                 |
| \\      /  F ield         | foam-extend: Open Source CFD                    |
|  \\    /   O peration     | Version:     4.1                                |
|   \\  /    A nd           | Web:         http://www.foam-extend.org         |
|    \\/     M anipulation  |                                                 |
\*---------------------------------------------------------------------------*/
FoamFile
{
    version     2.0;
    format      ascii;
    class       volScalarField;
    location    "0.65";
    object      p;
}
// * * * * * * * * * * * * * * * * * * * * * * * * * * * * * * * * * * * * * //

dimensions      [0 2 -2 0 0 0 0];

internalField   nonuniform List<scalar> 
16796
(
-2.1225558
-6.992219
-12.291791
-17.925835
-23.848191
-30.080001
-36.656485
-43.616148
-50.994359
-58.822587
-67.128508
-75.935477
-85.262518
-95.124007
-105.52974
-116.4849
-127.99019
-140.0419
-152.63217
-165.74909
-179.37705
-193.49695
-208.08669
-223.12147
-238.57443
-254.41711
-270.62021
-287.15429
-303.99057
-321.10184
-338.46337
-356.05398
-373.85678
-391.86031
-410.05935
-428.4557
-447.05886
-465.88646
-484.96456
-504.32757
-524.01805
-544.08595
-564.58777
-585.5852
-607.14346
-629.32927
-652.20859
-675.84399
-700.29182
-725.59918
-751.80085
-778.91623
-806.94635
-835.87113
-865.64669
-896.20311
-927.44261
-959.23803
-991.43189
-1023.836
-1056.2318
-1088.3708
-1119.9768
-1150.7473
-1180.3571
-1208.4614
-1234.7002
-1258.7034
-1280.0958
-1298.5035
-1313.5602
-1324.914
-1332.234
-1335.2173
-1333.595
-1327.1386
-1315.6653
-1299.042
-1277.1887
-1250.0805
-1217.7652
-1180.3529
-1137.9935
-1090.8892
-1039.2978
-983.5243
-923.91502
-860.85058
-794.73915
-726.0092
-655.10222
-582.46563
-508.54607
-433.78316
-358.60392
-283.41793
-208.61331
-134.55351
-61.574934
10.014657
79.937032
147.94371
213.81557
277.36209
338.42
396.85182
452.54405
505.4053
555.36432
602.36804
646.3797
687.37721
725.35173
760.30633
792.2547
821.22016
847.24417
870.40597
890.79004
908.34941
922.96459
935.53521
949.9168
968.15862
-0.56373673
-6.6731006
-12.152688
-17.818483
-23.735117
-29.95115
-36.510002
-43.453417
-50.817237
-58.633309
-66.929567
-75.729283
-85.051518
-94.91059
-105.31622
-116.27349
-127.78297
-139.8408
-152.43891
-165.56518
-179.20373
-193.3352
-207.93715
-222.98448
-238.44994
-254.30473
-270.51916
-287.06339
-303.90825
-321.02618
-338.39207
-355.9844
-373.78598
-391.78509
-409.97631
-428.36132
-446.94957
-465.75872
-484.81499
-504.15304
-523.81579
-543.85372
-564.32395
-585.28892
-606.81474
-628.96913
-651.81916
-675.42859
-699.85504
-725.14688
-751.34018
-778.45563
-806.49549
-835.44079
-865.24863
-895.84993
-927.14754
-959.01475
-991.29429
-1023.7979
-1056.3066
-1088.5715
-1120.315
-1151.2336
-1181.0003
-1209.2684
-1235.6757
-1259.8497
-1281.4124
-1299.9872
-1315.2051
-1326.7111
-1334.1714
-1337.2805
-1335.7674
-1329.4018
-1317.9998
-1301.4279
-1279.6076
-1252.5201
-1220.1985
-1182.734
-1140.2854
-1093.066
-1041.3375
-985.40806
-925.6269
-862.37777
-796.07207
-727.14148
-656.03064
-583.18999
-509.06898
-434.10974
-358.74152
-283.37579
-208.40221
-134.18543
-61.06271
10.657629
80.69709
148.80717
214.76895
278.39227
339.51435
397.99828
453.73121
506.62236
556.60106
603.61473
647.6269
688.61555
726.57152
761.49666
793.40226
822.30961
848.26055
871.31892
891.53183
908.84939
923.26677
935.56196
947.63299
958.07754
-0.13008877
-6.0844035
-11.539271
-17.161725
-23.018871
-29.175925
-35.680545
-42.573486
-49.893817
-57.675533
-65.947564
-74.734313
-84.05506
-93.924253
-104.35147
-115.34144
-126.89418
-139.00511
-151.66526
-164.86145
-178.57662
-192.79008
-207.47798
-222.61372
-238.16848
-254.11185
-270.41253
-287.03908
-303.96077
-321.14853
-338.57586
-356.21993
-374.06244
-392.09071
-410.29857
-428.68716
-447.26566
-466.05174
-485.07192
-504.36147
-523.96426
-543.93203
-564.3235
-585.20307
-606.6391
-628.70184
-651.46121
-674.98401
-699.33103
-724.55397
-750.69242
-777.77051
-805.7935
-834.74511
-864.58506
-895.24654
-926.63422
-958.62269
-991.05537
-1023.744
-1056.4689
-1088.9795
-1120.9962
-1152.2125
-1182.2976
-1210.9004
-1237.6539
-1262.1796
-1284.0936
-1303.0128
-1318.5613
-1330.3776
-1338.1215
-1341.4814
-1340.1807
-1333.9842
-1322.7036
-1306.2029
-1284.4028
-1257.2838
-1224.882
-1187.2919
-1144.6704
-1097.232
-1045.2427
-989.01554
-928.90523
-865.30145
-798.62166
-729.3037
-657.79823
-584.56145
-510.04815
-434.70532
-358.96645
-283.24661
-207.93839
-133.40868
-59.996344
11.989343
82.26948
150.59567
216.74957
280.54191
341.81118
400.42193
456.26293
509.2452
559.29989
606.37628
650.43976
691.47007
729.45959
764.41137
796.33774
825.26139
851.2225
874.27206
894.43425
911.68862
926.17036
938.45022
948.79667
954.79112
-0.0021657963
-5.8033242
-11.169466
-16.714846
-22.49177
-28.567272
-34.993862
-41.815848
-49.073095
-56.800896
-65.029293
-73.783147
-83.082192
-92.941022
-103.36919
-114.37122
-125.94675
-138.09061
-150.79308
-164.04004
-177.81331
-192.09095
-206.84769
-222.0554
-237.68364
-253.70031
-270.07235
-286.76659
-303.75058
-320.99358
-338.46753
-356.14816
-374.01592
-392.05706
-410.2646
-428.63911
-447.18956
-465.93368
-484.89846
-504.11999
-523.64336
-543.52196
-563.81654
-584.59395
-605.92537
-627.88429
-650.54414
-673.97551
-698.24336
-723.40407
-749.50143
-776.56311
-804.59814
-833.59398
-863.51365
-894.29328
-925.83993
-958.0299
-990.70753
-1023.6847
-1056.7407
-1089.6232
-1122.0497
-1153.7094
-1184.2665
-1213.364
-1240.6278
-1265.6719
-1288.1039
-1307.5316
-1323.5699
-1335.8479
-1344.0163
-1347.7548
-1346.7788
-1340.8458
-1329.7613
-1313.384
-1291.6308
-1264.4789
-1231.9655
-1194.1889
-1151.3094
-1103.5452
-1051.1684
-994.4993
-933.90079
-869.77129
-802.53742
-732.64623
-660.55741
-586.73581
-511.64428
-435.73706
-359.45403
-283.21569
-207.41906
-132.43442
-58.603087
13.764144
84.38768
153.01917
219.44094
283.46492
344.93121
403.70627
459.68099
512.76859
562.90247
610.03402
654.13064
695.17379
733.15712
768.08447
799.96886
828.83338
854.71413
877.64836
897.64708
914.72407
929.07684
941.04545
950.21794
954.60922
0.31610668
-5.2980938
-10.515231
-15.934766
-21.595465
-27.562492
-33.889959
-40.62478
-47.808114
-55.476308
-63.660232
-72.385295
-81.67151
-91.533489
-101.98055
-113.01671
-124.64086
-136.84686
-149.62377
-162.95604
-176.82386
-191.20348
-206.06765
-221.38614
-237.12629
-253.25369
-269.73296
-286.52858
-303.60579
-320.93163
-338.47593
-356.21247
-374.12
-392.18328
-410.39419
-428.75253
-447.26685
-465.95497
-484.84439
-503.9723
-523.3854
-543.13924
-563.29736
-583.92993
-605.11201
-626.92146
-649.4366
-672.73343
-696.88323
-721.94833
-747.9774
-775.0035
-803.04128
-832.08348
-862.09786
-893.02462
-924.77408
-957.22484
-990.22248
-1023.5789
-1057.0721
-1090.4471
-1123.4174
-1155.6666
-1186.852
-1216.6082
-1244.5518
-1270.2863
-1293.4079
-1313.5121
-1330.2012
-1343.0918
-1351.8224
-1356.0614
-1355.5132
-1349.9257
-1339.0963
-1322.8777
-1301.182
-1273.9835
-1241.3195
-1203.2914
-1160.0633
-1111.8599
-1058.9609
-1001.6965
-940.44046
-875.60294
-807.62277
-736.95935
-664.0845
-589.47462
-513.60329
-436.93447
-359.91654
-282.97718
-206.51921
-130.9174
-56.516201
16.371682
87.465868
156.51822
223.31211
287.66126
349.40807
408.42174
464.59617
517.84771
568.11289
615.34614
659.51764
700.61117
738.62208
773.55516
805.42372
834.24962
860.06249
882.88588
902.72247
919.60118
933.69304
945.11526
953.27818
956.86081
0.53555282
-4.910466
-9.9570756
-15.22348
-20.742228
-26.577303
-32.783675
-39.410008
-46.499085
-54.088436
-62.209742
-70.889039
-80.146701
-89.997419
-100.45032
-111.50898
-123.17157
-135.43098
-148.27505
-161.68678
-175.64467
-190.12307
-205.09265
-220.5209
-236.37278
-252.61136
-269.19869
-286.09665
-303.26786
-320.67684
-338.29099
-356.08186
-374.02613
-392.10686
-410.31449
-428.64783
-447.1149
-465.7335
-484.53168
-503.5478
-522.83039
-542.43753
-562.43595
-582.89975
-603.90858
-625.54545
-647.89462
-671.03917
-695.05787
-720.01863
-745.97668
-772.97253
-801.02752
-830.14066
-860.28561
-891.40761
-923.42102
-956.20738
-989.61384
-1023.4524
-1057.4996
-1091.4974
-1125.1542
-1158.1469
-1190.1245
-1220.7112
-1249.5121
-1276.1175
-1300.1096
-1321.0684
-1338.5805
-1352.2467
-1361.6903
-1366.5644
-1366.5598
-1361.4122
-1350.9088
-1334.8943
-1313.275
-1286.0221
-1253.173
-1214.8321
-1171.1691
-1122.4163
-1068.864
-1010.8545
-948.77533
-883.05158
-814.13762
-742.50849
-668.65138
-593.05731
-516.21346
-438.59604
-360.6641
-282.85436
-205.57694
-129.21217
-54.108351
19.419457
91.089981
160.65544
227.90064
292.64163
354.72383
414.02003
470.42803
523.86834
574.28171
621.62673
665.87753
707.02157
745.05732
779.99225
811.8418
840.62835
866.37814
889.10853
908.82384
925.56108
939.44256
950.43573
957.95175
961.11632
0.88325568
-4.3554295
-9.1948568
-14.274186
-19.621295
-25.299666
-31.365038
-37.867472
-44.851101
-52.35451
-60.410213
-69.04473
-78.278645
-88.126542
-98.597145
-109.69331
-121.41222
-133.74547
-146.67934
-160.195
-174.26888
-188.87301
-203.97557
-219.54132
-235.53238
-251.90884
-268.6297
-285.65371
-302.94044
-320.45137
-338.15101
-356.00818
-373.99712
-392.09875
-410.30179
-428.6038
-447.01207
-465.54434
-484.22927
-503.10656
-522.22691
-541.65139
-561.45058
-581.70337
-602.49483
-623.91434
-646.05377
-669.005
-692.85441
-717.6774
-743.53835
-770.4863
-798.5508
-827.73882
-858.03115
-889.37921
-921.70245
-954.88603
-988.77914
-1023.194
-1057.9055
-1092.6517
-1127.135
-1161.0244
-1193.9584
-1225.5491
-1255.3868
-1283.0465
-1308.0928
-1330.0873
-1348.5972
-1363.2042
-1373.5127
-1379.1577
-1379.8131
-1375.1996
-1365.0918
-1349.3244
-1327.7968
-1300.4764
-1267.4007
-1228.6774
-1184.483
-1135.0594
-1080.7097
-1021.7911
-958.70807
-891.90403
-821.85232
-749.04712
-673.9944
-597.20305
-519.17678
-440.40667
-361.36476
-282.49864
-204.22721
-126.93741
-50.982168
23.320779
95.689179
165.87578
233.66721
298.88238
361.3704
421.00833
477.69867
531.36679
581.95834
629.43669
673.78046
714.98111
753.04059
787.96919
819.78446
848.50917
874.16716
896.77337
916.33634
932.89533
946.5343
957.15415
964.23296
967.15602
1.1963384
-3.8277054
-8.4354247
-13.299853
-18.447687
-23.943159
-29.843153
-36.199229
-43.056961
-50.456119
-58.430168
-67.006213
-76.205113
-86.041383
-96.523351
-107.65315
-119.4269
-131.83484
-144.86157
-158.48628
-172.68314
-187.42167
-202.66727
-218.38172
-234.52396
-251.05077
-267.91769
-285.07999
-302.49371
-320.1169
-337.91071
-355.84082
-373.87861
-392.00247
-410.19904
-428.46433
-446.80473
-465.23773
-483.79258
-502.51043
-521.44437
-540.65879
-560.22867
-580.23835
-600.779
-621.94765
-643.84529
-666.57353
-690.22678
-714.89048
-740.63927
-767.53218
-795.6086
-824.88483
-855.35018
-886.96351
-919.65037
-953.30037
-987.76527
-1022.8578
-1058.3509
-1093.9785
-1129.436
-1164.3832
-1198.4464
-1231.2235
-1262.288
-1291.196
-1317.4919
-1340.7152
-1360.4102
-1376.1357
-1387.4735
-1394.0368
-1395.4795
-1391.5044
-1381.871
-1366.4019
-1344.9882
-1317.5929
-1284.2533
-1245.081
-1200.2606
-1150.0458
-1094.7546
-1034.7624
-970.49401
-902.41454
-831.02014
-756.82791
-680.36618
-602.16513
-522.7481
-442.6238
-362.27953
-282.17568
-202.74132
-124.37104
-47.42296
27.782259
100.96149
171.86842
240.2921
306.05513
369.01129
429.04299
486.05855
539.98943
590.78739
638.42178
682.87687
724.14929
762.24554
797.17978
828.97241
857.64729
883.22735
905.72706
925.15748
941.55413
954.97372
965.29714
972.07678
974.84947
1.6017159
-3.1725034
-7.5157567
-12.134836
-17.055454
-22.343323
-28.056849
-34.249257
-40.967568
-48.252651
-56.138926
-64.654007
-73.818908
-83.647925
-94.148813
-105.32277
-117.16464
-129.66303
-142.80057
-156.55419
-170.89548
-185.79107
-201.20321
-217.09031
-233.40772
-250.10842
-267.14407
-284.46595
-302.02609
-319.77857
-337.68072
-355.69457
-373.78815
-391.93689
-410.12498
-428.34655
-446.60683
-464.92296
-483.32475
-501.85491
-520.56917
-539.5357
-558.83453
-578.55607
-598.79872
-619.66853
-641.27724
-663.73664
-687.15123
-711.61847
-737.22484
-764.04105
-792.11808
-821.48324
-852.1359
-884.04375
-917.13961
-951.31843
-986.43517
-1022.3032
-1058.6938
-1095.3356
-1131.9166
-1168.0857
-1203.4554
-1237.6067
-1270.094
-1300.4515
-1328.1997
-1352.8528
-1373.928
-1390.957
-1403.4952
-1411.1304
-1413.493
-1410.2645
-1401.1865
-1386.0673
-1364.7883
-1337.3072
-1303.6609
-1263.9658
-1218.4157
-1167.2783
-1110.8894
-1049.6456
-983.99572
-914.43072
-841.4735
-765.66812
-687.5692
-607.73188
-526.70245
-445.01014
-363.16001
-281.62718
-200.85242
-121.239
-43.150855
33.088212
107.1943
178.92237
248.06455
314.44787
377.93165
438.40466
495.78206
550.00243
601.02468
648.82519
693.3949
734.73668
772.86265
807.79195
839.54902
868.16042
893.65063
916.03633
935.33158
951.56846
964.78886
974.87585
981.4423
984.11442
2.0128975
-2.4918552
-6.5411045
-10.884591
-15.548631
-20.601303
-26.103033
-32.109003
-38.667911
-45.821894
-53.606426
-62.049718
-71.172975
-80.990277
-91.508766
-102.72863
-114.64332
-127.23967
-140.49817
-154.39324
-168.89363
-183.96281
-199.55955
-215.63853
-232.15107
-249.04598
-266.27052
-283.77152
-301.49649
-319.39502
-337.42006
-355.52948
-373.68745
-391.86594
-410.04625
-428.22024
-446.39169
-464.57716
-482.80694
-501.12533
-519.59091
-538.27593
-557.2661
-576.65845
-596.55971
-617.08626
-638.36165
-660.50893
-683.64488
-707.88037
-733.31538
-760.03419
-788.10129
-817.55672
-848.4116
-880.644
-914.19531
-948.96697
-984.81787
-1021.5626
-1058.9703
-1096.7647
-1134.6249
-1172.1878
-1209.0501
-1244.774
-1278.8917
-1310.9124
-1340.3293
-1366.627
-1389.292
-1407.8242
-1421.748
-1430.6222
-1434.0494
-1431.6866
-1423.2543
-1408.5444
-1387.4265
-1359.8521
-1325.8578
-1285.5652
-1239.1789
-1186.9829
-1129.3337
-1066.653
-999.41726
-928.14771
-853.39842
-775.74478
-695.77194
-614.06385
-531.19331
-447.71309
-364.14851
-280.9914
-198.69566
-117.67418
-38.297147
39.108424
114.25817
186.90897
256.85682
323.9342
388.00714
448.9719
506.75175
561.29359
612.56467
660.54949
705.24674
746.66644
784.82725
819.75409
851.47619
880.02378
905.42433
927.69799
946.862
962.94724
975.99054
985.88692
992.29478
994.89527
2.4985123
-1.7025165
-5.4237096
-9.4599021
-13.837946
-18.628835
-23.895452
-29.695209
-36.078659
-43.089191
-50.763378
-59.129988
-68.210333
-78.018164
-88.55987
-99.834457
-111.83378
-124.54267
-137.93922
-151.99506
-166.6758
-181.94139
-197.74677
-214.04245
-230.77532
-247.88951
-265.32743
-283.03089
-300.94235
-319.00632
-337.17081
-355.38894
-373.62046
-391.83336
-410.00553
-428.12618
-446.19725
-464.23452
-482.26861
-500.34547
-518.52673
-536.88908
-555.5245
-574.53733
-594.0438
-614.17212
-635.05899
-656.84017
-679.64638
-703.60377
-728.82785
-755.41851
-783.45568
-812.9941
-844.05849
-876.63902
-910.68712
-946.11187
-982.77702
-1020.4988
-1059.0445
-1098.1322
-1137.4316
-1176.566
-1215.1145
-1252.6181
-1288.5839
-1322.4926
-1353.8063
-1381.976
-1406.4533
-1426.7011
-1442.208
-1452.4994
-1457.146
-1455.7764
-1448.0868
-1433.8497
-1412.9212
-1385.2455
-1350.8586
-1309.888
-1262.551
-1209.1501
-1150.0663
-1085.7496
-1016.7093
-943.50125
-866.71558
-786.96386
-704.86638
-621.04018
-536.08836
-450.59049
-365.09479
-280.11189
-196.11028
-113.51338
-32.69804
46.005566
122.31303
195.98386
266.81887
334.65718
399.37272
460.87063
519.08363
573.9683
625.5016
673.67746
718.50357
759.99838
798.18826
833.10504
864.7839
893.26004
918.56531
940.72433
959.75803
975.69837
988.58298
998.32158
1004.6057
1007.1521
3.0143158
-0.85531373
-4.2141729
-7.9096757
-11.970024
-16.469761
-21.474714
-27.044843
-33.232838
-40.083491
-47.634595
-55.915521
-64.9477
-74.744527
-85.311554
-96.646494
-108.73946
-121.57307
-135.12282
-149.3573
-164.23864
-179.72297
-195.76101
-212.29868
-229.278
-246.63793
-264.31549
-282.24691
-300.369
-318.62059
-336.94411
-355.28731
-373.60485
-391.86018
-410.0272
-428.09194
-446.05411
-463.92835
-481.74545
-499.55294
-517.41556
-535.41487
-553.64955
-572.23186
-591.28884
-610.96229
-631.4028
-652.76007
-675.18124
-698.8096
-723.77822
-750.20482
-778.18696
-807.79626
-839.07313
-872.02171
-906.60521
-942.74179
-980.3011
-1019.1017
-1058.9092
-1099.436
-1140.3414
-1181.2335
-1221.6724
-1261.1747
-1299.2201
-1335.2568
-1368.7115
-1398.9976
-1425.5266
-1447.7199
-1465.0244
-1476.9266
-1482.9617
-1482.7252
-1475.8852
-1462.1921
-1441.4859
-1413.7026
-1378.8771
-1337.1438
-1288.7344
-1233.9729
-1173.268
-1107.103
-1036.0243
-960.628
-881.54561
-799.43017
-714.9421
-628.73621
-541.4499
-453.69301
-366.03945
-279.0207
-193.12129
-108.77594
-26.368433
53.768113
131.34986
206.13987
277.94494
346.61212
412.02467
474.09807
532.7759
588.02589
639.83604
688.21102
733.16873
774.73719
812.9516
847.85171
879.47975
907.87704
933.08108
955.12186
974.02496
989.82551
1002.5653
1012.1688
1018.3515
1020.8545
3.5983258
0.096370549
-2.8625411
-6.1823203
-9.8924746
-14.071551
-18.788786
-24.106946
-30.081114
-36.75757
-44.175383
-52.364477
-61.346351
-71.133942
-81.731843
-93.13631
-105.33551
-118.30967
-132.03139
-146.46593
-161.57167
-177.30053
-193.5986
-210.40683
-227.66187
-245.29699
-263.24325
-281.43074
-299.78995
-318.25339
-336.75723
-355.24313
-373.66003
-391.96611
-410.1307
-428.13606
-445.97917
-463.6732
-481.24882
-498.75509
-516.25993
-533.85016
-551.63155
-569.72513
-588.27013
-607.42337
-627.35021
-648.21634
-670.18756
-693.4263
-718.08542
-744.30282
-772.19608
-801.85609
-833.3412
-866.67167
-901.8244
-938.72822
-977.25993
-1017.2412
-1058.4366
-1100.5522
-1143.2363
-1186.0809
-1228.6243
-1270.3569
-1310.727
-1349.1473
-1385.0042
-1417.6683
-1446.5065
-1470.8938
-1490.2285
-1503.9524
-1511.56
-1512.6096
-1506.7368
-1493.6664
-1473.2202
-1445.3242
-1410.0121
-1367.4259
-1317.8137
-1261.5242
-1198.9979
-1130.7562
-1057.3883
-979.53604
-897.87862
-813.11635
-725.95534
-637.0932
-547.2061
-456.9378
-366.89081
-277.61962
-189.62616
-103.35718
-19.203485
62.499288
141.46871
217.47253
290.32497
359.88252
426.03946
488.72325
547.89003
603.52027
655.61455
704.18973
749.2753
790.91011
829.13932
864.01174
895.57766
923.88564
948.97979
970.89629
989.66618
1005.3294
1017.9336
1027.4165
1033.5118
1035.9781
4.2285178
1.1284171
-1.3912501
-4.2979474
-7.6229708
-11.449401
-15.850363
-20.891706
-26.631196
-33.116949
-40.389202
-48.478476
-57.406336
-67.185208
-77.818625
-89.301242
-101.61911
-114.74984
-128.6629
-143.31995
-158.67526
-174.67621
-191.26386
-208.37371
-225.93655
-243.87941
-262.12682
-280.60206
-299.22864
-317.93204
-336.64138
-355.29152
-373.82488
-392.19363
-410.36178
-428.30718
-446.0235
-463.52193
-480.83268
-498.00618
-515.11347
-532.24703
-549.52001
-567.06315
-585.02901
-603.59051
-622.9297
-643.23032
-664.67858
-687.45842
-711.74495
-737.69894
-765.46064
-795.14285
-826.82446
-860.54426
-896.29497
-934.01798
-973.59875
-1014.8632
-1057.5749
-1101.4341
-1146.0774
-1191.0787
-1235.9534
-1280.1622
-1323.1189
-1364.1964
-1402.7362
-1438.061
-1469.487
-1496.3374
-1517.9565
-1533.7323
-1543.1143
-1545.618
-1540.8424
-1528.4824
-1508.3391
-1480.3266
-1444.477
-1400.941
-1349.9853
-1291.9865
-1227.4216
-1156.8558
-1080.927
-1000.3297
-915.79709
-828.08348
-737.94685
-646.1331
-553.36198
-460.31512
-367.62668
-275.87631
-185.58468
-97.211128
-11.153393
72.251019
152.72216
230.0339
304.0095
374.51668
441.46256
504.78844
564.46483
620.48665
672.86871
721.64157
766.84774
808.53817
846.76922
881.59986
913.08952
941.29501
966.26798
988.05155
1006.6831
1022.2083
1034.6815
1044.0524
1050.0684
1052.502
4.9276284
2.2695731
0.23166613
-2.2224093
-5.1257444
-8.5664396
-12.621914
-17.361428
-22.84573
-29.124982
-36.240443
-44.223279
-53.095061
-62.867598
-73.543228
-85.11484
-97.566177
-110.87198
-124.99837
-139.90308
-155.53596
-171.83945
-188.74919
-206.19475
-224.10053
-242.38678
-260.97085
-279.76854
-298.69566
-317.66986
-336.61245
-355.45062
-374.11944
-392.56423
-410.74288
-428.62808
-446.20952
-463.4958
-480.51633
-497.32259
-513.98873
-530.61313
-547.3167
-564.2408
-581.55251
-599.44221
-618.11076
-637.76153
-658.60346
-680.84439
-704.68445
-730.31022
-757.88748
-787.55382
-819.41154
-853.52064
-889.89213
-928.4821
-969.18639
-1011.8363
-1056.1956
-1101.9583
-1148.7487
-1196.1218
-1243.5673
-1290.5142
-1336.3373
-1380.3658
-1421.8913
-1460.1824
-1494.4987
-1524.105
-1548.2865
-1566.3689
-1577.747
-1581.8909
-1578.3569
-1566.8061
-1547.0151
-1518.8847
-1482.4446
-1437.8551
-1385.4039
-1325.4997
-1258.6612
-1185.503
-1106.7193
-1023.0643
-935.33298
-844.34084
-750.90456
-655.82451
-559.8692
-463.76238
-368.17305
-273.70819
-180.90843
-90.246084
-2.1254785
83.114947
165.19913
243.90878
319.07815
390.58828
458.36123
522.35422
582.55415
638.97228
691.63942
740.60147
785.9154
827.64567
865.861
900.63165
932.02721
960.11368
984.95106
1006.5901
1025.0752
1040.4587
1052.8013
1062.0639
1068.0047
1070.4075
5.6853282
3.5098309
1.9987136
0.03951116
-2.4029875
-5.4224623
-9.1010489
-13.511776
-18.718674
-24.774132
-31.720468
-39.58946
-48.402635
-58.171104
-68.895875
-80.567914
-93.168459
-106.66918
-121.03253
-136.21207
-152.15289
-168.79209
-186.05946
-203.87815
-222.16566
-240.83484
-259.79519
-278.95432
-298.21955
-317.49987
-336.7079
-355.76224
-374.58965
-393.12769
-411.32721
-429.15483
-446.59547
-463.65449
-480.35988
-496.76389
-512.94356
-529.00334
-545.07218
-561.30298
-577.87861
-595.00841
-612.91389
-631.82
-651.96086
-673.57103
-696.87868
-722.09922
-749.42722
-779.02837
-811.03156
-845.52102
-882.52888
-922.02835
-963.92771
-1008.0653
-1054.2055
-1102.0369
-1151.1708
-1201.142
-1251.4126
-1301.3767
-1350.3662
-1397.662
-1442.5004
-1484.0895
-1521.6255
-1554.3076
-1581.3546
-1602.0236
-1615.6439
-1621.6337
-1619.5019
-1608.8707
-1589.4887
-1561.2406
-1524.1535
-1478.3981
-1424.2861
-1362.2624
-1292.893
-1216.8496
-1134.8899
-1047.8367
-956.55516
-861.93012
-764.84467
-666.16038
-566.70024
-467.23465
-368.47077
-271.04511
-175.51934
-82.37891
7.9659088
95.17701
178.98396
259.17842
335.60788
408.16912
476.80148
541.48047
602.21155
659.02443
711.96779
761.10462
806.50791
848.257
886.43425
921.1223
952.40193
980.34919
1005.0332
1026.513
1044.8404
1060.0749
1072.2839
1081.438
1087.3045
1089.6772
6.5167223
4.8692786
3.9334684
2.5141522
0.57392983
-1.987005
-5.2559343
-9.3100195
-14.21686
-20.031283
-26.796597
-34.545117
-43.298261
-53.066325
-63.848822
-75.634618
-88.402233
-102.12002
-116.74655
-132.23084
-148.51291
-165.52414
-183.18801
-201.42078
-220.13246
-239.22788
-258.60801
-278.17149
-297.81633
-317.44196
-336.95134
-356.25347
-375.26581
-393.91707
-412.15003
-429.92428
-447.21902
-464.03559
-480.3999
-496.36446
-512.00899
-527.44408
-542.80687
-558.26277
-574.01195
-590.28451
-607.32372
-625.37868
-644.71133
-665.58594
-688.26189
-712.9869
-739.98791
-769.46228
-801.56907
-836.42015
-874.07192
-914.51754
-957.68008
-1003.4067
-1051.4638
-1101.5349
-1153.2177
-1206.0259
-1259.3916
-1312.671
-1365.1499
-1416.0544
-1464.5603
-1509.8087
-1550.9243
-1587.0327
-1617.2785
-1640.8439
-1656.9807
-1665.0449
-1664.495
-1654.9081
-1636.0004
-1607.6382
-1569.8446
-1522.8021
-1466.8492
-1402.472
-1330.2906
-1251.0415
-1165.5553
-1074.7326
-979.51839
-880.87637
-779.7645
-677.11306
-573.80577
-470.66453
-368.43812
-267.79469
-169.31789
-73.506165
19.225292
108.54039
194.1765
275.93772
353.6875
427.34104
496.85773
562.23392
623.49608
680.69459
733.89809
783.18843
828.65629
870.39731
908.50874
943.08673
974.22416
1002.008
1026.5172
1047.8195
1065.9749
1081.05
1093.1187
1102.1609
1107.9516
1110.2937
7.4180683
6.3460136
6.0372314
5.2059643
3.8123519
1.7498417
-1.0744363
-4.7421683
-9.3247872
-14.879838
-21.45154
-29.072651
-37.764431
-47.536202
-58.385804
-70.299831
-83.253882
-97.212762
-112.13086
-127.9524
-144.61195
-162.03478
-180.13764
-198.82935
-218.01188
-237.58138
-257.42954
-277.44525
-297.51628
-317.53155
-337.3833
-356.96987
-376.19822
-394.98709
-413.27
-430.99835
-448.14458
-464.705
-480.70266
-496.18969
-511.24815
-525.99464
-540.57443
-555.1666
-569.99085
-585.29895
-601.35666
-618.44083
-636.84401
-656.86335
-678.79297
-702.9167
-729.49781
-758.76937
-790.92458
-826.10681
-864.4003
-905.82141
-950.3107
-997.72633
-1047.8382
-1100.3255
-1154.7721
-1210.6697
-1267.4179
-1324.3319
-1380.6468
-1435.5293
-1488.0876
-1537.3891
-1582.4781
-1622.3979
-1656.2093
-1683.0119
-1701.9705
-1712.3654
-1713.5985
-1705.1966
-1686.8383
-1658.3683
-1619.805
-1571.3434
-1513.3522
-1446.3643
-1371.0616
-1288.2542
-1198.8561
-1103.8567
-1004.2917
-901.21431
-795.66686
-688.65673
-581.1352
-473.98087
-367.98773
-263.85761
-162.19681
-63.516232
31.765428
123.31627
210.88416
294.2886
373.41213
448.19152
518.60925
584.68539
646.47013
704.03693
757.47657
806.89172
852.39241
894.09206
932.10412
966.53928
997.50349
1025.0954
1049.4043
1070.5075
1088.473
1103.3752
1115.2938
1124.2179
1129.9293
1132.2395
8.4004778
7.9558349
8.3297232
8.1380033
7.3382166
5.8164074
3.4736631
0.22334239
-4.0100597
-9.287098
-15.65278
-23.14018
-31.770242
-41.551129
-52.478843
-64.537505
-77.69957
-91.926055
-107.16691
-123.36125
-140.43784
-158.31548
-176.90369
-196.10337
-215.80784
-235.90388
-256.27317
-276.79393
-297.34281
-317.79712
-338.0373
-357.94979
-377.42982
-396.38482
-414.73777
-432.43058
-449.4277
-465.71929
-481.32457
-496.29444
-510.71299
-524.70239
-538.41613
-552.04823
-565.84001
-580.06448
-595.01226
-610.99183
-628.32899
-647.35719
-668.40918
-691.80907
-717.86081
-746.83768
-778.97146
-814.44133
-853.36345
-895.78103
-941.65533
-990.85805
-1043.1644
-1098.2503
-1155.6859
-1214.9398
-1275.3772
-1336.2679
-1396.793
-1456.0534
-1513.0834
-1566.8682
-1616.3631
-1660.5185
-1698.3014
-1728.7182
-1750.8396
-1763.8528
-1767.0946
-1760.0368
-1742.315
-1713.7478
-1674.3476
-1624.3232
-1564.0771
-1494.1954
-1415.43
-1328.6757
-1234.9412
-1135.3173
-1030.9434
-922.97368
-812.54599
-700.75405
-588.62417
-477.09722
-367.01606
-259.11811
-154.03262
-52.282001
45.713558
139.6291
229.22624
314.34342
394.8859
470.81562
542.14158
608.91079
671.20005
729.10859
782.7516
832.25463
877.74883
919.36688
957.23967
991.49354
1022.2484
1049.6153
1073.6944
1094.5729
1112.3275
1127.0399
1138.796
1147.5932
1153.2199
1155.4962
9.46423
9.7020111
10.818113
11.321127
11.165718
10.229781
8.4078749
5.6079238
1.7501593
-3.2292506
-9.3760054
-16.723404
-25.291809
-35.088034
-46.106041
-58.327276
-71.720831
-86.243698
-101.84112
-118.44682
-135.98342
-154.36283
-173.48692
-193.24814
-213.53051
-234.21078
-255.1598
-276.24424
-297.32857
-318.27743
-338.95819
-359.2441
-379.01725
-398.17232
-416.62027
-434.29206
-451.14271
-467.15491
-482.34291
-496.75534
-510.47778
-523.63744
-536.39623
-548.96389
-561.60377
-574.61253
-588.30883
-603.03444
-619.15204
-637.03498
-657.05907
-679.59327
-704.98712
-733.55908
-765.58452
-801.28329
-840.80803
-884.23298
-931.54381
-982.62868
-1037.2705
-1095.1429
-1155.8032
-1218.6959
-1283.1494
-1348.3837
-1413.5225
-1477.5948
-1539.5532
-1598.292
-1652.6678
-1701.5266
-1743.7298
-1778.1791
-1803.8431
-1819.8002
-1825.3048
-1819.7719
-1802.7866
-1774.1377
-1733.8291
-1682.0847
-1619.345
-1546.2562
-1463.6502
-1372.5183
-1273.9778
-1169.2354
-1059.5483
-946.18558
-830.39282
-713.36045
-596.19803
-479.91461
-365.40565
-253.44577
-144.68711
-39.662026
61.210467
157.6158
249.33325
336.22441
418.22145
495.31558
567.54616
634.99071
697.75583
755.96934
809.77333
859.31837
904.75849
946.24719
983.93405
1017.9621
1048.466
1075.5699
1099.3855
1120.01
1137.529
1152.0318
1163.6101
1172.2696
1177.8048
1180.0444
10.618246
11.598205
13.520532
14.777424
15.320418
15.018439
13.759003
11.443986
7.9893209
3.3277919
-2.5871731
-9.7889854
-18.296851
-28.116041
-39.238265
-51.642084
-65.293005
-80.14376
-96.134639
-113.19366
-131.23699
-150.16928
-169.88426
-190.2654
-211.18686
-232.51458
-254.10776
-275.82059
-297.50429
-319.00959
-340.1895
-360.90264
-381.01643
-400.41121
-418.98423
-436.65387
-453.36408
-469.08856
-483.8352
-497.64911
-510.61664
-522.8694
-534.57762
-545.96735
-557.32499
-568.97357
-581.26157
-594.56698
-609.29258
-625.85599
-644.68101
-666.18647
-690.77284
-718.80936
-750.62054
-786.47233
-826.55904
-870.99075
-919.78168
-972.83993
-1029.9591
-1090.8117
-1154.9434
-1221.7734
-1290.5916
-1360.5647
-1430.7535
-1500.1091
-1567.4945
-1631.7033
-1691.4833
-1745.5629
-1792.6851
-1831.6332
-1861.2604
-1880.5273
-1888.5849
-1884.7825
-1868.6498
-1839.9404
-1798.6476
-1745.011
-1679.5138
-1602.8704
-1516.004
-1420.0161
-1316.1486
-1205.7407
-1090.1839
-970.87814
-849.19043
-726.41956
-603.76733
-482.31729
-363.0211
-246.69198
-134.00423
-25.497908
78.412622
177.42744
271.34822
360.06461
443.54054
521.80113
594.92046
663.0104
726.2109
784.68136
838.59342
888.12483
933.4544
974.75794
1012.205
1045.9562
1076.1618
1102.9597
1126.4735
1146.8107
1164.0661
1178.3365
1189.7192
1198.2278
1203.6633
1205.863
11.865291
13.651121
16.448325
18.522579
19.821899
20.205318
19.552675
17.759224
14.736611
10.41429
4.7440472
-2.3070181
-10.756189
-20.60709
-31.848948
-44.457235
-58.393652
-73.606435
-90.030679
-107.58843
-126.18908
-145.72963
-166.09526
-187.15992
-208.78725
-230.83169
-253.13992
-275.55264
-297.90667
-320.03759
-341.78262
-362.98416
-383.49331
-403.17426
-421.90872
-439.60059
-456.1809
-471.61258
-485.89551
-499.06983
-511.22165
-522.4861
-533.04138
-543.1304
-553.06383
-563.19331
-573.89931
-585.59901
-598.7393
-613.78676
-631.21821
-651.50797
-675.11345
-702.46084
-733.93003
-769.83922
-810.43022
-855.85432
-906.15917
-961.27676
-1021.0148
-1085.0465
-1152.9075
-1223.9904
-1297.5447
-1372.6817
-1448.3925
-1523.5442
-1596.9014
-1667.1472
-1732.9079
-1792.7815
-1845.3768
-1889.3437
-1923.4056
-1946.3954
-1957.3364
-1955.4969
-1940.3512
-1911.6096
-1869.2518
-1813.534
-1744.987
-1664.4022
-1572.8073
-1471.4302
-1361.6556
-1244.9744
-1122.9321
-997.07702
-868.9137
-739.86222
-611.22645
-484.17103
-359.70743
-238.68825
-121.80857
-9.612964
97.493277
199.23012
295.42731
386.00825
470.97425
550.3896
624.36786
693.05963
756.6419
815.30894
869.26465
918.71626
963.86923
1004.9232
1042.0688
1075.4854
1105.3395
1131.7831
1154.9522
1174.9649
1191.9251
1205.9373
1217.1039
1225.4468
1230.773
1232.9291
13.212898
15.873339
19.619227
22.579034
24.696761