/*--------------------------------*- C++ -*----------------------------------*\
| =========                 |                                                 |
| \\      /  F ield         | foam-extend: Open Source CFD                    |
|  \\    /   O peration     | Version:     4.1                                |
|   \\  /    A nd           | Web:         http://www.foam-extend.org         |
|    \\/     M anipulation  |                                                 |
\*---------------------------------------------------------------------------*/
FoamFile
{
    version     2.0;
    format      ascii;
    class       surfaceScalarField;
    location    "0.65";
    object      phi;
}
// * * * * * * * * * * * * * * * * * * * * * * * * * * * * * * * * * * * * * //

dimensions      [0 3 -1 0 0 0 0];

internalField   nonuniform List<scalar> 
32976
(
-0.22309111
2.6896469e-05
-0.223164
7.2891646e-05
-0.22325963
9.5626817e-05
-0.22337617
0.00011654329
-0.22351482
0.00013864554
-0.22367744
0.00016261975
-0.22386596
0.00018852812
-0.22408221
0.00021624886
-0.22432775
0.00024554073
-0.22460388
0.00027612588
-0.22491157
0.00030769129
-0.22525148
0.00033990468
-0.22562388
0.00037240881
-0.22602873
0.00040484311
-0.22646556
0.00043682746
-0.22693355
0.00046799154
-0.2274315
0.00049795341
-0.22795785
0.00052635341
-0.22851068
0.00055282871
-0.22908773
0.00057705123
-0.22968643
0.00059869833
-0.23030393
0.00061749404
-0.2309371
0.00063317604
-0.23158264
0.00064553929
-0.23223704
0.00065439966
-0.23289668
0.00065963886
-0.23355784
0.00066116513
-0.2342168
0.00065895845
-0.23486983
0.00065302882
-0.23551329
0.00064346063
-0.23614366
0.00063036926
-0.2367576
0.00061394071
-0.23735201
0.00059440367
-0.23792403
0.00057202685
-0.23847117
0.00054714127
-0.23899127
0.00052009931
-0.23948258
0.00049130756
-0.23994377
0.00046118505
-0.24037396
0.00043019125
-0.24077274
0.00039878648
-0.2411402
0.00036745476
-0.24147687
0.00033666767
-0.24178376
0.00030689903
-0.24206237
0.0002786005
-0.24231457
0.00025219974
-0.24254265
0.00022808944
-0.24274927
0.00020661964
-0.24293736
0.00018809017
-0.24311011
0.00017274223
-0.24327086
0.00016075115
-0.24342308
0.00015222143
-0.24357026
0.00014718291
-0.24371585
0.00014558649
-0.24386315
0.00014730586
-0.24401529
0.00015213596
-0.24417509
0.00015979749
-0.24434503
0.00016994183
-0.24452719
0.0001821577
-0.24472317
0.00019597852
-0.24493406
0.00021089343
-0.24516042
0.00022635828
-0.24540222
0.00024180717
-0.24565889
0.00025666585
-0.24592926
0.00027036486
-0.24621161
0.00028235321
-0.24650372
0.00029211124
-0.24680288
0.00029916321
-0.24710597
0.00030308716
-0.2474095
0.0003035258
-0.24770969
0.00030019493
-0.24800258
0.00029289015
-0.24828407
0.00028149147
-0.24855004
0.00026597173
-0.24879644
0.00024639736
-0.24901938
0.00022293346
-0.24921522
0.0001958435
-0.24938068
0.00016546333
-0.24951286
0.00013217999
-0.2496093
9.6442716e-05
-0.24966809
5.8789183e-05
-0.24968761
1.9519918e-05
-0.24966661
-2.100621e-05
-0.24960463
-6.197732e-05
-0.24950202
-0.00010260835
-0.24935974
-0.00014228034
-0.24917931
-0.00018043537
-0.24896274
-0.00021656626
-0.24871252
-0.00025022144
-0.24843151
-0.00028101109
-0.2481229
-0.00030861162
-0.24779013
-0.00033276861
-0.24743683
-0.00035329601
-0.24706676
-0.00037007566
-0.2466837
-0.00038305321
-0.24629147
-0.00039223331
-0.2458938
-0.00039767362
-0.24549432
-0.00039947785
-0.24509653
-0.00039778923
-0.24470375
-0.00039278156
-0.24431909
-0.00038465359
-0.24394547
-0.00037362126
-0.24358556
-0.00035991157
-0.2432418
-0.00034375673
-0.24291641
-0.00032538989
-0.24261137
-0.00030503963
-0.24232845
-0.00028292807
-0.24206918
-0.00025926753
-0.24183492
-0.0002342589
-0.24162683
-0.00020809055
-0.24144589
-0.00018093835
-0.24129293
-0.00015296496
-0.2411686
-0.00012432271
-0.24107345
-9.5154203e-05
-0.24100785
-6.5596019e-05
-0.24097207
-3.5787499e-05
-0.24096617
-5.8943089e-06
-0.24099003
2.3862236e-05
-0.24104337
5.3336723e-05
-0.24112564
8.2268078e-05
-0.24123537
0.00010972955
-0.24136973
0.0001343646
-0.24152793
0.00015819475
-0.24171665
0.00018872773
0.00021879561
-0.25493641
-8.14197e-05
-0.25481174
-5.1787122e-05
-0.25469739
-1.8719623e-05
-0.25459833
1.7482592e-05
-0.25451715
5.7463743e-05
-0.25445608
0.00010154933
-0.25441712
0.00014956897
-0.254402
0.00020113228
-0.25441227
0.00025581005
-0.25444923
0.00031308814
-0.25451393
0.00037238391
-0.25460711
0.00043308646
-0.25472922
0.00049452423
-0.25488039
0.00055601313
-0.2550604
0.00061683289
-0.25526868
0.00067626984
-0.25550431
0.00073359053
-0.25576605
0.00078809217
-0.25605229
0.000839069
-0.25636111
0.00088587064
-0.25669027
0.00092786097
-0.25703726
0.00096448303
-0.2573993
0.00099521078
-0.25777338
0.0010196188
-0.2581563
0.0010373277
-0.25854474
0.0010480765
-0.25893524
0.0010516622
-0.25932429
0.0010480132
-0.25970839
0.0010371243
-0.26008406
0.0010191281
-0.26044791
0.00099422679
-0.26079673
0.00096275604
-0.26112747
0.00092513953
-0.26143732
0.00088188621
-0.26172381
0.00083362316
-0.26198474
0.00078103118
-0.26221832
0.00072489361
-0.26242317
0.00066603052
-0.26259832
0.00060533783
-0.26274326
0.00054372555
-0.26285795
0.00048214664
-0.26294282
0.00042154123
-0.26299877
0.00036285177
-0.26302716
0.00030698368
-0.26302975
0.00025479695
-0.26300875
0.00020708498
-0.26296669
0.00016455921
-0.26290643
0.00012783258
-0.26283109
9.7403416e-05
-0.26274398
7.3639109e-05
-0.26264853
5.6765873e-05
-0.2625482
4.6861284e-05
-0.26244646
4.3843619e-05
-0.26234663
4.747505e-05
-0.26225185
5.7357546e-05
-0.262165
7.2941832e-05
-0.26208859
9.3536175e-05
-0.26202475
0.00011831881
-0.26197513
0.00014635269
-0.26194084
0.00017660703
-0.26192246
0.00020798019
-0.26191998
0.00023932223
-0.26193277
0.00026946282
-0.26195965
0.00029723776
-0.26199881
0.00032151717
-0.26204793
0.00034123358
-0.26210418
0.00035540832
-0.26216426
0.00036317464
-0.26222454
0.00036380059
-0.26228105
0.00035670739
-0.26232965
0.00034148498
-0.26236606
0.0003179031
-0.26238601
0.00028592207
-0.2623853
0.00024569319
-0.26235992
0.00019755312
-0.2623061
0.00014201403
-0.26222038
7.9747556e-05
-0.26209978
1.1578234e-05
-0.2619418
-6.1537552e-05
-0.26174443
-0.00013857966
-0.26150653
-0.00021838332
-0.26122781
-0.00029972059
-0.26090834
-0.00038144574
-0.26054854
-0.00046240791
-0.26014936
-0.00054146269
-0.25971226
-0.00061753344
-0.2592392
-0.00068963314
-0.25873254
-0.00075688106
-0.25819503
-0.00081851586
-0.25762974
-0.00087390455
-0.25703996
-0.00092254903
-0.25642917
-0.00096408334
-0.25580097
-0.00099827398
-0.25515901
-0.0010250116
-0.25450695
-0.0010443016
-0.25384837
-0.0010562531
-0.25318678
-0.0010610646
-0.25252556
-0.0010590124
-0.25186791
-0.0010504319
-0.25121685
-0.0010357076
-0.25057522
-0.0010152578
-0.2499456
-0.00098952231
-0.24933041
-0.00095895106
-0.2487318
-0.00092399638
-0.24815174
-0.00088510082
-0.24759198
-0.00084269463
-0.24705405
-0.00079718863
-0.24653934
-0.00074897103
-0.24604903
-0.000698405
-0.24558414
-0.00064582933
-0.24514555
-0.00059155602
-0.24473399
-0.00053587532
-0.24435009
-0.00047905749
-0.24399433
-0.00042136086
-0.24366707
-0.00036304564
-0.24336858
-0.00030438174
-0.2430991
-0.00024562072
-0.24285867
-0.00018709132
-0.24264695
-0.00012945482
-0.24246315
-7.4069003e-05
-0.24230668
-2.2099977e-05
-0.24217843
2.994004e-05
-0.24206902
7.931673e-05
8.5229229e-05
-0.25754048
-0.00017366608
-0.2574592
-0.00013306321
-0.25739247
-8.5450023e-05
-0.25734303
-3.1958404e-05
-0.25731263
2.7059832e-05
-0.25730247
9.1386135e-05
-0.25731356
0.00016066828
-0.25734683
0.00023439327
-0.25740291
0.0003118946
-0.25748226
0.00039243392
-0.25758507
0.00047519518
-0.25771129
0.00055931196
-0.25786063
0.00064386237
-0.25803252
0.00072790643
-0.25822615
0.00081046406
-0.25844045
0.00089056883
-0.2586741
0.00096723343
-0.25892552
0.0010395156
-0.25919292
0.0011064736
-0.2594743
0.0011672426
-0.25976742
0.001220981
-0.26006989
0.0012669555
-0.26037916
0.001304478
-0.26069254
0.001332998
-0.26100724
0.0013520309
-0.26132042
0.0013612535
-0.26162918
0.0013604262
-0.26193065
0.0013494883
-0.262222
0.0013284747
-0.26250049
0.0012976085
-0.26276347
0.0012572141
-0.26300851
0.0012077982
-0.26323337
0.0011499916
-0.26343603
0.0010845468
-0.26361478
0.0010123768
-0.26376822
0.00093447431
-0.2638953
0.00085197022
-0.26399532
0.00076605107
-0.26406799
0.00067800297
-0.2641134
0.00058913546
-0.26413206
0.00050081019
-0.26412489
0.00041437321
-0.26409321
0.00033116564
-0.2640387
0.00025247471
-0.26396342
0.00017951758
-0.26386974
0.00011341136
-0.26376034
5.5152289e-05
-0.26363809
5.59099e-06
-0.2635061
-3.4589918e-05
-0.26336757
-6.4896163e-05
-0.26322576
-8.5042686e-05
-0.26308393
-9.4962945e-05
-0.26294527
-9.4823012e-05
-0.26281277
-8.5017653e-05
-0.26268925
-6.616894e-05
-0.26257718
-3.9121024e-05
-0.26247872
-4.9242649e-06
-0.26239559
3.5183135e-05
-0.26232903
7.9798804e-05
-0.26227981
0.00012738617
-0.26224814
0.00017630526
-0.26223367
0.00022484879
-0.26223548
0.00027128123
-0.26225213
0.00031387966
-0.26228158
0.00035097621
-0.26232135
0.0003809984
-0.26236845
0.00040250682
-0.2624195
0.00041423037
-0.2624708
0.00041509969
-0.26251837
0.00040427372
-0.26255804
0.00038115839
-0.26258557
0.00034543533
-0.26259672
0.00029706778
-0.26258733
0.00023630253
-0.26255344
0.00016366035
-0.26249134
7.9920535e-05
-0.26239771
-1.3887705e-05
-0.26226962
-0.00011651505
-0.26210462
-0.00022653208
-0.26190083
-0.00034236591
-0.26165691
-0.00046230837
-0.26137205
-0.00058458354
-0.26104607
-0.0007074252
-0.26067939
-0.00082908374
-0.260273
-0.0009478578
-0.25982839
-0.0010621425
-0.25934756
-0.0011704642
-0.25883293
-0.0012715075
-0.25828731
-0.0013641356
-0.25771381
-0.0014474039
-0.25711579
-0.0015205703
-0.25649678
-0.00158309
-0.25586044
-0.0016346169
-0.25521046
-0.0016749902
-0.25455054
-0.0017042211
-0.25388432
-0.0017224753
-0.25321533
-0.001730052
-0.25254698
-0.0017273664
-0.25188249
-0.0017149215
-0.2512249
-0.0016932932
-0.25057705
-0.0016631072
-0.24994155
-0.001625021
-0.2493208
-0.0015797064
-0.24871696
-0.0015278384
-0.24813198
-0.0014700766
-0.24756761
-0.0014070618
-0.2470254
-0.0013394051
-0.24650668
-0.0012676835
-0.24601265
-0.0011924359
-0.24554432
-0.0011141643
-0.24510254
-0.0010333301
-0.24468806
-0.00095036089
-0.24430146
-0.00086565441
-0.24394323
-0.00077958838
-0.24361375
-0.00069253442
-0.24331326
-0.00060486545
-0.24304193
-0.00051695672
-0.24279973
-0.00042929049
-0.24258647
-0.00034271247
-0.24240202
-0.00025852066
-0.24224683
-0.00017728575
-0.24212065
-9.6243857e-05
-0.24201493
-2.639866e-05
5.8967415e-06
-0.25770131
-0.00026430825
-0.25762511
-0.0002092582
-0.25756519
-0.00014537178
-0.25752354
-7.3608173e-05
-0.25750174
5.259791e-06
-0.25750099
9.0636046e-05
-0.25752219
0.00018187161
-0.25756601
0.00027820884
-0.25763289
0.00037877068
-0.25772304
0.00048258546
-0.25783644
0.000588596
-0.25797282
0.0006956966
-0.25813168
0.00080271692
-0.25831225
0.00090847499
-0.25851353
0.0010117462
-0.25873429
0.0011113309
-0.25897307
0.0012060103
-0.25922818
0.0012946283
-0.25949774
0.0013760351
-0.25977968
0.0014491819
-0.26007175
0.0015130526
-0.26037156
0.0015667693
-0.2606766
0.0016095134
-0.26098424
0.0016406384
-0.26129179
0.001659582
-0.26159652
0.0016659829
-0.26189568
0.0016595846
-0.26218654
0.0016403529
-0.26246644
0.0016083739
-0.2627328
0.0015639667
-0.26298317
0.0015075784
-0.26321525
0.0014398826
-0.26342697
0.0013617091
-0.26361646
0.0012740413
-0.26378215
0.0011780627
-0.26392273
0.0010750608
-0.26403726
0.00096649436
-0.2641251
0.00085389723
-0.26418603
0.0007389264
-0.26422017
0.00062327317
-0.26422805
0.00050869182
-0.26421059
0.00039692105
-0.26416912
0.00028969012
-0.26410531
0.00018866117
-0.26402119
9.5404188e-05
-0.26391914
1.1356334e-05
-0.26380179
-6.2199307e-05
-0.26367203
-0.00012416401
-0.26353296
-0.00017366507
-0.26338778
-0.00021007457
-0.26323978
-0.0002330432
-0.26309223
-0.00024251419
-0.26294832
-0.00023872572
-0.26281112
-0.00022222464
-0.26268343
-0.00019385574
-0.2625678
-0.00015475441
-0.26246639
-0.00010632989
-0.26238097
-5.0239625e-05
-0.26231281
1.1644026e-05
-0.2622627
7.727048e-05
-0.26223084
0.00014445165
-0.26221691
0.00021091408
-0.26221997
0.00027434419
-0.26223854
0.000332446
-0.26227056
0.00038299846
-0.26231347
0.00042391091
-0.26236424
0.00045327044
-0.26241939
0.00046938919
-0.26247514
0.00047084856
-0.2625274
0.00045652768
-0.26257189
0.00042564666
-0.26260425
0.00037779997
-0.26262014
0.00031295556
-0.26261528
0.00023144705
-0.2625856
0.00013397997
-0.2625273
2.161701e-05
-0.26243693
-0.00010425169
-0.2623115
-0.00024194508
-0.2621485
-0.00038953628
-0.26194597
-0.00054489674
-0.26170254
-0.00070574319
-0.26141741
-0.00086970726
-0.26109043
-0.0010344033
-0.26072204
-0.0011974734
-0.26031326
-0.0013566374
-0.25986566
-0.0015097468
-0.25938129
-0.0016548295
-0.25886268
-0.0017901267
-0.25831269
-0.0019141202
-0.25773454
-0.0020255509
-0.25713168
-0.0021234323
-0.25650773
-0.0022070432
-0.25586642
-0.0022759294
-0.25521152
-0.0023298854
-0.25454681
-0.0023689362
-0.25387597
-0.0023933128
-0.2532026
-0.0024034249
-0.25253013
-0.0023998365
-0.25186182
-0.0023832276
-0.25120074
-0.0023543748
-0.25054972
-0.0023141198
-0.2499114
-0.002263345
-0.24928816
-0.0022029507
-0.24868215
-0.0021338403
-0.24809534
-0.0020568946
-0.24752943
-0.0019729683
-0.24698596
-0.0018828751
-0.24646626
-0.001787382
-0.24597149
-0.0016872039
-0.24550265
-0.0015830057
-0.24506059
-0.0014753961
-0.24464601
-0.0013649382
-0.24425951
-0.0012521531
-0.24390157
-0.0011375318
-0.24357255
-0.0010215489
-0.24327274
-0.00090467278
-0.24300231
-0.00078738615
-0.2427613
-0.00067030505
-0.24254966
-0.00055435651
-0.24236755
-0.00044062994
-0.24221529
-0.00032954256
-0.24209203
-0.00021950194
-0.24199455
-0.00012388344
-5.3200414e-05
-0.25770722
-0.00036057352
-0.25762693
-0.00028955639
-0.25756376
-0.00020853932
-0.25751935
-0.00011801265
-0.2574952
-1.8895218e-05
-0.25749251
8.7948009e-05
-0.25751224
0.00020160273
-0.25755509
0.00032105801
-0.25762151
0.00044519339
-0.25771173
0.00057279942
-0.2578257
0.00070256954
-0.25796315
0.00083315005
-0.25812355
0.00096311753
-0.25830612
0.001091042
-0.25850982
0.0012154497
-0.2587334
0.0013349036
-0.25897534
0.0014479504
-0.25923393
0.0015532178
-0.25950724
0.0016493465
-0.25979316
0.0017351029
-0.2600894
0.001809296
-0.26039354
0.0018709038
-0.260703
0.0019189768
-0.26101514
0.0019527736
-0.26132721
0.0019716539
-0.26163644
0.001975218
-0.26194005
0.0019631922
-0.26223526
0.0019355676
-0.26251937
0.0018924797
-0.26278975
0.001834342
-0.26304389
0.0017617222
-0.26327947
0.0016754591
-0.26349434
0.0015765795
-0.26368659
0.0014662973
-0.2638546
0.0013460663
-0.263997
0.0012174699
-0.26411281
0.0010822983
-0.26420135
0.00094243691
-0.26426234
0.00079992017
-0.2642959
0.00065682974
-0.26430253
0.00051532286
-0.26428315
0.00037754315
-0.26423908
0.00024562166
-0.26417203
0.0001216112
-0.26408408
7.4461414e-06
-0.26397762
-9.5100742e-05
-0.26385538
-0.00018443545
-0.26372035
-0.00025919738
-0.2635757
-0.00031831278
-0.26342476
-0.00036101173
-0.26327093
-0.00038687411
-0.26311761
-0.00039584015
-0.26296811
-0.00038822075
-0.26282563
-0.00036471051
-0.2626931
-0.00032637908
-0.2625732
-0.00027466057
-0.26246819
-0.00021133188
-0.26237995
-0.0001384819
-0.26230984
-5.8470827e-05
-0.26225868
2.6115921e-05
-0.26222675
0.00011252196
-0.26221372
0.00019788283
-0.26221867
0.00027928839
-0.26224007
0.00035384537
-0.26227582
0.00041875075
-0.26232328
0.00047137017
-0.2623793
0.00050929811
-0.26244033
0.00053041297
-0.26250241
0.00053292579
-0.2625613
0.00051542522
-0.2626126
0.00047694563
-0.26265179
0.00041698484
-0.26267433
0.00033550102
-0.26267581
0.00023292556
-0.262652
0.00011016537
-0.26259895
-3.1427995e-05
-0.26251311
-0.00019008946
-0.26239137
-0.0003636854
-0.26223114
-0.00054976899
-0.2620304
-0.00074563907
-0.26178773
-0.0009484089
-0.26150236
-0.001155084
-0.26117412
-0.0013626395
-0.2608035
-0.0015680884
-0.26039159
-0.0017685488
-0.25994003
-0.0019613087
-0.25945098
-0.0021438817
-0.25892705
-0.0023140536
-0.25837126
-0.002469917
-0.25778691
-0.0026098944
-0.25717759
-0.0027327546
-0.25654703
-0.0028376034
-0.25589907
-0.0029238851
-0.2552376
-0.0029913584
-0.25456646
-0.0030400728
-0.25388944
-0.0030703376
-0.25321018
-0.0030826856
-0.25253217
-0.0030778432
-0.25185872
-0.0030566803
-0.25119291
-0.0030201866
-0.2505376
-0.0029694312
-0.24989541
-0.002905532
-0.24926873
-0.0028296266
-0.24865972
-0.0027428539
-0.24807029
-0.002646322
-0.24750216
-0.0025411039
-0.24695681
-0.0024282191
-0.24643557
-0.002308626
-0.24593956
-0.0021832158
-0.24546975
-0.0020528151
-0.24502697
-0.0019181777
-0.24461191
-0.0017799976
-0.24422515
-0.0016389131
-0.24386716
-0.0014955193
-0.24353833
-0.0013503803
-0.24323895
-0.0012040452
-0.24296926
-0.0010570796
-0.24272939
-0.00091017656
-0.24251951
-0.00076423728
-0.24233998
-0.00062015685
-0.24219102
-0.00047850293
-0.24207239
-0.00033813393
-0.24198408
-0.0002121931
-0.00010182982
-0.25770988
-0.00046153567
-0.2576247
-0.00037473677
-0.25755704
-0.00027619642
-0.25750856
-0.00016649476
-0.25748072
-4.6731746e-05
-0.25747477
8.1997449e-05
-0.2574917
0.00021853324
-0.25753226
0.00036161797
-0.25759695
0.00050988225
-0.25768602
0.00066186983
-0.25779947
0.00081601844
-0.25793704
0.00097071889
-0.25809821
0.0011242871
-0.2582822
0.0012750375
-0.25848799
0.0014212397
-0.2587143
0.0015612115
-0.25895961
0.0016932572
-0.25922217
0.0018157808
-0.25950003
0.0019272058
-0.25979103
0.0020261059
-0.26009285
0.0021111081
-0.26040298
0.0021810388
-0.26071882
0.002234811
-0.26103762
0.0022715814
-0.2613566
0.0022906258
-0.26167288
0.0022915005
-0.26198359
0.0022739095
-0.26228589
0.0022378653
-0.26257696
0.0021835495
-0.26285409
0.002111468
-0.26311467
0.0020223082
-0.26335629
0.0019170745
-0.2635767
0.0017969932
-0.26377392
0.0016635119
-0.26394621
0.0015183609
-0.26409217
0.0013634265
-0.26421071
0.0012008395
-0.26430112
0.0010328482
-0.26436308
0.00086187768
-0.26439666
0.00069041443
-0.26440238
0.00052103495
-0.26438114
0.0003563051
-0.26433429
0.00019877648
-0.26426359
5.0911909e-05
-0.26417117
-8.4978296e-05
-0.26405951
-0.00020675566
-0.26393146
-0.00031249214
-0.26379009
-0.00040056428
-0.26363873
-0.00046967404
-0.26348083
-0.00051890669
-0.26331995
-0.0005477541
-0.26315965
-0.00055614624
-0.2630034
-0.00054446354
-0.26285457
-0.00051354966
-0.26271624
-0.00046470253
-0.26259124
-0.0003996633
-0.26248198
-0.00032058947
-0.26239045
-0.00023001771
-0.2623181
-0.00013081595
-0.26226586
-2.6126917e-05
-0.26223403
8.0698788e-05
-0.26222233
0.0001861749
-0.2622298
0.00028676289
-0.26225491
0.00037894925
-0.26229547
0.00045931966
-0.26234877
0.00052466552
-0.26241153
0.00057205932
-0.26248004
0.00059892156
-0.26255018
0.00060306958
-0.26261755
0.00058279417
-0.26267753
0.00053692641
-0.2627254
0.00046485271
-0.26275642
0.00036652448
-0.26276598
0.00024248022
-0.26274965
9.3832618e-05
-0.26270331
-7.7762506e-05
-0.26262326
-0.00027014453
-0.26250624
-0.00048070266
-0.26234956
-0.00070644346
-0.26215114
-0.00094406466
-0.26190951
-0.0011900421
-0.26162387
-0.0014407204
-0.2612941
-0.0016924054
-0.26092074
-0.0019414524
-0.26050494
-0.0021843495
-0.26004845
-0.0024177969
-0.25955356
-0.0026387739
-0.25902302
-0.002844596
-0.25845998
-0.0030329566
-0.25786792
-0.0032019547
-0.25725056
-0.0033501148
-0.25661178
-0.0034763743
-0.25595559
-0.0035800839
-0.25528597
-0.0036609787
-0.25460689
-0.0037191467
-0.25392224
-0.0037549909
-0.25323574
-0.0037691845
-0.25255095
-0.003762633
-0.25187122
-0.0037364131
-0.25119966
-0.0036917433
-0.25053916
-0.0036299347
-0.24989234
-0.0035523533
-0.24926158
-0.0034603855
-0.24864901
-0.0033554151
-0.24805655
-0.0032387852
-0.24748586
-0.003111793
-0.24693841
-0.0029756676
-0.24641548
-0.0028315616
-0.24591815
-0.0026805437
-0.24544736
-0.0025236019
-0.24500391
-0.0023616332
-0.24458845
-0.0021954601
-0.24420153
-0.0020258332
-0.2438436
-0.0018534445
-0.24351504
-0.0016789394
-0.24321615
-0.0015029374
-0.24294716
-0.0013260661
-0.24270829
-0.0011490484
-0.24249982
-0.00097271096
-0.24232215
-0.00079781945
-0.24217555
-0.00062510209
-0.24206062
-0.00045306684
-0.24197859
-0.00029422994
-0.0001449649
-0.25772195
-0.00056961965
-0.25763047
-0.00046621866
-0.25755706
-0.00034961339
-0.25750331
-0.00022024151
-0.25747071
-7.9327131e-05
-0.25746055
7.1832069e-05
-0.25747386
0.00023184305
-0.25751145
0.0003992058
-0.25757386
0.00057229779
-0.2576614
0.00074940767
-0.25777409
0.0009287104
-0.2579117
0.0011083322
-0.25807374
0.0012863197
-0.25825942
0.0014607223
-0.25846773
0.0016295436
-0.25869736
0.0017908467
-0.25894679
0.001942684
-0.25921423
0.0020832259
-0.2594977
0.0022106688
-0.25979497
0.0023233843
-0.26010367
0.0024198079
-0.26042124
0.002498605
-0.26074497
0.0025585423
-0.26107206
0.0025986665
-0.26139959
0.0026181613
-0.26172462
0.0026165327
-0.26204417
0.0025934559
-0.26235526
0.00254896
-0.26265498
0.0024832688
-0.26294049
0.0023969787
-0.26320908
0.0022908957
-0.2634582
0.0021661912
-0.2636855
0.0020242936
-0.26388888
0.0018668895
-0.26406651
0.0016959922
-0.26421688
0.0015138009
-0.26433884
0.0013227981
-0.2644316
0.0011256089
-0.26449479
0.00092506463
-0.26452845
0.00072407466
-0.26453307
0.00052565446
-0.26450958
0.00033281302
-0.26445935
0.00014854679
-0.26438418
-2.4254364e-05
-0.26428628
-0.00018287539
-0.26416826
-0.00032478121
-0.26403305
-0.00044769932
-0.26388389
-0.00054972511
-0.26372425
-0.00062930802
-0.26355779
-0.00068537542
-0.26338822
-0.00071732089
-0.26321931
-0.00072505423
-0.26305475
-0.00070902252
-0.26289808
-0.00067021739
-0.26275262
-0.00061017134
-0.26262134
-0.00053094304
-0.26250684
-0.00043508588
-0.26241125
-0.00032560534
-0.26233617
-0.00020590209
-0.26228259
-7.9704896e-05
-0.2622509
4.9008781e-05
-0.26224082
0.000176099
-0.26225142
0.00029735713
-0.26228108
0.00040861245
-0.26232757
0.00050580639
-0.26238802
0.00058512129
-0.26245904
0.00064307432
-0.26253671
0.00067659649
-0.26261673
0.00068309061
-0.26269447
0.00066052976
-0.26276506
0.00060751993
-0.26282354
0.00052332757
-0.26286491
0.00040790216
-0.26288433
0.00026189181
-0.26287712
8.6625262e-05
-0.26283896
-0.00011591879
-0.26276595
-0.00034315975
-0.26265467
-0.00059198012
-0.26250231
-0.00085880646
-0.26230667
-0.0011396987
-0.26206626
-0.001430455
-0.26178026
-0.0017267184
-0.26144858
-0.002024087
-0.26107181
-0.0023182218
-0.26065121
-0.0026049473
-0.26018866
-0.0028803459
-0.2596866
-0.0031408389
-0.25914794
-0.0033832527
-0.25857603
-0.0036048698
-0.25797452
-0.0038034602
-0.25734733
-0.0039773042
-0.25669853
-0.0041251767
-0.25603227
-0.004246346
-0.25535271
-0.0043405376
-0.25466396
-0.004407896
-0.25397001
-0.0044489378
-0.2532747
-0.0044644967
-0.25258166
-0.0044556786
-0.25189428
-0.0044237871
-0.25121574
-0.004370289
-0.25054892
-0.0042967545
-0.24989646
-0.004204814
-0.24926073
-0.0040961154
-0.24864384
-0.0039722989
-0.24804768
-0.0038349512
-0.24747387
-0.0036856001
-0.24692385
-0.0035256891
-0.24639884
-0.0033565673
-0.2458999
-0.0031794814
-0.24542793
-0.0029955797
-0.24498366
-0.0028059002
-0.24456773
-0.0026113891
-0.24418066
-0.0024129038
-0.24382288
-0.0022112256
-0.24349475
-0.0020070727
-0.24319656
-0.0018011248
-0.24292857
-0.0015940532
-0.24269104
-0.0013865824
-0.24248428
-0.0011794654
-0.2423087
-0.0009733999
-0.24216462
-0.00076918354
-0.24205312
-0.00056456398
-0.24197552
-0.00037183366
-0.00018488455
-0.25774033
-0.0006844923
-0.25764212
-0.00056443008
-0.25756239
-0.00042934187
-0.25750285
-0.00027977889
-0.25746504
-0.00011713986
-0.25745028
5.7075154e-05
-0.25745968
0.00024124213
-0.2574941
0.00043361984
-0.25755413
0.00063232927
-0.25764012
0.00083539747
-0.25775213
0.001040728
-0.25788998
0.0012461737
-0.25805316
0.0014495022
-0.25824092
0.001648488
-0.25845224
0.0018408577
-0.2586858
0.0020244093
-0.25894005
0.0021969322
-0.25921317
0.0023563522
-0.25950313
0.0025006274
-0.25980767
0.0026279165
-0.26012431
0.0027364522
-0.26045043
0.0028247287
-0.26078325
0.002891356
-0.26111984
0.0029352611
-0.26145721
0.0029555268
-0.26179227
0.0029516005
-0.26212194
0.0029231215
-0.26244311
0.00287013
-0.26275273
0.0027928876
-0.26304783
0.0026920781
-0.26332556
0.0025686254
-0.26358324
0.0024238688
-0.26381838
0.0022594424
-0.26402877
0.0020772767
-0.26421246
0.0018796768
-0.26436782
0.0016691645
-0.26449361
0.0014485877
-0.26458896
0.0012209636
-0.26465345
0.00098954832
-0.26468707
0.00075769457
-0.26469029
0.00052887958
-0.26466406
0.00030657961
-0.26460978
9.4264984e-05
-0.2645293
-0.00010473105
-0.26442493
-0.00028724599
-0.26429939
-0.00045032243
-0.26415576
-0.00059133276
-0.26399744
-0.00070804321
-0.26382808
-0.00079866315
-0.26365154
-0.00086191712
-0.26347177
-0.00089709108
-0.26329276
-0.00090406477
-0.26311844
-0.00088334558
-0.26295258
-0.0008360745
-0.26279873
-0.00076402396
-0.26266009
-0.00066958245
-0.26253946
-0.00055571749
-0.26243913
-0.00042592703
-0.26236086
-0.00028417362
-0.26230576
-0.00013480604
-0.26227429
1.7533518e-05
-0.2622662
0.00016801025
-0.26228055
0.00031170578
-0.26231567
0.00044374127
-0.26236924
0.00055937209
-0.26243825
0.00065413454
-0.26251913
0.00072395021
-0.26260775
0.0007652197
-0.26269957
0.00077490873
-0.26278969
0.00075064521
-0.26287295
0.00069078725
-0.2629441
0.00059447355
-0.26299785
0.0004616512
-0.26302904
0.00029308142
-0.26303274
9.0323895e-05
-0.26300436
-0.00014429827
-0.26293976
-0.00040775555
-0.26283535
-0.0006963885
-0.26268816
-0.0010060033
-0.26249588
-0.0013319775
-0.26225695
-0.0016693841
-0.26197055
-0.0020131162
-0.26163662
-0.0023580176
-0.26125583
-0.0026990107
-0.26082956
-0.0030312157
-0.26035985
-0.0033500622
-0.2598493
-0.003651384
-0.25930106
-0.0039314976
-0.25871867
-0.0041872602
-0.25810602
-0.0044161064
-0.25746725
-0.0046160737
-0.25680665
-0.0047857819
-0.25612856
-0.0049244303
-0.25543735
-0.0050317531
-0.25473727
-0.0051079728
-0.25403246
-0.0051537432
-0.25332688
-0.0051700843
-0.25262423
-0.0051583271
-0.25192799
-0.005120027
-0.25124135
-0.0050569217
-0.25056725
-0.0049708621
-0.2499083
-0.0048637609
-0.24926687
-0.004737544
-0.24864505
-0.0045941208
-0.24804467
-0.0044353322
-0.24746732
-0.0042629444
-0.24691439
-0.0040786205
-0.24638705
-0.0038839093
-0.24588629
-0.0036802363
-0.24541297
-0.0034689092
-0.24496776
-0.0032511038
-0.24455126
-0.003027886
-0.24416396
-0.0028002131
-0.24380623
-0.0025689478
-0.24347843
-0.0023348717
-0.24318085
-0.002098712
-0.24291374
-0.0018611647
-0.24267738
-0.0016229375
-0.24247213
-0.0013847191
-0.24229836
-0.0011471613
-0.24215651
-0.00091103552
-0.24204784
-0.00067323445
-0.24197335
-0.00044632642
-0.00022278405
-0.25776568
-0.00080791527
-0.25765959
-0.00067051954
-0.25757255
-0.00051638155
-0.25750631
-0.00034601899
-0.25746247
-0.00016098283
-0.25744242
3.7028184e-05
-0.25744734
0.00024615732
-0.25747814
0.0004644204
-0.25753548
0.0006896761
-0.25761977
0.00091968045
-0.2577311
0.001152057
-0.2578693
0.0013843742
-0.2580339
0.00161411
-0.25822417
0.001838752
-0.25843905
0.0020557385
-0.25867723
0.0022625901
-0.25893712
0.0024568206
-0.25921686
0.0026360995
-0.25951437
0.002798134
-0.25982731
0.0029408579
-0.26015315
0.0030622889
-0.26048916
0.0031607387
-0.26083245
0.0032346488
-0.26118001
0.0032828163
-0.26152869
0.0033042127
-0.26187531
0.003298218
-0.26221662
0.0032644276
-0.26254937
0.0032028861
-0.26287037
0.0031138875
-0.26317649
0.0029982002
-0.26346473
0.002856864
-0.26373225
0.0026913874
-0.26397642
0.0025036129
-0.26419487
0.0022957212
-0.26438551
0.0020703177
-0.2645466
0.0018302584
-0.26467678
0.0015787713
-0.2647751
0.0013192836
-0.26484105
0.0010554967
-0.26487459
0.00079123018
-0.26487616
0.00053044922
-0.2648467
0.00027712611
-0.26478767
3.5234219e-05
-0.26470099
-0.00019141595
-0.26458905
-0.00039918072
-0.26445472
-0.0005846535
-0.26430123
-0.00074482906
-0.26413217
-0.00087709478
-0.26395144
-0.00097939865
-0.26376311
-0.0010502508
-0.26357139
-0.0010888067
-0.26338055
-0.0010949057
-0.26319479
-0.0010691049
-0.26301817
-0.001012696
-0.26285449
-0.00092769861
-0.26270723
-0.00081684481
-0.26257941
-0.00068353777
-0.26247354
-0.0005317959
-0.26239154
-0.00036617782
-0.26233465
-0.00019169226
-0.26230343
-1.3690539e-05
-0.26229767
0.00016224922
-0.26231641
0.00033045027
-0.26235794
0.00048527141
-0.2624198
0.00062123047
-0.26249884
0.00073317144
-0.26259126
0.00081637377
-0.26269271
0.00086666536
-0.26279834
0.00088054148
-0.26290295
0.00085525455
-0.26300105
0.00078889246
-0.26308703
0.00068045324
-0.26315526
0.00052988028
-0.26320023
0.00033805296
-0.26321669
0.00010677887
-0.26319974
-0.00016124892
-0.26314498
-0.00046251792
-0.26304858
-0.00079278516
-0.26290739
-0.0011471886
-0.262719
-0.001520371
-0.26248176
-0.0019066239
-0.26219484
-0.002300034
-0.26185822
-0.0026946352
-0.26147268
-0.0030845586
-0.26103972
-0.0034641723
-0.26056157
-0.0038282115
-0.26004107
-0.0041718891
-0.25948158
-0.004490986
-0.25888692
-0.0047819183
-0.25826125
-0.0050417786
-0.25760896
-0.0052683632
-0.25693459
-0.0054601465
-0.25624275
-0.0056162753
-0.25553799
-0.0057365146
-0.25482477
-0.0058211908
-0.25410739
-0.0058711237
-0.25338992
-0.0058875492
-0.2526762
-0.0058720535
-0.25196975
-0.0058264725
-0.25127383
-0.005752842
-0.25059138
-0.0056533177
-0.24992502
-0.0055301162
-0.2492771
-0.0053854595
-0.24864968
-0.0052215415
-0.24804455
-0.0050404688
-0.24746324
-0.0048442549
-0.24690707
-0.0046347882
-0.24637716
-0.0044138205
-0.24587444
-0.0041829574
-0.24539968
-0.0039436648
-0.24495353
-0.0036972538
-0.24453651
-0.0034449053
-0.24414905
-0.0031876708
-0.24379151
-0.0029264876
-0.24346419
-0.0026621925
-0.24316735
-0.0023955501
-0.24290125
-0.0021272676
-0.24266616
-0.0018580273
-0.24246242
-0.0015884633
-0.2422904
-0.001319179
-0.24215058
-0.0010508573
-0.24204423
-0.0007795861
-0.24197199
-0.00051856333
-0.00025932363
-0.25779609
-0.00094022772
-0.2576814
-0.00078521497
-0.25758629
-0.00061148942
-0.25751264
-0.00041966695
-0.25746214
-0.00021148412
-0.25743626
1.115384e-05
-0.25743626
0.00024615116
-0.25746311
0.00049127609
-0.25751756
0.00074411809
-0.25760003
0.001002153
-0.25771069
0.0012627142
-0.25784939
0.0015230741
-0.25801568
0.0017804089
-0.25820884
0.0020319066