/*--------------------------------*- C++ -*----------------------------------*\
| =========                 |                                                 |
| \\      /  F ield         | foam-extend: Open Source CFD                    |
|  \\    /   O peration     | Version:     4.1                                |
|   \\  /    A nd           | Web:         http://www.foam-extend.org         |
|    \\/     M anipulation  |                                                 |
\*---------------------------------------------------------------------------*/
FoamFile
{
    version     2.0;
    format      ascii;
    class       volScalarField;
    location    "0.65";
    object      rAU;
}
// * * * * * * * * * * * * * * * * * * * * * * * * * * * * * * * * * * * * * //

dimensions      [0 0 1 0 0 0 0];

internalField   nonuniform List<scalar> 
16796
(
0.00012904486
0.0001290086
0.00012898775
0.00012896096
0.00012892609
0.00012888376
0.00012883138
0.00012876954
0.00012869574
0.00012861076
0.00012851232
0.00012840141
0.00012827607
0.00012813758
0.00012798428
0.00012781781
0.00012763683
0.00012744331
0.00012723624
0.00012701791
0.00012678764
0.00012654798
0.00012629853
0.00012604209
0.00012577845
0.00012551058
0.00012523841
0.00012496501
0.00012469037
0.00012441755
0.00012414653
0.00012387992
0.00012361912
0.00012336429
0.00012311817
0.00012288035
0.00012265331
0.00012243636
0.0001222317
0.00012203831
0.00012185806
0.00012168973
0.00012153429
0.00012139116
0.00012126008
0.00012114055
0.00012103189
0.00012093343
0.00012084414
0.00012076306
0.0001206891
0.00012062109
0.00012055784
0.00012049824
0.00012044103
0.00012038513
0.00012032949
0.00012027317
0.00012021533
0.00012015542
0.00012009284
0.00012002731
0.00011995871
0.00011988711
0.00011981279
0.00011973614
0.00011965791
0.00011957878
0.00011949969
0.00011942168
0.00011934588
0.00011927344
0.00011920568
0.00011914373
0.00011908884
0.00011904217
0.00011900471
0.00011897737
0.00011896116
0.00011895673
0.00011895673
0.00011896471
0.00011898539
0.00011901892
0.00011906521
0.00011912403
0.00011919495
0.00011927738
0.00011937056
0.00011947359
0.00011958558
0.00011970534
0.00011983174
0.0001199636
0.00012009965
0.00012023866
0.00012037935
0.00012052062
0.00012066116
0.00012079988
0.00012093571
0.00012106764
0.00012119467
0.00012131607
0.00012143092
0.00012153854
0.00012163828
0.00012172956
0.00012181184
0.00012188479
0.00012194791
0.00012200092
0.00012204355
0.00012207558
0.00012209681
0.00012210673
0.00012209534
0.00012207316
0.00012204037
0.00012199752
0.00012194563
0.0001218848
0.00012181264
0.000121704
0.0001167825
0.00011681214
0.00011686693
0.00011692072
0.00011697021
0.00011701592
0.00011704615
0.00011706443
0.00011707319
0.00011707331
0.00011706281
0.00011704277
0.00011701141
0.00011697002
0.00011691709
0.00011685415
0.00011677993
0.00011669622
0.00011660201
0.00011649936
0.00011638748
0.00011626867
0.00011614235
0.00011601101
0.00011587426
0.0001157347
0.00011559206
0.00011544903
0.0001153054
0.00011516386
0.00011502418
0.00011488863
0.00011475836
0.00011463333
0.00011451599
0.00011440578
0.00011430492
0.00011421261
0.00011413084
0.00011405854
0.00011399739
0.00011394615
0.0001139057
0.00011387543
0.00011385505
0.00011384407
0.00011384183
0.00011384768
0.00011386067
0.0001138799
0.00011390436
0.000113933
0.00011396473
0.00011399858
0.00011403341
0.0001140683
0.00011410234
0.00011413475
0.00011416486
0.00011419227
0.00011421653
0.00011423754
0.00011425532
0.00011427009
0.00011428225
0.00011429235
0.00011430125
0.00011430973
0.00011431886
0.00011432976
0.00011434362
0.00011436167
0.00011438527
0.00011441554
0.00011445369
0.00011450079
0.00011454397
0.0001145925
0.00011465109
0.00011472031
0.00011479336
0.0001148737
0.00011496594
0.00011507045
0.00011518739
0.00011531679
0.00011545847
0.0001156121
0.00011577718
0.00011595304
0.00011613904
0.00011633418
0.00011653754
0.00011674809
0.00011696473
0.00011718634
0.00011741173
0.00011763988
0.00011786954
0.00011809965
0.00011832914
0.00011855698
0.00011878218
0.00011900395
0.00011922131
0.00011943352
0.00011963987
0.0001198397
0.00012003236
0.00012021743
0.00012039432
0.00012056263
0.00012072197
0.000120872
0.00012101239
0.00012114246
0.00012125214
0.00012135151
0.00012144052
0.00012151921
0.00012158778
0.00012163393
0.00012166376
0.0001216777
0.00011590183
0.00011593406
0.00011598673
0.00011603719
0.00011608321
0.00011612568
0.00011615344
0.00011615465
0.00011613846
0.00011611347
0.00011607812
0.00011603389
0.0001159794
0.00011591636
0.00011584361
0.00011576306
0.00011567378
0.00011557786
0.00011547455
0.00011536612
0.00011525199
0.00011513455
0.00011501334
0.00011489086
0.00011476672
0.00011464346
0.00011452073
0.00011440107
0.00011428408
0.00011417225
0.00011406512
0.00011396468
0.00011387178
0.00011378611
0.00011370975
0.00011364183
0.00011358422
0.00011353578
0.00011349814
0.0001134699
0.00011345239
0.00011344406
0.00011344547
0.00011345571
0.00011347423
0.00011350029
0.000113533
0.00011357154
0.00011361478
0.00011366172
0.00011371126
0.00011375874
0.00011379942
0.00011384267
0.00011388741
0.0001139327
0.00011397763
0.00011402134
0.00011406305
0.00011410221
0.00011413821
0.00011416401
0.00011418315
0.00011419882
0.00011421172
0.00011422264
0.0001142327
0.0001142429
0.0001142545
0.00011426876
0.000114287
0.00011431051
0.00011434069
0.00011437866
0.00011441079
0.00011444459
0.00011447234
0.00011450346
0.00011454286
0.00011459153
0.00011465053
0.00011472069
0.00011480271
0.00011489711
0.00011500424
0.00011512426
0.00011525714
0.00011540268
0.00011556048
0.00011572998
0.00011591058
0.00011610137
0.00011630145
0.0001165098
0.00011672532
0.00011694689
0.0001171733
0.00011740347
0.00011763612
0.00011787014
0.0001181044
0.00011833781
0.00011856932
0.00011879806
0.00011902302
0.00011924338
0.00011945837
0.00011966728
0.00011986941
0.00012006429
0.00012025128
0.00012042995
0.00012059985
0.00012076062
0.00012091187
0.00012105342
0.00012118488
0.00012130605
0.0001214166
0.00012151604
0.00012160385
0.00012166925
0.00012171653
0.00012172821
0.00011580787
0.00011584274
0.00011589854
0.00011595273
0.00011600294
0.00011604994
0.0001160916
0.00011610369
0.00011607654
0.00011604005
0.00011599281
0.00011593646
0.0001158698
0.0001157947
0.00011571018
0.0001156183
0.00011551828
0.00011541238
0.00011529998
0.00011518346
0.00011506237
0.00011493918
0.00011481352
0.00011468794
0.00011456209
0.00011443854
0.00011431693
0.00011419978
0.00011408667
0.00011398003
0.00011387933
0.00011378648
0.00011370224
0.00011362618
0.00011356028
0.00011350354
0.00011345771
0.00011342151
0.00011339644
0.00011338095
0.00011337626
0.00011338065
0.00011339457
0.00011341697
0.00011344717
0.00011348432
0.0001135274
0.0001135755
0.00011362741
0.00011367402
0.00011370908
0.00011374488
0.00011377679
0.00011381421
0.00011385601
0.00011390112
0.00011394843
0.00011399682
0.00011404514
0.00011409246
0.0001141377
0.00011417333
0.00011420237
0.00011422293
0.00011423215
0.00011423969
0.00011424684
0.00011425478
0.0001142649
0.00011427863
0.0001142974
0.00011432258
0.00011435566
0.00011437697
0.00011438797
0.00011439737
0.00011441158
0.00011443196
0.00011445999
0.00011449682
0.00011454368
0.0001146016
0.00011467144
0.00011475391
0.00011484951
0.00011495856
0.00011508116
0.00011521722
0.00011536647
0.00011552839
0.00011570247
0.00011588783
0.00011608359
0.00011628875
0.00011650219
0.00011672276
0.00011694923
0.00011718047
0.00011741515
0.0001176521
0.00011789014
0.00011812811
0.00011836491
0.00011859959
0.00011883109
0.00011905854
0.00011928111
0.00011949802
0.00011970856
0.00011991218
0.00012010822
0.00012029618
0.00012047562
0.0001206461
0.00012080722
0.00012095874
0.00012110023
0.00012123141
0.00012135188
0.0001214611
0.00012155867
0.00012164647
0.00012171836
0.0001217387
0.00011575387
0.00011579443
0.00011585637
0.00011591739
0.00011597508
0.00011603009
0.00011608017
0.00011611411
0.00011607952
0.00011603514
0.00011597964
0.00011591473
0.00011583933
0.00011575537
0.00011566199
0.00011556135
0.00011545276
0.00011533856
0.00011521825
0.0001150943
0.00011496633
0.0001148369
0.00011470571
0.00011457537
0.00011444559
0.00011431898
0.00011419523
0.00011407687
0.00011396351
0.00011385757
0.00011375854
0.0001136683
0.00011358759
0.00011351595
0.00011345531
0.00011340462
0.00011336555
0.00011333677
0.00011331968
0.00011331264
0.00011331677
0.00011333025
0.00011335339
0.00011338504
0.00011342439
0.00011347045
0.0001135221
0.00011357829
0.00011362324
0.00011364645
0.00011366196
0.00011368579
0.00011371705
0.00011375483
0.00011379795
0.00011384525
0.00011389551
0.00011394747
0.00011399984
0.00011405151
0.00011410124
0.000114148
0.00011419089
0.00011422461
0.00011424557
0.00011424977
0.00011425345
0.00011425852
0.00011426656
0.00011427913
0.0001142978
0.00011432407
0.00011434207
0.00011433968
0.00011433713
0.00011433693
0.00011434061
0.00011434971
0.00011436587
0.00011439041
0.00011442476
0.00011447014
0.0001145276
0.00011459802
0.00011468207
0.00011478021
0.00011489269
0.00011501952
0.00011516052
0.00011531525
0.00011548326
0.00011566367
0.00011585564
0.00011605814
0.00011627006
0.00011649021
0.00011671729
0.00011695015
0.00011718738
0.00011742777
0.00011767005
0.00011791303
0.00011815551
0.00011839651
0.00011863489
0.00011886972
0.00011910013
0.0001193253
0.00011954445
0.00011975702
0.00011996227
0.00012015971
0.00012034883
0.00012052917
0.00012070029
0.00012086191
0.00012101357
0.0001211549
0.00012128543
0.00012140463
0.00012151208
0.00012160953
0.00012168916
0.00012172322
0.00011569768
0.00011574429
0.00011581292
0.00011588129
0.00011594697
0.0001160105
0.00011606955
0.00011612227
0.00011608623
0.00011603422
0.00011597069
0.00011589746
0.00011581349
0.00011572083
0.0001156187
0.00011550933
0.00011539215
0.00011526958
0.00011514121
0.00011500958
0.0001148744
0.00011473832
0.00011460111
0.00011446543
0.00011433107
0.00011420069
0.00011407402
0.00011395365
0.00011383919
0.00011373311
0.00011363488
0.00011354641
0.00011346843
0.00011340044
0.00011334436
0.00011329908
0.00011326623
0.00011324441
0.00011323494
0.00011323611
0.0001132489
0.00011327141
0.00011330383
0.00011334487
0.0001133936
0.00011344887
0.00011350944
0.00011356764
0.00011357964
0.0001135824
0.00011359535
0.00011361775
0.00011364867
0.00011368719
0.00011373203
0.00011378195
0.0001138356
0.00011389157
0.00011394843
0.00011400487
0.00011405946
0.00011411097
0.0001141583
0.00011420048
0.00011423677
0.00011425338
0.00011425298
0.00011425455
0.00011425985
0.00011427062
0.00011428859
0.00011430742
0.00011430177
0.00011429043
0.00011427872
0.00011426829
0.00011426083
0.00011425804
0.00011426177
0.00011427351
0.00011429492
0.0001143274
0.0001143722
0.00011443038
0.00011450279
0.00011459003
0.00011469249
0.00011481028
0.00011494331
0.0001150912
0.00011525352
0.00011542945
0.00011561812
0.00011581849
0.00011602942
0.00011624966
0.00011647789
0.00011671287
0.00011695315
0.00011719743
0.00011744438
0.00011769273
0.00011794123
0.00011818883
0.00011843433
0.00011867676
0.00011891517
0.00011914871
0.00011937656
0.00011959811
0.00011981261
0.00012001951
0.0001202183
0.00012040848
0.00012058959
0.00012076133
0.0001209232
0.0001210748
0.00012121565
0.00012134524
0.00012146308
0.00012157104
0.00012166046
0.00012170703
0.00011563464
0.00011568803
0.00011576396
0.00011584028
0.0001159145
0.0001159871
0.00011605566
0.00011612071
0.00011609322
0.00011603365
0.00011596211
0.00011588049
0.00011578786
0.00011568633
0.00011557521
0.00011545684
0.00011533073
0.00011519939
0.00011506251
0.00011492272
0.00011477982
0.00011463654
0.00011449272
0.00011435111
0.00011421156
0.00011407679
0.00011394659
0.00011382357
0.00011370743
0.00011360062
0.00011350267
0.00011341547
0.00011333975
0.00011327502
0.00011322316
0.00011318304
0.00011315622
0.00011314125
0.00011313938
0.00011314879
0.00011317039
0.00011320214
0.00011324413
0.00011329492
0.00011335345
0.00011341843
0.00011348844
0.00011352104
0.00011350845
0.00011350776
0.00011351846
0.0001135398
0.00011357085
0.00011361061
0.00011365773
0.00011371085
0.0001137685
0.00011382911
0.00011389105
0.00011395285
0.00011401283
0.00011406957
0.00011412175
0.00011416818
0.00011420791
0.00011423996
0.0001142458
0.00011424316
0.00011424501
0.00011425328
0.00011426987
0.0001142719
0.00011425525
0.00011423533
0.00011421381
0.00011419248
0.0001141732
0.00011415787
0.00011414854
0.00011414692
0.00011415489
0.00011417405
0.00011420587
0.00011425161
0.00011431226
0.00011438861
0.00011448114
0.0001145901
0.00011471544
0.00011485687
0.00011501398
0.00011518593
0.00011537187
0.00011557071
0.00011578127
0.00011600226
0.00011623226
0.00011646999
0.00011671392
0.00011696265
0.00011721481
0.00011746905
0.00011772403
0.00011797865
0.00011823164
0.00011848198
0.00011872867
0.00011897082
0.00011920756
0.00011943826
0.00011966212
0.00011987858
0.00012008708
0.00012028713
0.00012047823
0.00012066006
0.00012083209
0.00012099393
0.00012114509
0.0001212851
0.00012141341
0.00012153231
0.00012163258
0.00012169206
0.00011556623
0.00011562662
0.00011571022
0.00011579485
0.00011587798
0.00011596001
0.00011603842
0.00011611366
0.00011610052
0.00011603325
0.00011595352
0.00011586329
0.00011576171
0.00011565099
0.00011553053
0.00011540276
0.0001152673
0.00011512674
0.00011498087
0.00011483242
0.00011468128
0.00011453026
0.00011437929
0.0001142312
0.00011408592
0.00011394623
0.00011381197
0.00011368583
0.00011356753
0.00011345956
0.00011336148
0.00011327521
0.00011320146
0.00011313974
0.00011309193
0.00011305684
0.00011303601
0.00011302792
0.00011303374
0.00011305158
0.00011308224
0.00011312357
0.00011317552
0.00011323653
0.00011330537
0.00011338061
0.00011345663
0.00011344446
0.00011342733
0.00011342336
0.00011343206
0.00011345268
0.00011348425
0.00011352573
0.00011357565
0.00011363255
0.00011369481
0.00011376068
0.00011382835
0.00011389611
0.00011396208
0.0001140246
0.00011408209
0.00011413317
0.00011417666
0.00011421158
0.000114232
0.00011422463
0.00011422224
0.00011422724
0.00011424172
0.00011422907
0.00011420461
0.00011417545
0.0001141434
0.00011411041
0.00011407854
0.00011404992
0.0001140268
0.00011401114
0.00011400506
0.00011401039
0.00011402881
0.00011406178
0.00011411049
0.00011417585
0.00011425849
0.00011435875
0.00011447666
0.00011461196
0.00011476427
0.00011493273
0.00011511647
0.00011531436
0.00011552516
0.0001157475
0.0001159799
0.00011622099
0.00011646914
0.00011672289
0.00011698078
0.00011724137
0.00011750327
0.00011776529
0.00011802612
0.00011828467
0.0001185399
0.00011879088
0.00011903669
0.00011927668
0.00011951004
0.00011973615
0.00011995447
0.00012016447
0.00012036563
0.00012055764
0.00012073995
0.00012091216
0.0001210738
0.00012122442
0.00012136344
0.00012149372
0.00012160545
0.00012167786
0.00011549148
0.00011555946
0.00011565123
0.0001157447
0.00011583726
0.00011592924
0.00011601804
0.00011610397
0.00011610895
0.0001160339
0.00011594583
0.00011584678
0.00011573598
0.00011561575
0.00011548557
0.00011534797
0.00011520267
0.00011505238
0.00011489697
0.00011473929
0.0001145793
0.00011441993
0.00011426119
0.000114106
0.00011395436
0.00011380913
0.00011367023
0.00011354038
0.00011341938
0.00011330975
0.00011321109
0.00011312532
0.00011305319
0.00011299421
0.00011295021
0.00011292002
0.00011290511
0.00011290392
0.00011291754
0.000112944
0.00011298399
0.00011303526
0.00011309761
0.00011316935
0.00011324908
0.00011333521
0.00011339346
0.00011335716
0.00011333558
0.00011332852
0.0001133355
0.00011335578
0.00011338834
0.00011343207
0.00011348541
0.00011354677
0.00011361435
0.00011368622
0.00011376035
0.00011383481
0.00011390747
0.00011397641
0.00011403981
0.00011409603
0.00011414365
0.0001141815
0.00011420887
0.00011419887
0.00011419136
0.00011419224
0.00011420381
0.00011418358
0.00011415068
0.00011411156
0.0001140682
0.00011402272
0.00011397743
0.00011393467
0.00011389695
0.00011386651
0.0001138457
0.00011383661
0.00011384116
0.000113861
0.00011389752
0.00011395179
0.00011402457
0.00011411628
0.00011422702
0.00011435656
0.00011450452
0.00011467004
0.00011485218
0.00011504977
0.00011526148
0.00011548586
0.00011572135
0.00011596647
0.00011621951
0.00011647892
0.00011674312
0.00011701062
0.00011727993
0.00011754981
0.00011781887
0.00011808597
0.00011835003
0.00011861007
0.00011886515
0.00011911458
0.00011935753
0.00011959338
0.00011982154
0.0001200415
0.00012025274
0.00012045493
0.00012064752
0.00012083012
0.0001210023
0.00012116361
0.00012131351
0.00012145545
0.00012157892
0.00012166418
0.00011541101
0.00011548689
0.00011558728
0.00011569004
0.0001157925
0.00011589491
0.00011599456
0.00011609168
0.00011611896
0.00011603596
0.00011593932
0.00011583117
0.00011571082
0.00011558068
0.00011544035
0.00011529245
0.00011513681
0.00011497623
0.00011481071
0.00011464319
0.00011447374
0.00011430539
0.00011413825
0.00011397532
0.0001138167
0.00011366532
0.00011352118
0.00011338707
0.00011326283
0.00011315106
0.00011305137
0.00011296573
0.00011289489
0.00011283838
0.00011279803
0.00011277262
0.00011276362
0.00011276938
0.00011279096
0.00011282627
0.00011287593
0.00011293755
0.00011301081
0.00011309384
0.00011318511
0.00011328283
0.00011330128
0.00011325916
0.00011323317
0.00011322316
0.00011322868
0.00011324898
0.000113283
0.00011332954
0.00011338695
0.00011345347
0.00011352714
0.00011360583
0.00011368726
0.00011376924
0.00011384939
0.0001139255
0.00011399549
0.00011405743
0.00011410966
0.00011415078
0.00011417988
0.00011416582
0.00011415222
0.00011414805
0.00011415584
0.00011413634
0.00011409431
0.00011404445
0.00011398891
0.00011393003
0.00011387035
0.0001138125
0.00011375926
0.00011371316
0.00011367683
0.00011365263
0.00011364272
0.00011364899
0.00011367301
0.00011371602
0.0001137789
0.00011386216
0.00011396596
0.00011409009
0.00011423415
0.00011439726
0.00011457841
0.00011477635
0.00011498967
0.00011521682
0.00011545611
0.00011570598
0.00011596459
0.0001162303
0.00011650144
0.00011677641
0.00011705366
0.00011733186
0.00011760957
0.00011788559
0.0001181588
0.00011842817
0.00011869274
0.00011895179
0.00011920448
0.00011945017
0.00011968828
0.00011991828
0.00012013965
0.00012035206
0.00012055497
0.00012074802
0.0001209308
0.00012110289
0.0001212638
0.00012141756
0.00012155291
0.00012165086
0.00011532421
0.00011540855
0.00011551807
0.00011563067
0.00011574359
0.000115857
0.00011596808
0.00011607697
0.00011613119
0.00011604008
0.00011593464
0.00011581708
0.00011568683
0.00011554636
0.0001153954
0.00011523667
0.00011507011
0.00011489865
0.00011472238
0.00011454435
0.00011436477
0.00011418675
0.00011401051
0.00011383915
0.00011367287
0.00011351467
0.00011336464
0.00011322566
0.00011309761
0.00011298316
0.00011288197
0.00011279604
0.00011272615
0.00011267183
0.00011263493
0.00011261421
0.00011261108
0.00011262389
0.00011265359
0.00011269805
0.00011275775
0.0001128302
0.00011291491
0.0001130099
0.00011311342
0.0001132235
0.00011319798
0.00011314994
0.00011311956
0.00011310675
0.00011311109
0.0001131318
0.00011316778
0.00011321775
0.00011327993
0.00011335242
0.00011343304
0.00011351945
0.00011360911
0.00011369956
0.00011378811
0.00011387226
0.00011394962
0.00011401797
0.00011407538
0.00011412019
0.00011415062
0.00011412534
0.00011410456
0.0001140943
0.00011409736
0.00011408824
0.00011403635
0.00011397489
0.00011390621
0.00011383291
0.0001137578
0.00011368379
0.00011361401
0.00011355127
0.00011349852
0.00011345842
0.0001134334
0.00011342558
0.00011343674
0.00011346829
0.00011352122
0.00011359614
0.00011369324
0.00011381233
0.00011395299
0.00011411426
0.00011429508
0.00011449409
0.00011470977
0.00011494045
0.00011518433
0.00011543971
0.00011570464
0.00011597736
0.0001162561
0.00011653916
0.00011682489
0.00011711191
0.0001173987
0.00011768402
0.00011796669
0.00011824566
0.00011851993
0.00011878877
0.00011905133
0.00011930696
0.00011955507
0.00011979514
0.00012002666
0.00012024931
0.00012046257
0.00012066609
0.0001208595
0.00012104242
0.0001212144
0.00012138008
0.00012152731
0.00012163783
0.00011523122
0.00011532445
0.0001154436
0.00011556657
0.00011569051
0.00011581549
0.0001159386
0.00011605985
0.00011614616
0.00011604671
0.00011593219
0.00011580488
0.00011566429
0.00011551304
0.00011535092
0.00011518079
0.00011500271
0.00011481971
0.00011463201
0.00011444279
0.00011425236
0.00011406394
0.00011387787
0.00011369736
0.0001135227
0.00011335699
0.00011320042
0.00011305592
0.00011292348
0.00011280581
0.00011270263
0.00011261598
0.00011254669
0.00011249431
0.00011246066
0.00011244453
0.00011244729
0.00011246725
0.00011250529
0.0001125592
0.00011262937
0.00011271316
0.00011280996
0.00011291761
0.00011303417
0.00011314613
0.00011308324
0.00011302913
0.00011299435
0.00011297886
0.00011298227
0.00011300378
0.00011304225
0.0001130963
0.00011316402
0.00011324334
0.00011333187
0.00011342701
0.00011352594
0.00011362592
0.00011372391
0.00011381709
0.00011390274
0.00011397831
0.00011404156
0.00011409058
0.00011411481
0.00011407723
0.00011404807
0.00011403058
0.00011402786
0.00011403347
0.00011397763
0.00011390362
0.00011382075
0.00011373189
0.00011364015
0.00011354881
0.0001134613
0.00011338082
0.00011331065
0.00011325375
0.00011321286
0.00011319035
0.00011318821
0.00011320803
0.00011325093
0.00011331758
0.00011340823
0.00011352266
0.00011366041
0.00011382047
0.00011400165
0.00011420249
0.00011442134
0.00011465638
0.00011490568
0.00011516738
0.00011543943
0.00011571991
0.00011600695
0.00011629874
0.00011659357
0.00011688994
0.00011718628
0.0001174813
0.00011777378
0.00011806263
0.00011834684
0.00011862566
0.00011889823
0.0001191639
0.00011942209
0.00011967228
0.00011991398
0.00012014688
0.00012037049
0.00012058449
0.00012078854
0.0001209823
0.00012116539
0.000121343
0.00012150209
0.00012162503
0.00011513165
0.00011523431
0.00011536366
0.00011549758
0.00011563316
0.00011577036
0.00011590616
0.00011604044
0.00011616053
0.00011605649
0.00011593256
0.00011579511
0.00011564374
0.00011548117
0.00011530733
0.00011512518
0.0001149349
0.00011473966
0.0001145398
0.00011433862
0.00011413656
0.00011393695
0.00011374028
0.00011354983
0.00011336603
0.00011319207
0.00011302824
0.00011287755
0.00011274009
0.00011261862
0.00011251294
0.00011242514
0.00011235608
0.00011230534
0.00011227476
0.00011226313
0.0001122718
0.00011229904
0.00011234566
0.00011240939
0.00011249049
0.00011258622
0.0001126958
0.0001128169
0.00011294739
0.00011303779
0.00011295658
0.00011289623
0.00011285701
0.00011283895
0.00011284168
0.00011286441
0.00011290593
0.00011296477
0.00011303887
0.00011312597
0.00011322345
0.00011332844
0.00011343782
0.00011354851
0.00011365711
0.00011376045
0.00011385542
0.00011393914
0.00011400902
0.00011406285
0.00011406947
0.00011402131
0.00011398243
0.00011395645
0.00011394678
0.00011395654
0.00011391907
0.00011383148
0.00011373325
0.00011362756
0.00011351789
0.00011340787
0.00011330134
0.00011320188
0.00011311313
0.00011303843
0.0001129808
0.00011294293
0.000112927
0.00011293479
0.00011296754
0.00011302601
0.00011311045
0.00011322062
0.00011335602
0.00011351552
0.00011369782
0.00011390131
0.00011412419
0.00011436448
0.00011462009
0.000114889
0.000115169
0.00011545805
0.00011575414
0.00011605537
0.0001163599
0.00011666617
0.00011697256
0.0001172777
0.00011758034
0.00011787936
0.00011817374
0.00011846272
0.00011874543
0.00011902124
0.00011928957
0.00011954991
0.0001198018
0.00012004495
0.0001202789
0.00012050336
0.00012071803
0.00012092262
0.00012111681
0.00012130632
0.0001214772
0.00012161241
0.00011502543
0.00011513803
0.00011527813
0.00011542362
0.00011557148
0.00011572157
0.00011587075
0.00011601878
0.00011616243
0.00011606994
0.00011593626
0.00011578823
0.00011562558
0.00011545113
0.00011526493
0.00011507008
0.00011486689
0.00011465865
0.00011444584
0.00011423189
0.00011401738
0.00011380577
0.00011359765
0.00011339645
0.0001132027
0.00011301971
0.00011284787
0.00011269029
0.00011254714
0.00011242127
0.00011231255
0.00011222313
0.00011215392
0.00011210454
0.00011207684
0.00011206963
0.00011208423
0.00011211889
0.00011217437
0.0001122483
0.00011234085
0.00011244916
0.00011257228
0.0001127077
0.00011285307
0.00011290703
0.00011281747
0.00011275064
0.0001127069
0.00011268637
0.00011268868
0.00011271306
0.00011275822
0.0001128226
0.00011290399
0.00011299991
0.0001131075
0.00011322359
0.00011334474
0.00011346746
0.00011358801
0.00011370278
0.00011380827
0.00011390119
0.00011397861
0.00011403796
0.0001140176
0.00011395733
0.00011390725
0.00011387138
0.00011385348
0.00011385702
0.00011385985
0.00011375929
0.0001136444
0.00011352047
0.00011339139
0.00011326121
0.0001131342
0.00011301435
0.00011290575
0.0001128121
0.00011273678
0.00011268276
0.00011265248
0.00011264789
0.00011267036
0.00011272071
0.0001127992
0.00011290556
0.00011303919
0.00011319884
0.00011338308
0.00011359012
0.00011381797
0.00011406447
0.00011432735
0.00011460441
0.00011489328
0.00011519176
0.0001154977
0.00011580909
0.00011612399
0.00011644076
0.0001167577
0.0001170734
0.00011738657
0.00011769607
0.00011800086
0.00011830018
0.00011859317
0.0001188792
0.00011915772
0.00011942824
0.00011969032
0.0001199437
0.00012018795
0.00012042284
0.00012064809
0.00012086348
0.00012106872
0.00012127005
0.00012145262
0.00012159997
0.00011491226
0.00011503538
0.00011518686
0.00011534457
0.00011550541
0.00011566912
0.00011583244
0.00011599499
0.00011615341
0.00011608777
0.00011594392
0.00011578484
0.00011561035
0.0001154234
0.00011522417
0.00011501588
0.00011479899
0.00011457693
0.00011435032
0.00011412273
0.00011389488
0.00011367037
0.00011344992
0.00011323709
0.00011303253
0.00011283968
0.00011265903
0.0001124938
0.00011234427
0.00011221336
0.00011210103
0.0001120095
0.00011193974
0.00011189141
0.0001118664
0.00011186352
0.0001118841
0.00011192634
0.00011199097
0.00011207554
0.00011218013
0.00011230171
0.00011243921
0.00011258991
0.00011275123
0.00011276374
0.0001126654
0.0001125918
0.00011254343
0.00011252048
0.00011252264
0.00011254911
0.00011259855
0.00011266929
0.00011275894
0.00011286483
0.0001129838
0.00011311238
0.00011324673
0.00011338299
0.00011351696
0.0001136446
0.00011376196
0.00011386531
0.00011395129
0.000114017
0.00011395917
0.00011388509
0.00011382216
0.00011377483
0.0001137473
0.00011374337
0.00011376653
0.000113688
0.00011355499
0.00011341127
0.00011326113
0.00011310911
0.00011295998
0.0001128182
0.0001126883
0.00011257443
0.00011248033
0.0001124093
0.00011236403
0.00011234666
0.0001123587
0.000112401
0.00011247383
0.00011257685
0.00011270935
0.00011286995
0.00011305701
0.00011326856
0.0001135024
0.00011375616
0.00011402734
0.00011431357
0.00011461228
0.00011492111
0.00011523776
0.00011556009
0.00011588606
0.00011621393
0.00011654195
0.00011686866
0.00011719274
0.00011751302
0.00011782846
0.0001181383
0.00011844169
0.00011873802
0.00011902677
0.00011930747
0.00011957972
0.0001198433
0.00012009781
0.00012034306
0.00012057883
0.00012080493
0.00012102115
0.0001212342
0.00012142835
0.00012158769
0.00011479198
0.00011492621
0.00011508969
0.00011526031
0.00011543486
0.00011561296
0.00011579122
0.00011596913
0.00011614316
0.0001161106
0.00011595616
0.00011578549
0.00011559857
0.00011539844
0.00011518543
0.00011496292
0.00011473148
0.00011449472
0.00011425341
0.00011401125
0.00011376911
0.00011353075
0.00011329703
0.00011307163
0.00011285536
0.00011265176
0.00011246146
0.00011228779
0.00011213113
0.0001119945
0.00011187797
0.00011178382
0.00011171308
0.00011166548
0.00011164295
0.00011164432
0.00011167091
0.00011172092
0.00011179502
0.00011189071
0.00011200794
0.00011214357
0.00011229636
0.00011246337
0.00011264181
0.00011260737
0.00011249973
0.00011241901
0.00011236584
0.00011234052
0.00011234277
0.00011237179
0.00011242618
0.00011250415
0.00011260315
0.00011272025
0.00011285201
0.0001129946
0.00011314378
0.00011329524
0.00011344431
0.00011358646
0.00011371721
0.00011383237
0.00011392812
0.00011398648
0.0001138941
0.00011380432
0.00011372671
0.0001136662
0.00011362745
0.00011361468
0.00011363174
0.00011361858
0.00011346586
0.00011330057
0.00011312754
0.00011295183
0.00011277874
0.00011261327
0.00011246047
0.00011232495
0.00011221086
0.00011212185
0.00011206088
0.0001120303
0.00011203172
0.00011206606
0.00011213354
0.00011223376
0.00011236585
0.00011252824
0.0001127191
0.00011293623
0.00011317716
0.00011343931
0.00011371993
0.00011401642
0.00011432602
0.00011464617
0.00011497444
0.00011530853
0.0001156463
0.00011598592
0.00011632558
0.00011666377
0.00011699913
0.0001173305
0.00011765683
0.00011797736
0.00011829126
0.00011859797
0.00011889696
0.00011918784
0.00011947022
0.00011974393
0.00012000862
0.00012026415
0.00012051034
0.00012074706
0.00012097415
0.00012119879
0.0001214044
0.00012157556
0.00011466437
0.00011481033
0.0001149865
0.00011517076
0.0001153598
0.00011555312
0.0001157472
0.00011594136
0.00011613192
0.00011613926
0.00011597372
0.00011579089
0.00011559086
0.00011537682
0.00011514923
0.00011491162
0.00011466474
0.00011441233
0.00011415532
0.00011389759
0.00011364016
0.00011338693
0.00011313893
0.00011289998
0.00011267102
0.00011245574
0.00011225489
0.00011207193
0.00011190735
0.00011176429
0.00011164291
0.00011154558
0.00011147341
0.00011142621
0.00011140594
0.00011141146
0.00011144411
0.00011150209
0.00011158602
0.00011169333
0.00011182387
0.00011197439
0.00011214345
0.00011232792
0.00011252475
0.00011243737
0.00011231982
0.00011223158
0.00011217341
0.00011214573
0.00011214831
0.00011218035
0.0001122404
0.00011232655
0.00011243605
0.00011256572
0.00011271182
0.0001128701
0.00011303591
0.00011320444
0.00011337048
0.00011352895
0.00011367483
0.00011380337
0.00011391025
0.0001139375
0.00011382235
0.00011371476
0.00011362043
0.00011354483
0.00011349314
0.00011347002
0.00011347971
0.00011351364
0.0001133779
0.0001131891
0.00011299112
0.00011278962
0.00011259052
0.00011239942
0.00011222192
0.00011206316
0.00011192773
0.00011181966
0.00011174221
0.00011169793
0.00011168855
0.00011171501
0.00011177751
0.00011187551
0.00011200797
0.00011217312
0.00011236886
0.00011259272
0.00011284197
0.00011311373
0.00011340501
0.00011371294
0.00011403455
0.00011436708
0.00011470792
0.00011505464
0.00011540497
0.00011575702
0.00011610889
0.00011645903
0.00011680607
0.00011714883
0.00011748627
0.00011781766
0.00011814218
0.0001184593
0.00011876856