/*--------------------------------*- C++ -*----------------------------------*\
| =========                 |                                                 |
| \\      /  F ield         | foam-extend: Open Source CFD                    |
|  \\    /   O peration     | Version:     4.1                                |
|   \\  /    A nd           | Web:         http://www.foam-extend.org         |
|    \\/     M anipulation  |                                                 |
\*---------------------------------------------------------------------------*/
FoamFile
{
    version     2.0;
    format      ascii;
    class       volVectorField;
    location    "0.65";
    object      U;
}
// * * * * * * * * * * * * * * * * * * * * * * * * * * * * * * * * * * * * * //

dimensions      [0 1 -1 0 0 0 0];

internalField   nonuniform List<vector> 
16796
(
(138.29817 -0.042559555 0)
(138.33537 -0.054603324 0)
(138.38829 -0.060312799 0)
(138.45381 -0.065344928 0)
(138.53262 -0.070520199 0)
(138.6257 -0.076029706 0)
(138.73426 -0.08190155 0)
(138.85948 -0.088112402 0)
(139.00242 -0.094615741 0)
(139.16396 -0.1013545 0)
(139.34483 -0.10826254 0)
(139.54551 -0.11526736 0)
(139.76632 -0.12229382 0)
(140.00731 -0.12926373 0)
(140.26834 -0.13609809 0)
(140.54899 -0.14271782 0)
(140.84866 -0.1490452 0)
(141.16647 -0.15500461 0)
(141.50134 -0.16052387 0)
(141.85199 -0.16553499 0)
(142.2169 -0.1699755 0)
(142.59438 -0.17378913 0)
(142.98259 -0.17692706 0)
(143.37953 -0.17934857 0)
(143.78306 -0.18102199 0)
(144.19099 -0.18192524 0)
(144.60101 -0.18204651 0)
(145.01083 -0.18138451 0)
(145.41812 -0.17994881 0)
(145.82058 -0.17775988 0)
(146.216 -0.17484896 0)
(146.60223 -0.17125783 0)
(146.97727 -0.16703841 0)
(147.33927 -0.16225196 0)
(147.68657 -0.15696852 0)
(148.01771 -0.15126581 0)
(148.33147 -0.14522826 0)
(148.62691 -0.13894564 0)
(148.90332 -0.13251185 0)
(149.16032 -0.12602329 0)
(149.3978 -0.11957745 0)
(149.61595 -0.1132711 0)
(149.81525 -0.10719868 0)
(149.99649 -0.10145054 0)
(150.16072 -0.096111147 0)
(150.30922 -0.091257381 0)
(150.44355 -0.086957049 0)
(150.56545 -0.083267306 0)
(150.67681 -0.080233271 0)
(150.77968 -0.077886694 0)
(150.87618 -0.076245069 0)
(150.96848 -0.075311089 0)
(151.05874 -0.075071846 0)
(151.14907 -0.07549889 0)
(151.24146 -0.076548512 0)
(151.33778 -0.078162532 0)
(151.43968 -0.080269293 0)
(151.54859 -0.082784975 0)
(151.66564 -0.085615239 0)
(151.79168 -0.088657372 0)
(151.92722 -0.091802564 0)
(152.07243 -0.094938209 0)
(152.22712 -0.097950736 0)
(152.39075 -0.10072829 0)
(152.56242 -0.10316313 0)
(152.7409 -0.10515366 0)
(152.92466 -0.10660627 0)
(153.11188 -0.10743698 0)
(153.30049 -0.10757278 0)
(153.48823 -0.10695356 0)
(153.67269 -0.10553343 0)
(153.85136 -0.10328324 0)
(154.02167 -0.10019237 0)
(154.18108 -0.096268735 0)
(154.32711 -0.091540719 0)
(154.45741 -0.086060852 0)
(154.56983 -0.079895084 0)
(154.66245 -0.073107913 0)
(154.7336 -0.065770822 0)
(154.78186 -0.057972501 0)
(154.80635 -0.049773989 0)
(154.80597 -0.041282222 0)
(154.78017 -0.032689775 0)
(154.72898 -0.024166816 0)
(154.65282 -0.015846133 0)
(154.55246 -0.0078470238 0)
(154.429 -0.00027767481 0)
(154.28385 0.0067658895 0)
(154.11867 0.013201121 0)
(153.93536 0.018959931 0)
(153.73598 0.023989191 0)
(153.52273 0.028250796 0)
(153.2979 0.031721262 0)
(153.06386 0.034390943 0)
(152.82296 0.036262946 0)
(152.57754 0.037351803 0)
(152.3299 0.037681983 0)
(152.08225 0.037286303 0)
(151.83671 0.036204345 0)
(151.59528 0.034480913 0)
(151.35982 0.032164556 0)
(151.13206 0.029306243 0)
(150.9136 0.025958201 0)
(150.70587 0.0221729 0)
(150.51018 0.018002255 0)
(150.32768 0.013497025 0)
(150.1594 0.0087063609 0)
(150.00624 0.0036775903 0)
(149.86897 -0.0015438067 0)
(149.74825 -0.0069140222 0)
(149.64464 -0.012390548 0)
(149.5586 -0.017931095 0)
(149.49051 -0.023493398 0)
(149.44064 -0.029031875 0)
(149.4092 -0.034493257 0)
(149.39631 -0.039812863 0)
(149.40198 -0.04491574 0)
(149.42591 -0.04973114 0)
(149.46779 -0.054099456 0)
(149.52774 -0.057675711 0)
(149.60642 -0.060100305 0)
(149.7018 -0.061706886 0)
(149.79803 -0.06179041 0)
(149.87507 -0.050361632 0)
(158.11573 0.0100158 0)
(158.01901 -0.0059536894 0)
(157.94562 -0.017576705 0)
(157.87903 -0.029435143 0)
(157.82282 -0.042358458 0)
(157.77838 -0.056572424 0)
(157.7471 -0.072055576 0)
(157.73009 -0.088699824 0)
(157.72836 -0.10636312 0)
(157.74283 -0.12487462 0)
(157.77421 -0.14404697 0)
(157.82306 -0.16367871 0)
(157.88976 -0.18355466 0)
(157.97449 -0.20345094 0)
(158.07722 -0.22313768 0)
(158.19771 -0.24238151 0)
(158.3355 -0.2609496 0)
(158.48991 -0.27861213 0)
(158.66007 -0.29514649 0)
(158.84486 -0.3103399 0)
(159.04301 -0.32399338 0)
(159.25303 -0.33592433 0)
(159.47328 -0.34597019 0)
(159.70196 -0.35399069 0)
(159.93714 -0.35987098 0)
(160.17679 -0.36352347 0)
(160.4188 -0.36489014 0)
(160.66101 -0.36394383 0)
(160.90123 -0.36068957 0)
(161.13728 -0.35516516 0)
(161.36704 -0.3474413 0)
(161.58846 -0.33762146 0)
(161.79956 -0.32584103 0)
(161.99855 -0.31226563 0)
(162.18377 -0.2970897 0)
(162.35377 -0.28053365 0)
(162.50731 -0.2628413 0)
(162.6434 -0.24427598 0)
(162.7613 -0.22511711 0)
(162.86056 -0.20565525 0)
(162.94101 -0.18618795 0)
(163.00276 -0.16701397 0)
(163.04624 -0.14842846 0)
(163.07213 -0.13071699 0)
(163.08143 -0.11414995 0)
(163.07536 -0.098976726 0)
(163.05539 -0.08542085 0)
(163.02321 -0.073674849 0)
(162.98069 -0.063895309 0)
(162.92982 -0.056197799 0)
(162.87271 -0.050654233 0)
(162.8115 -0.047289395 0)
(162.74836 -0.046077504 0)
(162.6854 -0.046943713 0)
(162.62463 -0.049764763 0)
(162.56794 -0.054370009 0)
(162.517 -0.060544611 0)
(162.47327 -0.068034005 0)
(162.43791 -0.076547904 0)
(162.4118 -0.085767057 0)
(162.39547 -0.095350771 0)
(162.38908 -0.10494352 0)
(162.39245 -0.11418349 0)
(162.40501 -0.12271095 0)
(162.42582 -0.13017709 0)
(162.45361 -0.13625264 0)
(162.48676 -0.14063596 0)
(162.52336 -0.14306041 0)
(162.56126 -0.14330089 0)
(162.59809 -0.14117937 0)
(162.6313 -0.13656965 0)
(162.65829 -0.12939956 0)
(162.67639 -0.11965508 0)
(162.68295 -0.10738147 0)
(162.67542 -0.092681878 0)
(162.65137 -0.07571629 0)
(162.60855 -0.056689068 0)
(162.54495 -0.035848601 0)
(162.45887 -0.013480244 0)
(162.34894 0.010104596 0)
(162.21399 0.034602699 0)
(162.05378 0.059676946 0)
(161.86826 0.084918081 0)
(161.65752 0.10992466 0)
(161.422 0.13433178 0)
(161.16244 0.1578014 0)
(160.87991 0.18002457 0)
(160.57577 0.20072581 0)
(160.2516 0.21966705 0)
(159.90923 0.23665048 0)
(159.55062 0.25152003 0)
(159.1779 0.26416162 0)
(158.79326 0.27450213 0)
(158.39896 0.28250733 0)
(157.99727 0.28817891 0)
(157.59044 0.29155084 0)
(157.18069 0.29268522 0)
(156.77014 0.29166788 0)
(156.36084 0.28860389 0)
(155.95472 0.28361311 0)
(155.5536 0.276826 0)
(155.15916 0.26837976 0)
(154.77295 0.25841477 0)
(154.39639 0.24707164 0)
(154.03074 0.23448856 0)
(153.67717 0.22079933 0)
(153.33669 0.20613169 0)
(153.0102 0.19060622 0)
(152.69849 0.17433567 0)
(152.40225 0.1574247 0)
(152.12206 0.13997003 0)
(151.85843 0.12206143 0)
(151.61176 0.10378268 0)
(151.38241 0.085214617 0)
(151.17064 0.066441263 0)
(150.97666 0.047555375 0)
(150.80057 0.028655714 0)
(150.64246 0.009859619 0)
(150.5022 -0.0085811596 0)
(150.38004 -0.026112827 0)
(150.27626 -0.042311562 0)
(150.18884 -0.058378772 0)
(150.10892 -0.07259799 0)
(150.03452 -0.066845759 0)
(159.71857 0.060266257 0)
(159.6463 0.046682546 0)
(159.60136 0.030457328 0)
(159.56499 0.012236596 0)
(159.54006 -0.008012786 0)
(159.52734 -0.030319187 0)
(159.52747 -0.054580565 0)
(159.5411 -0.080612244 0)
(159.56873 -0.10818522 0)
(159.61066 -0.13703272 0)
(159.66713 -0.16686204 0)
(159.73816 -0.19735818 0)
(159.82366 -0.22818683 0)
(159.92335 -0.25899944 0)
(160.03682 -0.28943841 0)
(160.16346 -0.31914064 0)
(160.30256 -0.34774364 0)
(160.45319 -0.37488935 0)
(160.61433 -0.40023051 0)
(160.78478 -0.4234347 0)
(160.96324 -0.4441906 0)
(161.14826 -0.46221203 0)
(161.33831 -0.47724374 0)
(161.53176 -0.48906516 0)
(161.7269 -0.49749539 0)
(161.92199 -0.50239635 0)
(162.11524 -0.50367657 0)
(162.30486 -0.50129347 0)
(162.48907 -0.49525562 0)
(162.66613 -0.48562393 0)
(162.83437 -0.472512 0)
(162.99222 -0.45608611 0)
(163.13821 -0.43656378 0)
(163.27102 -0.41421162 0)
(163.38949 -0.3893428 0)
(163.49266 -0.36231264 0)
(163.57974 -0.33351458 0)
(163.65021 -0.30337383 0)
(163.70375 -0.27234196 0)
(163.74029 -0.24088878 0)
(163.76004 -0.20949564 0)
(163.76342 -0.17864602 0)
(163.75114 -0.14881768 0)
(163.72412 -0.12047287 0)
(163.68354 -0.094049072 0)
(163.63077 -0.069949646 0)
(163.56739 -0.04853583 0)
(163.49512 -0.030117703 0)
(163.41583 -0.014947541 0)
(163.33148 -0.0032109513 0)
(163.24409 0.0049821433 0)
(163.15568 0.0095995509 0)
(163.06828 0.010686732 0)
(162.98379 0.0083673095 0)
(162.90405 0.0028504209 0)
(162.83069 -0.0055776377 0)
(162.76516 -0.016557882 0)
(162.70867 -0.02966384 0)
(162.66215 -0.044410506 0)
(162.62622 -0.060264955 0)
(162.60119 -0.076658037 0)
(162.58701 -0.092995931 0)
(162.5833 -0.10867494 0)
(162.58932 -0.1230944 0)
(162.60399 -0.1356712 0)
(162.62589 -0.14585523 0)
(162.65332 -0.15314212 0)
(162.6843 -0.1570862 0)
(162.71663 -0.15731177 0)
(162.7479 -0.15352347 0)
(162.77558 -0.14551267 0)
(162.79704 -0.13316458 0)
(162.80965 -0.11646287 0)
(162.81078 -0.095490848 0)
(162.79791 -0.070426685 0)
(162.76864 -0.041536403 0)
(162.72079 -0.0091748274 0)
(162.6524 0.026223995 0)
(162.56181 0.064158453 0)
(162.44768 0.10408249 0)
(162.30898 0.14540573 0)
(162.14506 0.18752495 0)
(161.95562 0.229849 0)
(161.74073 0.27178136 0)
(161.50083 0.31273558 0)
(161.2367 0.35215875 0)
(160.94943 0.38954332 0)
(160.6404 0.42443616 0)
(160.31124 0.4564454 0)
(159.9638 0.48524531 0)
(159.60009 0.51057879 0)
(159.22225 0.53225779 0)
(158.83253 0.55016168 0)
(158.43322 0.5642338 0)
(158.0266 0.57447669 0)
(157.61497 0.58094598 0)
(157.20055 0.5837437 0)
(156.78549 0.58301092 0)
(156.37186 0.57892042 0)
(155.96159 0.57166935 0)
(155.55652 0.56147234 0)
(155.15833 0.54855504 0)
(154.76857 0.53314838 0)
(154.38866 0.5154836 0)
(154.01987 0.49578793 0)
(153.66335 0.47428119 0)
(153.32011 0.45117314 0)
(152.99105 0.42666146 0)
(152.67695 0.40093057 0)
(152.37849 0.37415099 0)
(152.09625 0.34647933 0)
(151.83073 0.31805882 0)
(151.58232 0.28902104 0)
(151.35137 0.25948813 0)
(151.13814 0.22957688 0)
(150.94285 0.19940052 0)
(150.76557 0.16906756 0)
(150.60633 0.13871881 0)
(150.46513 0.10863153 0)
(150.34228 0.079270284 0)
(150.23751 0.050786589 0)
(150.14909 0.02173336 0)
(150.07428 -0.0050009593 0)
(150.01996 -0.01752474 0)
(159.81716 0.085079798 0)
(159.74742 0.06522665 0)
(159.70629 0.042079347 0)
(159.67447 0.016134967 0)
(159.65461 -0.012348377 0)
(159.64747 -0.043201793 0)
(159.6537 -0.0762232 0)
(159.67377 -0.11115207 0)
(159.70804 -0.1476798 0)
(159.75671 -0.18546077 0)
(159.81984 -0.22411648 0)
(159.89734 -0.26324241 0)
(159.98897 -0.30241634 0)
(160.09433 -0.34120098 0)
(160.21289 -0.3791518 0)
(160.34393 -0.41582084 0)
(160.48664 -0.45076413 0)
(160.64003 -0.48354602 0)
(160.80299 -0.51374675 0)
(160.9743 -0.54096704 0)
(161.1526 -0.56483566 0)
(161.33647 -0.58501417 0)
(161.52438 -0.60120402 0)
(161.71472 -0.61315105 0)
(161.90586 -0.62065167 0)
(162.09609 -0.62355679 0)
(162.28372 -0.62177657 0)
(162.46704 -0.6152833 0)
(162.64439 -0.60411432 0)
(162.81411 -0.58837357 0)
(162.97466 -0.56823207 0)
(163.12456 -0.54392804 0)
(163.26243 -0.51576489 0)
(163.38707 -0.48410874 0)
(163.49739 -0.44938508 0)
(163.5925 -0.41207292 0)
(163.6717 -0.37269975 0)
(163.73449 -0.33183306 0)
(163.7806 -0.29007327 0)
(163.81001 -0.24804307 0)
(163.82291 -0.20637847 0)
(163.81977 -0.16571639 0)
(163.80126 -0.12668427 0)
(163.76833 -0.089886967 0)
(163.72213 -0.055894499 0)
(163.66403 -0.025228843 0)
(163.59558 0.0016457168 0)
(163.51852 0.024332839 0)
(163.43471 0.042516443 0)
(163.3461 0.055973564 0)
(163.25472 0.064578776 0)
(163.16262 0.068303272 0)
(163.07181 0.067234876 0)
(162.98424 0.061574501 0)
(162.90174 0.051624876 0)
(162.82598 0.037795671 0)
(162.75843 0.020595117 0)
(162.70031 0.00061964452 0)
(162.65258 -0.021456579 0)
(162.61587 -0.04489576 0)
(162.59051 -0.068910639 0)
(162.57645 -0.092682669 0)
(162.5733 -0.11537929 0)
(162.58031 -0.13617564 0)
(162.59637 -0.15427443 0)
(162.62005 -0.16892344 0)
(162.64961 -0.17943501 0)
(162.68302 -0.18520188 0)
(162.71801 -0.18571299 0)
(162.75213 -0.18056512 0)
(162.78277 -0.1694737 0)
(162.80724 -0.15228917 0)
(162.82283 -0.1289966 0)
(162.82686 -0.099713878 0)
(162.81671 -0.06469227 0)
(162.78994 -0.024311387 0)
(162.74429 0.020930792 0)
(162.67775 0.070432393 0)
(162.58862 0.12350337 0)
(162.47549 0.17937995 0)
(162.33733 0.23723604 0)
(162.17348 0.29621452 0)
(161.98364 0.35545883 0)
(161.7679 0.41412222 0)
(161.52672 0.4713837 0)
(161.26092 0.52646899 0)
(160.97161 0.5786672 0)
(160.66023 0.6273439 0)
(160.32847 0.6719511 0)
(159.97822 0.71203401 0)
(159.61155 0.74723453 0)
(159.23067 0.77729185 0)
(158.83787 0.80203991 0)
(158.43548 0.82140261 0)
(158.02584 0.83538691 0)
(157.61128 0.84407423 0)
(157.19406 0.84761093 0)
(156.77637 0.84619795 0)
(156.36027 0.84008048 0)
(155.94774 0.82953764 0)
(155.5406 0.81487283 0)
(155.14056 0.79640472 0)
(154.74915 0.77445927 0)
(154.3678 0.74936281 0)
(153.99777 0.7214362 0)
(153.64021 0.69099021 0)
(153.2961 0.65832194 0)
(152.96635 0.6237124 0)
(152.65172 0.58742511 0)
(152.35288 0.54970566 0)
(152.07039 0.5107823 0)
(151.80475 0.4708676 0)
(151.55634 0.43016127 0)
(151.32551 0.38885552 0)
(151.11252 0.34714091 0)
(150.91757 0.30520952 0)
(150.74076 0.26326382 0)
(150.58217 0.22156486 0)
(150.44191 0.18051576 0)
(150.32019 0.14063529 0)
(150.21646 0.10220146 0)
(150.12951 0.064494172 0)
(150.05966 0.032036139 0)
(150.0146 0.010118703 0)
(159.82324 0.13237747 0)
(159.74965 0.10653265 0)
(159.70634 0.076727903 0)
(159.67267 0.043269414 0)
(159.65122 0.0065177518 0)
(159.64274 -0.033219398 0)
(159.6479 -0.075617237 0)
(159.66722 -0.1203081 0)
(159.70105 -0.16687802 0)
(159.7496 -0.21486664 0)
(159.81293 -0.26378535 0)
(159.89094 -0.31311735 0)
(159.98338 -0.3623271 0)
(160.08985 -0.41086525 0)
(160.20978 -0.45817678 0)
(160.34245 -0.50370597 0)
(160.48702 -0.54690526 0)
(160.64247 -0.58724031 0)
(160.80768 -0.62419915 0)
(160.98139 -0.65729745 0)
(161.16223 -0.68608745 0)
(161.34874 -0.71016331 0)
(161.53936 -0.72916942 0)
(161.73248 -0.74280551 0)
(161.92641 -0.75083384 0)
(162.11945 -0.75308365 0)
(162.30987 -0.74945677 0)
(162.49592 -0.73993105 0)
(162.67593 -0.72456373 0)
(162.84821 -0.70349355 0)
(163.01118 -0.67694132 0)
(163.16334 -0.64521043 0)
(163.30328 -0.60868445 0)
(163.42976 -0.56782465 0)
(163.54166 -0.52316608 0)
(163.63806 -0.47531082 0)
(163.71823 -0.42492206 0)
(163.78164 -0.37271391 0)
(163.82799 -0.31944296 0)
(163.85725 -0.26589511 0)
(163.86958 -0.2128746 0)
(163.86545 -0.16118841 0)
(163.84554 -0.11163324 0)
(163.81079 -0.064978895 0)
(163.76239 -0.021951877 0)
(163.70172 0.016783325 0)
(163.63039 0.050630928 0)
(163.55016 0.079079084 0)
(163.46297 0.10172552 0)
(163.37083 0.1182801 0)
(163.27584 0.12857598 0)
(163.18012 0.13259435 0)
(163.08577 0.13044738 0)
(162.99481 0.12238784 0)
(162.90915 0.10881227 0)
(162.83055 0.090250338 0)
(162.76054 0.067359082 0)
(162.70043 0.040912017 0)
(162.6512 0.011782547 0)
(162.61356 -0.019072448 0)
(162.58785 -0.050632139 0)
(162.57405 -0.081836288 0)
(162.57176 -0.11160599 0)
(162.58024 -0.13886889 0)
(162.59835 -0.16258758 0)
(162.62461 -0.18178738 0)
(162.65723 -0.19557408 0)
(162.69411 -0.20316198 0)
(162.7329 -0.20388997 0)
(162.77107 -0.19723526 0)
(162.8059 -0.18283809 0)
(162.83463 -0.1605129 0)
(162.85442 -0.13024485 0)
(162.86249 -0.092191202 0)
(162.85615 -0.046684822 0)
(162.83285 0.0057772778 0)
(162.79025 0.064545873 0)
(162.72627 0.12883542 0)
(162.63914 0.19774471 0)
(162.52743 0.27027965 0)
(162.39007 0.34537529 0)
(162.22638 0.42192606 0)
(162.03606 0.49881648 0)
(161.81923 0.57494456 0)
(161.57638 0.64924586 0)
(161.30836 0.72071766 0)
(161.01636 0.78843996 0)
(160.70187 0.85159249 0)
(160.36664 0.90946774 0)
(160.01265 0.96147962 0)
(159.64204 1.007168 0)
(159.25709 1.046199 0)
(158.86016 1.0783622 0)
(158.45366 1.1035632 0)
(158.03998 1.1218156 0)
(157.62151 1.1332285 0)
(157.20054 1.1379949 0)
(156.77929 1.1363775 0)
(156.35988 1.1286955 0)
(155.94429 1.1153108 0)
(155.53435 1.0966157 0)
(155.13177 1.0730211 0)
(154.73811 1.0449457 0)
(154.35476 1.0128078 0)
(153.983 0.97701685 0)
(153.62393 0.93796786 0)
(153.27856 0.89603661 0)
(152.94776 0.85157632 0)
(152.63227 0.80491562 0)
(152.33274 0.75635782 0)
(152.04974 0.70618115 0)
(151.78372 0.65464054 0)
(151.53509 0.60197084 0)
(151.30416 0.54839184 0)
(151.0912 0.49411395 0)
(150.89643 0.43934403 0)
(150.71997 0.38430035 0)
(150.56196 0.32925906 0)
(150.42259 0.27460306 0)
(150.30206 0.22075955 0)
(150.19985 0.16804689 0)
(150.11558 0.11611493 0)
(150.0509 0.070276029 0)
(150.01191 0.032238186 0)
(159.82716 0.16651187 0)
(159.74967 0.13385627 0)
(159.70352 0.096742646 0)
(159.66718 0.055389706 0)
(159.64332 0.010219352 0)
(159.63268 -0.038361934 0)
(159.63596 -0.08992603 0)
(159.65369 -0.14400473 0)
(159.68627 -0.20008796 0)
(159.73392 -0.25762939 0)
(159.79673 -0.31604458 0)
(159.87461 -0.37472167 0)
(159.96733 -0.43302916 0)
(160.07448 -0.49032105 0)
(160.1955 -0.54594712 0)
(160.32967 -0.59925818 0)
(160.47613 -0.64961666 0)
(160.63386 -0.69640227 0)
(160.80172 -0.73902254 0)
(160.97842 -0.77691879 0)
(161.16257 -0.80957633 0)
(161.35268 -0.83653058 0)
(161.54714 -0.85737645 0)
(161.74432 -0.87177428 0)
(161.94247 -0.87945797 0)
(162.13984 -0.88024026 0)
(162.33466 -0.87401909 0)
(162.52513 -0.86078171 0)
(162.7095 -0.84060873 0)
(162.88605 -0.81367664 0)
(163.05313 -0.78025873 0)
(163.20917 -0.74072579 0)
(163.35272 -0.69554358 0)
(163.48246 -0.64527011 0)
(163.59724 -0.59055125 0)
(163.69609 -0.53211288 0)
(163.77821 -0.47075408 0)
(163.84305 -0.40733517 0)
(163.89029 -0.3427677 0)
(163.91986 -0.27799879 0)
(163.93192 -0.21399795 0)
(163.92692 -0.1517384 0)
(163.90556 -0.092181213 0)
(163.86882 -0.036256101 0)
(163.81789 0.015164188 0)
(163.75421 0.061276983 0)
(163.67944 0.10135859 0)
(163.59543 0.13479537 0)
(163.50417 0.16110573 0)
(163.40777 0.17993552 0)
(163.30841 0.19110127 0)
(163.20832 0.1945758 0)
(163.10969 0.19050225 0)
(163.01464 0.17919929 0)
(162.92519 0.16115496 0)
(162.84319 0.13702405 0)
(162.77027 0.10761769 0)
(162.70779 0.073888933 0)
(162.65685 0.036915112 0)
(162.61817 -0.0021235647 0)
(162.59215 -0.041969127 0)
(162.57879 -0.081313556 0)
(162.5777 -0.11882937 0)
(162.58812 -0.15319665 0)
(162.60889 -0.18313439 0)
(162.63848 -0.20743929 0)
(162.67501 -0.22501466 0)
(162.71632 -0.23489098 0)
(162.75997 -0.2362501 0)
(162.80328 -0.2284478 0)
(162.84347 -0.21104449 0)
(162.87761 -0.18380904 0)
(162.90275 -0.14672097 0)
(162.91599 -0.099981716 0)
(162.91449 -0.044007092 0)
(162.89561 0.020583263 0)
(162.8569 0.092980248 0)
(162.7962 0.17220608 0)
(162.71165 0.25713934 0)
(162.60177 0.34654328 0)
(162.46545 0.43909647 0)
(162.30199 0.53342816 0)
(162.11111 0.6281532 0)
(161.89294 0.7219043 0)
(161.64802 0.81336316 0)
(161.37724 0.90128979 0)
(161.08188 0.98454821 0)
(160.76351 1.0621276 0)
(160.42396 1.1331581 0)
(160.06531 1.196922 0)
(159.68979 1.2528584 0)
(159.29979 1.3005641 0)
(158.89774 1.339789 0)
(158.48614 1.3704276 0)
(158.06746 1.3925073 0)
(157.64414 1.4061742 0)
(157.21856 1.4116772 0)
(156.79296 1.4093508 0)
(156.36949 1.3995983 0)
(155.95017 1.3828751 0)
(155.53684 1.3596726 0)
(155.13122 1.3305043 0)
(154.73486 1.2958927 0)
(154.34915 1.2563582 0)
(153.97535 1.21241 0)
(153.61456 1.1645386 0)
(153.26775 1.1132104 0)
(152.93577 1.0588634 0)
(152.61935 1.0019049 0)
(152.31912 0.9427108 0)
(152.03561 0.88162536 0)
(151.76926 0.81896336 0)
(151.52046 0.75501308 0)
(151.2895 0.69004089 0)
(151.07665 0.62429607 0)
(150.8821 0.55801694 0)
(150.706 0.49144643 0)
(150.54852 0.42486659 0)
(150.40988 0.35861139 0)
(150.29023 0.29299813 0)
(150.18919 0.22830039 0)
(150.10705 0.16396268 0)
(150.04596 0.1051139 0)
(150.01051 0.051111091 0)
(159.83781 0.21444096 0)
(159.75496 0.17522685 0)
(159.70514 0.13083757 0)
(159.66538 0.0814806 0)
(159.63841 0.027639399 0)
(159.62498 -0.030190626 0)
(159.62582 -0.091480907 0)
(159.6415 -0.15565952 0)
(159.67245 -0.22210933 0)
(159.71891 -0.29016836 0)
(159.78101 -0.35913793 0)
(159.85866 -0.42829042 0)
(159.95166 -0.49687819 0)
(160.0596 -0.56414034 0)
(160.18192 -0.62931384 0)
(160.31791 -0.69163974 0)
(160.46668 -0.75037514 0)
(160.62721 -0.80479959 0)
(160.79833 -0.85422701 0)
(160.97872 -0.89801234 0)
(161.16696 -0.93556304 0)
(161.36152 -0.96634578 0)
(161.56075 -0.98989713 0)
(161.76295 -1.00583 0)
(161.96634 -1.0138429 0)
(162.1691 -1.0137258 0)
(162.36938 -1.0053676 0)
(162.56533 -0.9887604 0)
(162.75513 -0.96400482 0)
(162.93698 -0.93131263 0)
(163.10915 -0.89100811 0)
(163.27001 -0.84352928 0)
(163.41804 -0.78942512 0)
(163.55185 -0.72935276 0)
(163.67021 -0.66407288 0)
(163.77209 -0.59444074 0)
(163.85665 -0.52139868 0)
(163.92329 -0.44596235 0)
(163.97165 -0.36920925 0)
(164.00161 -0.29226048 0)
(164.01336 -0.21626538 0)
(164.00732 -0.14237935 0)
(163.98421 -0.071745624 0)
(163.94502 -0.0054715174 0)
(163.89099 0.055406731 0)
(163.82362 0.10992378 0)
(163.74464 0.15721006 0)
(163.65598 0.19653914 0)
(163.55971 0.2273193 0)
(163.45806 0.24914652 0)
(163.35332 0.26178919 0)
(163.24784 0.26521506 0)
(163.14393 0.25959561 0)
(163.04385 0.24530986 0)
(162.94973 0.22294274 0)
(162.86354 0.19327848 0)
(162.78703 0.15728933 0)
(162.72165 0.11611883 0)
(162.66858 0.071060197 0)
(162.62863 0.023530712 0)
(162.60224 -0.024958075 0)
(162.58942 -0.072833072 0)
(162.58982 -0.11849686 0)
(162.60263 -0.16036534 0)
(162.62667 -0.19689745 0)
(162.66033 -0.2266442 0)
(162.70167 -0.24828343 0)
(162.74841 -0.26065188 0)
(162.79799 -0.26276277 0)
(162.84762 -0.25384682 0)
(162.89435 -0.23337691 0)
(162.9351 -0.20107484 0)
(162.96678 -0.15692001 0)
(162.98632 -0.10115674 0)
(162.99074 -0.034287421 0)
(162.97726 0.04293935 0)
(162.94329 0.12954687 0)
(162.88656 0.22435505 0)
(162.80514 0.32601051 0)
(162.69747 0.43302135 0)
(162.56239 0.54379511 0)
(162.3992 0.65668032 0)
(162.2076 0.77000809 0)
(161.98777 0.8821322 0)
(161.74028 0.99146743 0)
(161.46612 1.0965248 0)
(161.16663 1.1959426 0)
(160.84349 1.2885115 0)
(160.49864 1.3731937 0)
(160.13429 1.4491358 0)
(159.75277 1.5156749 0)
(159.35658 1.5723383 0)
(158.94828 1.6188381 0)
(158.53046 1.6550602 0)
(158.10568 1.68105 0)
(157.67647 1.6969944 0)
(157.24526 1.7032025 0)
(156.81436 1.7000847 0)
(156.38597 1.6881321 0)
(155.9621 1.667896 0)
(155.54465 1.6399691 0)
(155.13533 1.6049683 0)
(154.73568 1.563519 0)
(154.34709 1.5162424 0)
(153.97081 1.4637441 0)
(153.60791 1.4066062 0)
(153.25934 1.3453799 0)
(152.92593 1.2805818 0)
(152.60838 1.2126908 0)
(152.30729 1.1421474 0)
(152.02316 1.0693541 0)
(151.75642 0.99467799 0)
(151.50743 0.91845448 0)
(151.27647 0.84099228 0)
(151.06379 0.76257929 0)
(150.86959 0.68349099 0)
(150.69402 0.60400667 0)
(150.53727 0.52443459 0)
(150.39956 0.44510839 0)
(150.28101 0.36634283 0)
(150.18138 0.28846947 0)
(150.10129 0.21067116 0)
(150.04289 0.13794511 0)
(150.00971 0.068233625 0)
(159.85253 0.25690031 0)
(159.76423 0.21073463 0)
(159.71043 0.15876151 0)
(159.66691 0.10117988 0)
(159.63652 0.03853389 0)
(159.62004 -0.028599299 0)
(159.61823 -0.099596688 0)
(159.63171 -0.17378832 0)
(159.66092 -0.25045446 0)
(159.70616 -0.32883486 0)
(159.76756 -0.40812782 0)
(159.84508 -0.48749984 0)
(159.9385 -0.56609698 0)
(160.04744 -0.6430507 0)
(160.17135 -0.71749153 0)
(160.30949 -0.78855562 0)
(160.46098 -0.85539843 0)
(160.62477 -0.91720191 0)
(160.79966 -0.9731879 0)
(160.98433 -1.0226256 0)
(161.1773 -1.0648446 0)
(161.37698 -1.0992421 0)
(161.5817 -1.1252951 0)
(161.78967 -1.1425678 0)
(161.99908 -1.1507216 0)
(162.20801 -1.1495223 0)
(162.41456 -1.138848 0)
(162.6168 -1.1186947 0)
(162.81281 -1.0891818 0)
(163.00072 -1.0505558 0)
(163.17872 -1.003192 0)
(163.34509 -0.94759576 0)
(163.49822 -0.88440022 0)
(163.63665 -0.81436292 0)
(163.75908 -0.73836104 0)
(163.8644 -0.65738132 0)
(163.95171 -0.57251184 0)
(164.02035 -0.48492627 0)
(164.06992 -0.39587101 0)
(164.10028 -0.30664417 0)
(164.11158 -0.21857808 0)
(164.10425 -0.13301316 0)
(164.07903 -0.051279159 0)
(164.03693 0.025340906 0)
(163.97922 0.095637639 0)
(163.9075 0.15848025 0)
(163.82355 0.21285938 0)
(163.72941 0.25792795 0)
(163.62726 0.29299117 0)
(163.51944 0.31756786 0)
(163.40838 0.33138678 0)
(163.29657 0.33440495 0)
(163.18646 0.32681999 0)
(163.08047 0.30907117 0)
(162.98087 0.28184046 0)
(162.88977 0.24604471 0)
(162.80904 0.20282202 0)
(162.74028 0.15351301 0)
(162.68474 0.099635481 0)
(162.64331 0.042854226 0)
(162.6165 -0.015054054 0)
(162.60437 -0.072239763 0)
(162.60656 -0.12682132 0)
(162.62225 -0.17693428 0)
(162.65019 -0.22076418 0)
(162.68872 -0.25660368 0)
(162.7358 -0.28289413 0)
(162.78904 -0.29826173 0)
(162.84571 -0.30154516 0)
(162.90288 -0.29183772 0)
(162.95742 -0.26851341 0)
(163.00608 -0.23124204 0)
(163.04556 -0.1800023 0)
(163.07263 -0.11508476 0)
(163.08412 -0.037084244 0)
(163.07708 0.053113061 0)
(163.04878 0.15435132 0)
(162.99682 0.2652343 0)
(162.91915 0.38416113 0)
(162.81412 0.50936787 0)
(162.68055 0.63897282 0)
(162.51768 0.77102542 0)
(162.32525 0.90355552 0)
(162.10346 1.0346216 0)
(161.85294 1.1623566 0)
(161.57477 1.2850098 0)
(161.2704 1.4009835 0)
(160.94162 1.5088626 0)
(160.59052 1.6074373 0)
(160.21943 1.6957177 0)
(159.83083 1.7729403 0)
(159.42737 1.838568 0)
(159.01171 1.892282 0)
(158.58659 1.9339686 0)
(158.15467 1.9637017 0)
(157.71856 1.9817209 0)
(157.28079 1.9884077 0)
(156.84372 1.984261 0)
(156.40959 1.9698721 0)
(155.98047 1.9459005 0)
(155.55825 1.9130516 0)
(155.14466 1.8720559 0)
(154.74123 1.8236518 0)
(154.34936 1.7685696 0)
(153.97024 1.7075189 0)
(153.60495 1.641179 0)
(153.25439 1.5701914 0)
(152.91936 1.4951541 0)
(152.60053 1.4166193 0)
(152.29846 1.3350917 0)
(152.01363 1.2510296 0)
(151.74644 1.1648465 0)
(151.4972 1.0769158 0)
(151.26619 0.98757493 0)
(151.05363 0.89713202 0)
(150.85972 0.80587456 0)
(150.6846 0.71408416 0)
(150.52849 0.6220536 0)
(150.39158 0.53007964 0)
(150.27403 0.43844831 0)
(150.17568 0.34749249 0)
(150.09731 0.2560753 0)
(150.04089 0.16928175 0)
(150.00921 0.084293324 0)
(159.87222 0.30863792 0)
(159.77733 0.25549413 0)
(159.71892 0.19578418 0)
(159.67103 0.12972483 0)
(159.63668 0.057928062 0)
(159.61668 -0.018946456 0)
(159.61184 -0.10017923 0)
(159.62279 -0.18499922 0)
(159.65004 -0.27257795 0)
(159.69392 -0.36203872 0)
(159.75457 -0.45246053 0)
(159.83198 -0.54288961 0)
(159.92596 -0.63235078 0)
(160.03611 -0.71985486 0)
(160.1619 -0.80441375 0)
(160.30258 -0.88504762 0)
(160.45726 -0.96080025 0)
(160.62486 -1.0307468 0)
(160.80416 -1.0940086 0)
(160.99378 -1.1497618 0)
(161.19221 -1.1972508 0)
(161.39783 -1.2357974 0)
(161.60887 -1.2648135 0)
(161.82352 -1.2838091 0)
(162.03985 -1.2924042 0)
(162.25589 -1.2903362 0)
(162.46965 -1.2774692 0)
(162.67911 -1.2538002 0)
(162.88226 -1.2194656 0)
(163.07714 -1.1747453 0)
(163.26184 -1.1200654 0)
(163.43455 -1.0559996 0)
(163.59355 -0.98326717 0)
(163.7373 -0.9027294 0)
(163.8644 -0.81538484 0)
(163.97366 -0.72235817 0)
(164.06413 -0.62489126 0)
(164.13506 -0.52432562 0)
(164.18601 -0.42208805 0)
(164.21681 -0.31966683 0)
(164.22757 -0.21859196 0)
(164.21873 -0.12040491 0)
(164.19102 -0.026639809 0)
(164.14551 0.061229597 0)
(164.08351 0.14179843 0)
(164.0067 0.21375318 0)
(163.91694 0.27593297 0)
(163.81638 0.32733529 0)
(163.70734 0.36717547 0)
(163.59229 0.39488206 0)
(163.47384 0.41013553 0)
(163.35461 0.41287878 0)
(163.23725 0.40333351 0)
(163.12433 0.38200241 0)
(163.01831 0.34966922 0)
(162.92146 0.30739072 0)
(162.8358 0.25648134 0)
(162.76306 0.19849147 0)
(162.70462 0.13517847 0)
(162.66147 0.068471667 0)
(162.63418 0.00043160696 0)
(162.62285 -0.066795141 0)
(162.62713 -0.13102457 0)
(162.64618 -0.19008831 0)
(162.6787 -0.24187865 0)
(162.72295 -0.28441306 0)
(162.77675 -0.31587768 0)
(162.83759 -0.33467063 0)
(162.90256 -0.33944444 0)
(162.96856 -0.32914371 0)
(163.03225 -0.30303644 0)
(163.09015 -0.26073924 0)
(163.13878 -0.20222784 0)
(163.17466 -0.12784041 0)
(163.19442 -0.038270285 0)
(163.19492 0.065449301 0)
(163.17325 0.18197067 0)
(163.12684 0.30966591 0)
(163.05353 0.44666873 0)
(162.95159 0.59092337 0)
(162.81974 0.74023772 0)
(162.65723 0.89234055 0)
(162.46379 1.0449393 0)
(162.23967 1.195777 0)
(161.98557 1.3426862 0)
(161.70268 1.483638 0)
(161.39257 1.6167851 0)
(161.05718 1.7404962 0)
(160.69875 1.853382 0)
(160.31977 1.9543123 0)
(159.92291 2.0424223 0)
(159.51095 2.1171122 0)
(159.08674 2.1780368 0)
(158.65312 2.2250894 0)
(158.2129 2.2583801 0)
(157.7688 2.2782099 0)
(157.32343 2.2850422 0)
(156.87924 2.2794737 0)
(156.4385 2.2622047 0)
(156.00334 2.2340112 0)
(155.57565 2.1957188 0)
(155.15718 2.1481785 0)
(154.74946 2.0922468 0)
(154.35384 2.028768 0)
(153.97152 1.9585598 0)
(153.60353 1.8824021 0)
(153.25075 1.8010291 0)
(152.91394 1.7151237 0)
(152.59371 1.625314 0)
(152.2906 1.5321728 0)
(152.00504 1.4362177 0)
(151.73739 1.3379146 0)
(151.48795 1.2376809 0)
(151.25696 1.1358911 0)
(151.04461 1.0328823 0)
(150.85108 0.92896364 0)
(150.67651 0.82442735 0)
(150.5211 0.71955919 0)
(150.38505 0.61463102 0)
(150.26849 0.50990249 0)
(150.17135 0.40566898 0)
(150.09443 0.30045082 0)
(150.0395 0.19954924 0)
(150.00887 0.099664436 0)
(159.89529 0.35948556 0)
(159.79335 0.29909881 0)
(159.72984 0.23140644 0)
(159.67714 0.15663674 0)
(159.63842 0.075471632 0)
(159.61453 -0.011346486 0)
(159.60635 -0.1030012 0)
(159.61454 -0.19862126 0)
(159.63966 -0.29726981 0)
(159.68207 -0.39796027 0)
(159.74195 -0.49965952 0)
(159.8193 -0.60129657 0)
(159.91395 -0.70177862 0)
(160.02553 -0.79999708 0)
(160.15348 -0.89484541 0)
(160.29706 -0.98522698 0)
(160.45536 -1.0700719 0)
(160.62728 -1.148346 0)
(160.81156 -1.2190668 0)
(161.00678 -1.2813132 0)
(161.21139 -1.3342407 0)
(161.42369 -1.3770909 0)
(161.64188 -1.4092059 0)
(161.86403 -1.4300374 0)
(162.08817 -1.4391595 0)
(162.31223 -1.4362773 0)
(162.53411 -1.4212371 0)
(162.75171 -1.3940339 0)