/*--------------------------------*- C++ -*----------------------------------*\
| =========                 |                                                 |
| \\      /  F ield         | foam-extend: Open Source CFD                    |
|  \\    /   O peration     | Version:     4.1                                |
|   \\  /    A nd           | Web:         http://www.foam-extend.org         |
|    \\/     M anipulation  |                                                 |
\*---------------------------------------------------------------------------*/
FoamFile
{
    version     2.0;
    format      ascii;
    class       volScalarField;
    location    "0.7";
    object      p;
}
// * * * * * * * * * * * * * * * * * * * * * * * * * * * * * * * * * * * * * //

dimensions      [0 2 -2 0 0 0 0];

internalField   nonuniform List<scalar> 
16126
(
0.00013951978
0.0007705558
0.0011178968
0.0016869666
0.0020862142
0.0026096707
0.0030380902
0.0035313716
0.0039724351
0.0044447385
0.004887588
0.0053434352
0.0057811258
0.0062218352
0.0066495802
0.0070746518
0.0074887375
0.0078966115
0.0082937874
0.0086822534
0.0090594043
0.0094258189
0.0097798004
0.010121208
0.010448776
0.010761993
0.011059792
0.01134148
0.011606091
0.011852858
0.012080895
0.01228945
0.012477782
0.012645222
0.012791583
0.012915952
0.013017463
0.013096095
0.013151637
0.013184123
0.013193754
0.013180979
0.013146499
0.013091325
0.013016787
0.012924586
0.012816814
0.012695989
0.012565077
0.012427521
0.012287252
0.012148707
0.01201683
0.011897068
0.011795361
0.011718112
0.011672164
0.011664744
0.011703413
0.011795995
0.011950504
0.012175043
0.012477719
0.012866518
0.013349209
0.013933204
0.01462545
0.015432286
0.016359339
0.017411381
0.018592246
0.019904689
0.021350356
0.022929653
0.024641776
0.026484603
0.028454819
0.030547798
0.032757871
0.035078132
0.037500913
0.040017329
0.042618216
0.045292718
0.048030828
0.0508176
0.053641165
0.05648172
0.059314958
0.062124243
0.064887652
0.067582133
0.070182564
0.072663829
0.075001965
0.077179201
0.079185954
0.081028895
0.082732068
0.084334415
0.085884676
0.087473413
0.089118017
0.090852119
0.092706815
0.09471996
0.096855941
0.099182737
0.10162314
0.10436021
0.10726088
0.11078189
0.11462779
0.11983153
0.12555918
0.13408179
0.14289648
0.15729615
0.16978772
0.19462364
0.20824611
0.25860376
0.25479475
0.42383082
0.00013562538
0.00077333987
0.0011187797
0.0016879125
0.0020876355
0.0026100992
0.0030392332
0.0035317167
0.0039732476
0.0044452585
0.0048884131
0.0053441601
0.0057820691
0.0062227903
0.0066507215
0.007075883
0.0074901595
0.0078981887
0.0082955856
0.0086842718
0.009061695
0.0094284029
0.009782728
0.010124518
0.010452523
0.010766231
0.011064589
0.011346907
0.011612232
0.0118598
0.012088738
0.012298286
0.012487663
0.012656195
0.012802991
0.012927805
0.013030474
0.013110397
0.013167425
0.013201543
0.013212967
0.013202146
0.01316979
0.013116917
0.013044862
0.012955332
0.012850419
0.012732641
0.012604959
0.012470808
0.012334107
0.012199275
0.01207123
0.011955391
0.011857661
0.0117844
0.011742401
0.011738835
0.011781202
0.01187726
0.012034951
0.012262308
0.012567363
0.012958033
0.013442019
0.014026672
0.014718884
0.015524953
0.016450474
0.017500202
0.018677967
0.019986542
0.021427599
0.023001592
0.024707779
0.026544115
0.028507376
0.030593043
0.032795558
0.035108164
0.037523292
0.040032371
0.042626075
0.045294838
0.048027346
0.050815132
0.053631889
0.056458259
0.059284499
0.0620864
0.064843171
0.067530699
0.070123724
0.072596855
0.074926009
0.077094969
0.079093958
0.080941489
0.082648174
0.084334558
0.086014542
0.087632089
0.089330636
0.091194711
0.093199568
0.095387137
0.097715407
0.10025025
0.10291819
0.10589365
0.10905301
0.11282951
0.11694906
0.12238798
0.12837123
0.13703605
0.14605557
0.16034667
0.17300852
0.19667355
0.21093364
0.25116265
0.25917167
0.3191186
0.00012011721
0.00077527574
0.0011166974
0.0016880537
0.0020890772
0.002611098
0.0030420501
0.0035340127
0.003976979
0.0044486763
0.0048928797
0.0053486316
0.0057873467
0.0062283048
0.0066569189
0.0070824713
0.0074973841
0.0079059096
0.0083039405
0.008693201
0.0090712796
0.009438624
0.0097936367
0.010136114
0.010464842
0.010779281
0.011078393
0.011361476
0.011627583
0.011875946
0.012105698
0.012316091
0.012506366
0.012675878
0.012824057
0.012950226
0.013053867
0.013134689
0.013192508
0.013227321
0.013239325
0.013228949
0.013196878
0.013144102
0.013071927
0.012982028
0.012876465
0.012757721
0.012628725
0.012492878
0.012354067
0.012216681
0.012085613
0.01196626
0.011864507
0.011786708
0.011739652
0.011730519
0.011766828
0.011856367
0.012007121
0.012227177
0.012524637
0.012907499
0.01338356
0.013960275
0.014644657
0.015443126
0.016361413
0.017404404
0.018576069
0.019879309
0.021315921
0.02288647
0.02459031
0.026425466
0.028388764
0.030475696
0.032680698
0.034996906
0.037416762
0.039931231
0.042531777
0.045206775
0.047951501
0.05073452
0.05354653
0.056385615
0.059221342
0.062036823
0.064808627
0.067514032
0.070128223
0.072627072
0.074988357
0.077195614
0.079244456
0.08113117
0.082940535
0.084617663
0.086175836
0.087816744
0.089553068
0.091420872
0.093440536
0.095645753
0.098012005
0.10060159
0.10336126
0.10645802
0.10980261
0.11379548
0.1182162
0.12392913
0.13025324
0.13901885
0.14815831
0.16180116
0.17404298
0.19516949
0.20908812
0.24226715
0.25534853
0.29907115
0.00010077287
0.00077805007
0.0011133733
0.0016886482
0.002090363
0.0026123654
0.0030450236
0.0035365444
0.0039809963
0.0044526217
0.0048980169
0.0053540334
0.0057937608
0.0062352326
0.0066647923
0.0070910491
0.0075069234
0.0079163164
0.0083153823
0.0087056674
0.0090848968
0.009453431
0.0098097445
0.010153594
0.010483802
0.010799815
0.011100618
0.011385499
0.011653529
0.01190393
0.012135843
0.01234849
0.012541102
0.012712973
0.012863426
0.012991992
0.01309827
0.013181851
0.013242544
0.013280308
0.013295313
0.013287961
0.013258901
0.013209089
0.013139786
0.013052618
0.012949586
0.012833112
0.012706055
0.012571739
0.01243397
0.012297053
0.01216579
0.012045491
0.011941952
0.011861444
0.011810679
0.011796773
0.011827191
0.011909687
0.012052232
0.012262924
0.012549904
0.012921237
0.013384816
0.013948227
0.014618642
0.015402673
0.016306266
0.017334547
0.018491745
0.019781026
0.021204465
0.022762893
0.024455923
0.026281815
0.028237602
0.030318945
0.03252038
0.034835177
0.037255553
0.039773024
0.042376739
0.045060616
0.047799418
0.050586807
0.053417581
0.056265405
0.059115877
0.061946684
0.064737666
0.067466039
0.07010918
0.072644795
0.075052771
0.077321609
0.07944612
0.081460761
0.083306833
0.085061223
0.086847449
0.08864854
0.090537859
0.092580115
0.094782695
0.097187689
0.099773101
0.10259951
0.1056258
0.10900082
0.11265303
0.11692805
0.12163717
0.12751394
0.13396527
0.14252422
0.15141267
0.1639986
0.17537987
0.19337494
0.2057261
0.22941073
0.24047855
0.25854845
7.9636396e-05
0.00078115253
0.0011087161
0.0016897696
0.0020918451
0.0026150355
0.0030495749
0.0035414795
0.003987786
0.0044598499
0.0049068531
0.0053635605
0.0058047329
0.0062471403
0.0066780923
0.0071054928
0.007522791
0.0079335121
0.0083340913
0.0087258804
0.0091067513
0.0094769667
0.0098350768
0.01018079
0.010512969
0.010831036
0.011133996
0.011421129
0.011691513
0.011944369
0.012178845
0.012394169
0.012589574
0.012764366
0.012917889
0.013049524
0.013158788
0.0132453
0.013308837
0.013349328
0.013366899
0.013361897
0.013334909
0.013286818
0.013218805
0.013132408
0.013029534
0.012912502
0.012784064
0.012647432
0.012506299
0.012364858
0.012227806
0.012100349
0.011988198
0.011897553
0.011835074
0.011807854
0.011823363
0.011889397
0.012014008
0.012205415
0.012471924
0.012821809
0.01326322
0.013804035
0.014451761
0.015213376
0.016095217
0.017102819
0.018240824
0.019512811
0.020921252
0.022467342
0.024151027
0.025970835
0.027924016
0.030006344
0.032212427
0.034535351
0.03696743
0.039498831
0.04212106
0.044817184
0.047578959
0.05039441
0.053248274
0.056126785
0.059008251
0.061874772
0.06470524
0.067479164
0.07017547
0.072775164
0.075261756
0.077628425
0.079863453
0.081945998
0.083936276
0.08586467
0.087748644
0.08967907
0.091692616
0.093834606
0.096127975
0.098609959
0.10127601
0.10418519
0.10731568
0.11080354
0.11460087
0.1190063
0.12386641
0.12979111
0.13627291
0.1445576
0.15315501
0.16474775
0.17543204
0.19115187
0.2028771
0.22218925
0.23350203
0.24581315
6.1924176e-05
0.00078516657
0.001104997
0.0016922301
0.0020941493
0.002619075
0.0030551996
0.0035478795
0.0039959758
0.0044688519
0.0049175635
0.0053753141
0.0058181401
0.006261834
0.0066944662
0.0071233844
0.0075424642
0.0079549315
0.0083574529
0.008751226
0.0091342465
0.0095067011
0.0098672063
0.010215435
0.010550286
0.010871165
0.011177097
0.011467352
0.011741017
0.011997304
0.012235357
0.012454381
0.012653601
0.012832284
0.012989761
0.013125454
0.013238866
0.013329576
0.013397315
0.013441961
0.013463578
0.01346245
0.013439085
0.013394281
0.013329123
0.013245043
0.01314383
0.013027676
0.012899197
0.012761464
0.012618025
0.012472925
0.012330714
0.012196461
0.012075752
0.011974676
0.011899809
0.011858186
0.011857258
0.011904841
0.012009054
0.012178234
0.012420859
0.012745431
0.013160385
0.013673935
0.01429398
0.015027926
0.015882585
0.01686398
0.017977272
0.019226546
0.020614782
0.02214364
0.023813508
0.025623281
0.027570519
0.029651209
0.031860067
0.034190246
0.03663374
0.039181066
0.041821482
0.044542359
0.047330373
0.050176147
0.053064695
0.055977043
0.058896655
0.061803781
0.064679849
0.067505119
0.070261986
0.072932452
0.075501279
0.077954239
0.080295757
0.082546849
0.084701602
0.086800739
0.088902147
0.091032771
0.093238754
0.095567083
0.098035936
0.10068556
0.10351499
0.10658065
0.10986921
0.11349888
0.11743212
0.12191779
0.1268239
0.13264844
0.13895673
0.14674651
0.15477587
0.16511569
0.17465855
0.18766644
0.19754892
0.21148426
0.22006496
0.22623446
4.7884855e-05
0.00078941943
0.0011022587
0.0016957526
0.0020975057
0.0026247917
0.0030625691
0.0035566194
0.0040066936
0.0044808424
0.0049315219
0.0053907066
0.0058354884
0.006280836
0.0067154794
0.0071462801
0.0075674929
0.0079820759
0.0083869043
0.0087830351
0.0091685758
0.0095436418
0.0099069088
0.010258014
0.010595887
0.010919916
0.01122914
0.011522818
0.011800044
0.012060019
0.012301886
0.012524839
0.012728088
0.012910882
0.013072516
0.013212339
0.013329802
0.013424441
0.013495934
0.013544094
0.013568909
0.013570577
0.013549507
0.013506388
0.013442184
0.013358197
0.013256074
0.013137862
0.013006024
0.012863474
0.012713603
0.012560306
0.012407991
0.012261599
0.012126609
0.012009028
0.011915387
0.011852712
0.011828495
0.011850641
0.011927418
0.01206737
0.012279249
0.012571888
0.012954119
0.013434608
0.014021758
0.01472352
0.015547286
0.016499673
0.017586449
0.018812283
0.020180726
0.021693951
0.023352811
0.025156568
0.027103089
0.029188514
0.031407654
0.033753534
0.03621804
0.038791233
0.041462004
0.044216946
0.04704601
0.049934678
0.052867443
0.055828229
0.058798532
0.061760463
0.064695413
0.067585196
0.070411789
0.073160391
0.075821249
0.078387007
0.080854683
0.083225703
0.085525995
0.087782656
0.090021724
0.092292269
0.094626606
0.09706326
0.099625171
0.10234898
0.10524342
0.10836236
0.11170376
0.11537319
0.11934597
0.12383191
0.128722
0.13442125
0.14056465
0.14794367
0.15554845
0.16497028
0.17380957
0.18514193
0.19424377
0.20563601
0.21343303
0.21758258
3.8463555e-05
0.00079370869
0.0011013073
0.0017003058
0.0021020417
0.0026317809
0.0030711454
0.0035667979
0.0040188534
0.0044945386
0.0049472862
0.005408174
0.0058550882
0.0063023679
0.006739258
0.00717224
0.0075958724
0.0080129016
0.0084203739
0.0088192343
0.0092076847
0.0095857838
0.0099522582
0.010306718
0.010648117
0.010975831
0.011288909
0.0115866
0.011867996
0.012132283
0.012378596
0.012606101
0.012813994
0.013001487
0.013167855
0.013312422
0.013434596
0.013533858
0.013609819
0.013662215
0.013690948
0.01369612
0.013678027
0.01363724
0.01357459
0.013491234
0.013388667
0.013268771
0.01313384
0.012986615
0.012830313
0.012668658
0.012505899
0.012346831
0.012196806
0.012061736
0.01194809
0.011862877
0.011813618
0.011808306
0.011855359
0.011963534
0.012141871
0.012399556
0.012745846
0.013189892
0.01374065
0.014406661
0.015195959
0.016115817
0.017172677
0.018371861
0.019717565
0.021212539
0.022858176
0.024654166
0.026598735
0.028688242
0.030917619
0.033279873
0.035766724
0.038368067
0.041072369
0.043867157
0.046739412
0.049675017
0.052658425
0.055671944
0.058698617
0.061719904
0.064718358
0.067676493
0.07057972
0.073413967
0.076169109
0.078838661
0.081425169
0.083939456
0.086391223
0.088806145
0.091217112
0.09365271
0.096144394
0.098727382
0.10142175
0.10426309
0.10726146
0.11046623
0.11387895
0.11758981
0.12157908
0.12601857
0.13081389
0.13628771
0.1421305
0.14895499
0.15593557
0.16425098
0.17204141
0.18142206
0.18904316
0.19758541
0.20362847
0.20619738
3.2637395e-05
0.00079767483
0.0011018793
0.0017056101
0.0021077991
0.0026401071
0.0030812597
0.0035788263
0.0040330467
0.0045105827
0.0049656064
0.005428492
0.0058777719
0.0063272678
0.0067666582
0.0072021038
0.0076284242
0.0080481838
0.0084585774
0.0088604525
0.0092520927
0.0096335061
0.010003463
0.010361547
0.010706734
0.011038382
0.01135555
0.011657472
0.011943237
0.012212017
0.012462932
0.012695125
0.012907764
0.013100022
0.013271127
0.013420339
0.013547006
0.01365054
0.013730473
0.013786454
0.013818283
0.013825947
0.013809618
0.013769729
0.013706959
0.013622308
0.013517099
0.01339304
0.013252243
0.013097267
0.012931154
0.012757455
0.012580264
0.012404241
0.012234631
0.01207727
0.0119386
0.011825644
0.011746004
0.011707808
0.011719686
0.011790676
0.011930175
0.0121478
0.012453318
0.012856451
0.013366791
0.01399356
0.014745517
0.015630666
0.016656204
0.017828166
0.019151451
0.020629421
0.022264041
0.024055427
0.026002178
0.028100816
0.030346398
0.032731769
0.035248579
0.037886043
0.040632713
0.043475304
0.046400661
0.049393026
0.052436458
0.05551355
0.058606713
0.061697886
0.064769818
0.06780573
0.070791147
0.07371334
0.076564621
0.079339535
0.082038778
0.084667885
0.087242373
0.089782835
0.092311558
0.09485986
0.097453436
0.10012303
0.10288987
0.10578661
0.10882749
0.11205827
0.11548565
0.11918846
0.12315358
0.12752315
0.13221854
0.13749665
0.14310081
0.14950318
0.15604413
0.16359333
0.17074057
0.17892871
0.18580551
0.19286526
0.19812913
0.19990465
3.0101732e-05
0.0008012831
0.0011041536
0.0017115879
0.0021147777
0.0026494997
0.0030925946
0.0035921776
0.004048665
0.0045282365
0.0049856707
0.0054507708
0.0059025949
0.0063545451
0.0067966558
0.0072348266
0.0076640942
0.0080868743
0.0085004874
0.0089057014
0.0093008699
0.0096859601
0.01005978
0.010421891
0.010771286
0.011107312
0.011429028
0.011735656
0.012026279
0.012300047
0.012556062
0.012793439
0.013011314
0.013208823
0.013385152
0.013539509
0.013671179
0.013779499
0.013863915
0.013923977
0.013959374
0.013969971
0.013955803
0.013917152
0.013854537
0.013768782
0.01366103
0.013532795
0.013385993
0.013222986
0.013046619
0.012860259
0.012667826
0.012473827
0.012283384
0.012102248
0.011936816
0.011794123
0.011681843
0.011608243
0.01158217
0.011612955
0.011710374
0.011884503
0.012145653
0.01250416
0.012970312
0.013554066
0.014264978
0.015111856
0.016102729
0.01724442
0.018542615
0.020001357
0.021623259
0.023408921
0.025357365
0.027465325
0.029727999
0.032138148
0.034687238
0.037364067
0.040156938
0.043051924
0.046034698
0.049088984
0.052198383
0.055344522
0.058510126
0.061676563
0.064827529
0.06794575
0.071017987
0.074032622
0.076981588
0.07986085
0.082672267
0.085422882
0.088123759
0.090792695
0.093451773
0.09612442
0.098834046
0.10160808
0.10446562
0.10743685
0.11053574
0.11380289
0.11724569
0.12093022
0.12484532
0.12910497
0.13364066
0.13865127
0.14392093
0.14980208
0.15576385
0.16242382
0.16871214
0.17557217
0.18138107
0.18690961
0.19114377
0.19245965
3.0013394e-05
0.00080448484
0.0011078728
0.0017181292
0.0021229874
0.0026600204
0.0031053604
0.0036071137
0.0040660812
0.0045479101
0.005007958
0.0054755099
0.0059300923
0.0063847396
0.0068297993
0.0072709439
0.0077034008
0.0081294568
0.0085465424
0.0089553562
0.0093543131
0.0097433438
0.010121288
0.010487687
0.01084155
0.011182205
0.011508715
0.011820286
0.01211599
0.012394956
0.012656262
0.012898991
0.013122241
0.013325098
0.013506689
0.013666157
0.013802708
0.013915595
0.014004164
0.014067856
0.014106235
0.014119029
0.014106121
0.014067629
0.014003894
0.013915554
0.013803551
0.013669194
0.013514193
0.0133407
0.013151356
0.012949337
0.012738388
0.012522866
0.012307777
0.012098796
0.011902295
0.011725344
0.011575718
0.011461862
0.011392883
0.011378455
0.011428796
0.011554504
0.011766511
0.012075845
0.012493571
0.013030469
0.013696985
0.014502813
0.015456903
0.016566943
0.017839479
0.019279289
0.020889689
0.022671779
0.024625037
0.026746368
0.029031129
0.031471875
0.034059805
0.036783156
0.039630026
0.042585384
0.045634471
0.048759712
0.051944167
0.055168764
0.058415742
0.061666149
0.064903324
0.068110997
0.071274845
0.074382921
0.077429561
0.08040917
0.083323399
0.08617721
0.088981595
0.091751937
0.094505968
0.097265996
0.10005269
0.10289061
0.10579878
0.10880482
0.11192407
0.11519323
0.11862157
0.12226561
0.12611743
0.13026925
0.13466355
0.13945412
0.14446325
0.14995214
0.15550117
0.16154262
0.16727549
0.17329181
0.17847807
0.18311612
0.18675938
0.18771414
3.2045709e-05
0.00080734559
0.001113019
0.0017252032
0.0021323871
0.0026715173
0.0031193723
0.0036233416
0.0040849588
0.0045691916
0.0050320194
0.005502215
0.005959746
0.0064173118
0.0068655414
0.0073099079
0.0077458077
0.0081754163
0.0085962621
0.0090089843
0.0094120527
0.0098053669
0.010187796
0.010558862
0.010917586
0.011263284
0.011595016
0.011911972
0.012213211
0.012497837
0.012764904
0.013013458
0.013242559
0.013451242
0.013638579
0.013803643
0.013945561
0.014063492
0.014156679
0.014224442
0.014266213
0.01428157
0.014270233
0.014232144
0.014167452
0.01407659
0.013960286
0.013819628
0.013656096
0.013471615
0.013268604
0.013050023
0.012819424
0.012580994
0.012339604
0.012100837
0.011871028
0.01165727
0.011467437
0.011310151
0.011194792
0.011131394
0.011130643
0.011203695
0.011362155
0.011617798
0.01198254
0.01246806
0.013085781
0.013846377
0.014759823
0.015834763
0.01707871
0.018497261
0.020094528
0.021872171
0.023830189
0.025965694
0.028274209
0.030748147
0.033378242
0.036152427
0.039058164
0.042079498
0.045200797
0.048403388
0.051669676
0.054979397
0.05831454
0.06165519
0.064984941
0.068286355
0.071547407
0.074754502
0.077900693
0.080982915
0.084001803
0.086961822
0.08987279
0.092747276
0.095601877
0.098455036
0.10132533
0.10423466
0.10720032
0.1102472
0.11338965
0.11665954
0.12006552
0.12365404
0.12741781
0.13142887
0.1356369
0.14015677
0.14484008
0.14987301
0.15492216
0.16027711
0.16534108
0.17046416
0.17490488
0.17868302
0.18171198
0.18250515
3.5716404e-05
0.00080990307
0.0011193935
0.0017327692
0.0021429505
0.0026840226
0.0031347302
0.0036409971
0.0041054928
0.0045922985
0.0050581097
0.0055311513
0.0059918372
0.0064525403
0.0069041582
0.0073519783
0.0077915537
0.0082249589
0.0086498116
0.009066698
0.0094741373
0.0098720011
0.010259183
0.010635191
0.010999052
0.011350069
0.011687299
0.012009913
0.012316955
0.012607502
0.012880579
0.013135191
0.013370353
0.01358504
0.013778259
0.013949003
0.01409631
0.014219237
0.014316911
0.014388521
0.014433353
0.014450824
0.014440477
0.014402061
0.014335519
0.014241063
0.014119191
0.013970752
0.013796982
0.013599562
0.013380675
0.013143054
0.012890046
0.012625661
0.01235463
0.012082444
0.011815404
0.011560639
0.01132614
0.011120729
0.010954092
0.010836666
0.010779659
0.010794846
0.010894575
0.011091449
0.011398328
0.011827883
0.012392624
0.0131043
0.013974026
0.015011495
0.016225293
0.017621908
0.019206331
0.020980817
0.02294595
0.025098995
0.027435772
0.02994814
0.032626647
0.0354587
0.038431055
0.041526572
0.044728901
0.048017841
0.051375066
0.054778927
0.058210813
0.061649693
0.06507874
0.068480028
0.071840445
0.075148021
0.078395011
0.081575038
0.084690406
0.087744571
0.0907453
0.093704386
0.096636041
0.099557021
0.10248456
0.10543837
0.10843526
0.11149792
0.11464077
0.11789212
0.12126096
0.12478622
0.12846227
0.13234576
0.13639413
0.14069261
0.14511935
0.14980448
0.15448593
0.15934943
0.16395274
0.1684753
0.17242746
0.17564844
0.17825889
0.17886387
4.0824484e-05
0.00081222725
0.0011269319
0.001740816
0.0021546218
0.0026974459
0.0031513134
0.0036599076
0.0041274837
0.0046169897
0.0050859671
0.0055620315
0.0060260681
0.0064901179
0.006945344
0.0073968556
0.0078403551
0.0082778242
0.0087069638
0.0091283131
0.0095404369
0.0099431825
0.010335467
0.010716782
0.011086164
0.011442902
0.011786047
0.012114752
0.012428044
0.012724972
0.01300453
0.013265682
0.013507393
0.013728581
0.013928184
0.014105113
0.014258312
0.01438673
0.014489369
0.014565281
0.014613595
0.014633555
0.014624514
0.014586015
0.014517777
0.014419776
0.014292258
0.014135813
0.01395141
0.013740465
0.013504895
0.013247185
0.012970448
0.012678492
0.012375885
0.012068003
0.011761098
0.011462316
0.011179761
0.010922455
0.0107004
0.010524453
0.010406378
0.010358612
0.010394309
0.010526967
0.010770483
0.011138611
0.011645068
0.012302789
0.013124161
0.014120044
0.015300234
0.016672208
0.018241965
0.020012419
0.021984821
0.024156626
0.02652394
0.029078034
0.03180944
0.034704611
0.037749722
0.040926218
0.044216912
0.047599893
0.051056036
0.054561919
0.05809838
0.061642814
0.065178213
0.068685245
0.072151364
0.075562605
0.078912936
0.082196009
0.085410737
0.088559811
0.091652897
0.094697962
0.097708573
0.1006995
0.10368597
0.1066859
0.1097146
0.11279229
0.11593233
0.11915889
0.12248005
0.1259272
0.12949488
0.13322596
0.1370832
0.14112706
0.14525635
0.14955714
0.15382316
0.15816481
0.16225813
0.16617393
0.16960626
0.17231637
0.17454372
0.17507663
4.7106041e-05
0.00081435888
0.0011354894
0.00174932
0.002167351
0.0027117862
0.0031691435
0.0036801192
0.0041510036
0.0046433492
0.0051156917
0.0055949574
0.0060625437
0.0065301413
0.0069891859
0.0074446081
0.0078922577
0.0083340269
0.0087676968
0.0091937624
0.0096108318
0.01001873
0.010416395
0.010803304
0.011178501
0.011541259
0.011890625
0.012225732
0.012545585
0.012849207
0.013135554
0.013403546
0.013652095
0.013880055
0.014086286
0.014269613
0.014428876
0.014562909
0.01467058
0.014750791
0.014802504
0.014824777
0.014816762
0.014777776
0.014707301
0.014605057
0.014471022
0.014305505
0.014109189
0.013883201
0.013629175
0.013349323
0.013046508
0.012724315
0.012387135
0.012040214
0.011689749
0.011342902
0.011007891
0.010693954
0.010411432
0.010171636
0.0099869327
0.0098704798
0.0098363139
0.0098989123
0.010073312
0.01037446
0.010817405
0.011416389
0.012185219
0.013136032
0.014279983
0.015625629
0.017180102
0.018947025
0.020928402
0.023121864
0.025523849
0.028124845
0.030915469
0.033880989
0.037006988
0.040273175
0.043661538
0.047148036
0.050712687
0.054329891
0.057979786
0.061637792
0.06528645
0.06890489
0.072480148
0.075997488
0.079450095
0.082830608
0.086140556
0.089378429
0.092550886
0.095668073
0.098742051
0.10178518
0.10481291
0.10784095
0.11088429
0.11396134
0.11708497
0.12027655
0.12354389
0.12691286
0.13037893
0.13397463
0.13766824
0.14150169
0.14539182
0.14939227
0.15334119
0.15729474
0.16101543
0.1644982
0.16755794
0.16990428
0.17183881
0.17226297
5.4442728e-05
0.0008163502
0.0011450042
0.0017582772
0.0021810852
0.0027269879
0.0031881381
0.0037015268
0.0041759289
0.0046712317
0.0051471262
0.0056297582
0.0061010886
0.0065724322
0.00703551
0.00749507
0.0079471111
0.0083934373
0.0088319092
0.00926298
0.0096853001
0.010098674
0.01050206
0.010894923
0.011276313
0.011645489
0.012001491
0.012343433
0.012670301
0.012981085
0.013274707
0.013550041
0.013805945
0.014041204
0.014254603
0.014444873
0.014610749
0.014750939
0.014864175
0.014949199
0.015004795
0.015029826
0.015023222
0.014984066
0.014911583
0.014805215
0.014664652
0.014489896
0.014281318
0.014039728
0.013766444
0.013463375
0.0131331
0.012778947
0.012405099
0.012016644
0.011619693
0.011221404
0.010830099
0.01045522
0.010107456
0.0097985879
0.0095416235
0.0093504843
0.0092401632
0.0092261958
0.009324873
0.0095524431
0.0099254397
0.010459545
0.011170159
0.012070839
0.01317428
0.014490243
0.016027161
0.017789444
0.019779969
0.02199661
0.024436053
0.027087961
0.029943225
0.032985479
0.036199842
0.039563903
0.043058819
0.046658012
0.050340641
0.054078436
0.057850893
0.061630954
0.065400857
0.06913763
0.072828408
0.076456632
0.080015873
0.083497572
0.086901734
0.090229174
0.093485503
0.096675344
0.099811414
0.10290714
0.10597465
0.10902919
0.11208455
0.11515697
0.11825867
0.12140765
0.12461105
0.12788934
0.13123823
0.13468127
0.13819083
0.141794
0.14542196
0.14910421
0.15271417
0.15627132
0.15960494
0.1626667
0.16535916
0.16738383
0.16906755
0.16945156
6.2682234e-05
0.00081822759
0.0011553698
0.0017676631
0.0021957629
0.0027430246
0.0032082705
0.0037241191
0.0042022556
0.0047006375
0.005180274
0.0056664336
0.0061416979
0.0066169742
0.0070842868
0.0075481928
0.0080048442
0.0084559564
0.0088994698
0.0093357969
0.0097636296
0.010182753
0.010592146
0.010991262
0.011379154
0.011755069
0.012118041
0.012467161
0.012801397
0.013119704
0.013420968
0.013704015
0.013967642
0.014210567
0.01443149
0.014629046
0.014801856
0.0149485
0.01506756
0.01515761
0.015217248
0.015245125
0.015239942
0.015200528
0.015125831
0.015015002
0.014867414
0.014682744
0.014461024
0.014202717
0.013908802
0.013580849
0.013221126
0.012832676
0.012419443
0.011986329
0.011539343
0.011085619
0.010633574
0.010192853
0.0097745105
0.0093908172
0.0090554673
0.0087832003
0.0085900481
0.0084926924
0.0085088016
0.0086560458
0.0089526047
0.0094157401
0.010062637
0.01090841
0.011967497
0.013250971
0.014768753
0.016526098
0.018526886
0.020769268
0.023250043
0.02595819
0.028884826
0.032011614
0.035323264
0.038794799
0.042406583
0.046128931
0.049940169
0.053808738
0.057713504
0.061624316
0.065523112
0.069384316
0.07319503
0.076936738
0.08060308
0.084183844
0.087679866
0.091088836
0.094417929
0.097673283
0.10086299
0.10399747
0.10709305
0.11016195
0.11321778
0.11627597
0.11934764
0.12244918
0.12558713
0.12877834
0.13201912
0.13532648
0.13867682
0.14208633
0.14549829
0.14892472
0.15226632
0.15551662
0.1585525
0.16129657
0.16370724
0.16548464
0.16696161
0.16727798
7.1751105e-05
0.00082002648
0.0011665371
0.0017774753
0.0022113397
0.0027598599
0.0032294817
0.0037478286
0.0042299021
0.0047314744
0.0052150348
0.0057048767
0.0061842627
0.0066636584
0.007135412
0.0076038797
0.0080653733
0.0085215175
0.0089703344
0.0094121967
0.0098458385
0.010271027
0.010686761
0.011092483
0.011487253
0.011870305
0.012240665
0.012597406
0.012939472
0.013265789
0.013575205
0.013866494
0.014138398
0.014389562
0.0146186
0.014824046
0.015004407
0.015158126
0.01528363
0.015379318
0.01544359
0.015474874
0.015471626
0.015432405
0.015355866
0.015240842
0.015086369
0.014891766
0.014656696
0.014381244
0.014066005
0.013712178
0.013321674
0.012897208
0.012442443
0.011962055
0.011461909
0.010949082
0.010432063
0.0099206828
0.0094263584
0.0089618608
0.0085416066
0.0081811982
0.0078977898
0.0077092968
0.0076349022
0.0076938277
0.0079060879
0.008290686
0.0088668209
0.0096513346
0.010660657
0.011907313
0.013402962
0.015153765
0.017164829
0.019434493
0.021959933
0.024729207
0.027733596
0.030952611
0.03437058
0.037959437
0.041698837
0.045555325
0.049506517
0.05351683
0.057564687
0.061616129
0.065653047
0.06964663
0.073584311
0.077445034
0.081222968
0.084906113
0.088495372
0.091987828
0.09539015
0.09870605
0.10194843
0.10512374
0.10824389
0.11132343
0.11437612
0.11741435
0.12045023
0.12349685
0.12656085
0.12965533
0.13277707
0.13593762
0.13911658
0.14232192
0.14550681
0.14867123
0.15173783
0.15468441
0.15742483
0.15986884
0.1620147
0.16357817
0.16488344
0.16517354
8.1553297e-05
0.0008217596
0.0011784236
0.0017876842
0.0022277491
0.0027774499
0.0032517169
0.0037726087
0.0042588186
0.0047636919
0.0052513537
0.0057450254
0.0062287119
0.0067124008
0.007188787
0.0076620136
0.0081285601
0.0085899575
0.0090443122
0.0094919568
0.0099316688
0.010363198
0.010785565
0.0111982
0.011600171
0.0119907
0.012368805
0.012733541
0.013083829
0.013418565
0.013736556
0.014036527
0.014317159
0.014577022
0.014814643
0.015028453
0.015216836
0.015378094
0.015510494
0.01561225
0.015681553
0.0157166
0.015715586
0.015676784
0.015598537
0.015479338
0.015317862
0.015113044
0.014864146
0.014570838
0.014233301
0.013852319
0.013429406
0.012966905
0.012468158
0.01193757
0.011380829
0.010804918
0.010218375
0.0096311995
0.0090551728
0.0085035751
0.0079915866
0.0075357191
0.0071543403
0.00686669
0.0066936145
0.0066560206
0.0067759629
0.0070743492
0.0075726429
0.008289579
0.0092438547
0.010449577
0.011920418
0.013663484
0.015685369
0.017984508
0.020558622
0.023394612
0.026484134
0.029804071
0.033338515
0.037055636
0.040934548
0.044937166
0.049040608
0.053204309
0.057406513
0.061608514
0.065792459
0.069925497
0.073995695
0.077978891
0.081870089
0.085655006
0.089335551
0.092906816
0.096376467
0.09974768
0.10303113
0.10623657
0.10937632
0.11245914
0.11549955
0.11851268
0.12150741
0.12449729
0.127488
0.13049058
0.13350243
0.1365312
0.13955958
0.14258962
0.14558266
0.1485302
0.15137157
0.15407391
0.15657696
0.15878323
0.16071517
0.16210423
0.16326085
0.16350652
9.2038847e-05
0.00082345037
0.0011909908
0.0017982864
0.0022449537
0.002795767
0.0032749299
0.0037984104
0.004288945
0.0047972246
0.005289159
0.0057868047
0.0062749688
0.0067631252
0.0072443392
0.0077225279
0.0081943477
0.0086612323
0.0091213761
0.0095750713
0.010021141
0.010459317
0.010888645
0.011308544
0.01171809
0.012116495
0.01250277
0.012875951
0.013234942
0.013578605
0.013905708
0.014214929
0.014504886
0.014774076
0.015020936
0.01524379
0.015440898
0.015610419
0.01575045
0.015859014
0.015934087
0.015973617
0.015975528
0.015937789
0.015858409
0.015735521
0.015567408
0.015352588
0.015089888
0.014778521
0.014418209
0.01400927
0.013552772
0.013050629
0.012505804
0.011922376
0.0113058
0.010662916
0.01000227
0.0093339928
0.008670221
0.0080247374
0.0074135187
0.0068540241
0.0063659287
0.005969889
0.0056885807
0.0055447431
0.0055627127
0.0057654901
0.0061771094
0.0068183974
0.0077106671
0.0088697652
0.010311741
0.012044694
0.014077073
0.016407237
0.019033781
0.021942127
0.025124478