/*--------------------------------*- C++ -*----------------------------------*\
| =========                 |                                                 |
| \\      /  F ield         | foam-extend: Open Source CFD                    |
|  \\    /   O peration     | Version:     4.1                                |
|   \\  /    A nd           | Web:         http://www.foam-extend.org         |
|    \\/     M anipulation  |                                                 |
\*---------------------------------------------------------------------------*/
FoamFile
{
    version     2.0;
    format      ascii;
    class       surfaceScalarField;
    location    "0.7";
    object      phi;
}
// * * * * * * * * * * * * * * * * * * * * * * * * * * * * * * * * * * * * * //

dimensions      [0 3 -1 0 0 0 0];

internalField   nonuniform List<scalar> 
31929
(
-5.9532814e-05
1.1823603e-08
-5.9535307e-05
2.4928356e-09
-5.9538325e-05
3.0175934e-09
-5.9539944e-05
1.6189864e-09
-5.954061e-05
6.6599403e-10
-5.954119e-05
5.8080649e-10
-5.9540772e-05
-4.1872625e-10
-5.9540408e-05
-3.635167e-10
-5.9539263e-05
-1.1449153e-09
-5.9537984e-05
-1.2797559e-09
-5.9536096e-05
-1.8874943e-09
-5.9533963e-05
-2.1329436e-09
-5.9531333e-05
-2.6299819e-09
-5.9528405e-05
-2.9276766e-09
-5.9525052e-05
-3.3535994e-09
-5.9521382e-05
-3.6696854e-09
-5.9517337e-05
-4.0454477e-09
-5.951298e-05
-4.3567328e-09
-5.9508292e-05
-4.6882526e-09
-5.9503317e-05
-4.9746554e-09
-5.9498061e-05
-5.2556876e-09
-5.9492566e-05
-5.4950569e-09
-5.9486858e-05
-5.7082457e-09
-5.9480986e-05
-5.872118e-09
-5.9474998e-05
-5.9880507e-09
-5.9468961e-05
-6.0372498e-09
-5.9462949e-05
-6.0112608e-09
-5.945706e-05
-5.8899433e-09
-5.9451404e-05
-5.6556111e-09
-5.9446122e-05
-5.2815224e-09
-5.9441384e-05
-4.7388307e-09
-5.9437396e-05
-3.9874724e-09
-5.9434408e-05
-2.9876606e-09
-5.9432722e-05
-1.6860238e-09
-5.9432649e-05
-7.3646046e-11
-5.9434433e-05
1.7842979e-09
-5.9438356e-05
3.9230131e-09
-5.9444795e-05
6.4388991e-09
-5.9454174e-05
9.3786975e-09
-5.9466968e-05
1.2793814e-08
-5.9483701e-05
1.6733034e-08
-5.9504946e-05
2.1245642e-08
-5.9531328e-05
2.6381494e-08
-5.9563516e-05
3.218839e-08
-5.9602229e-05
3.8712531e-08
-5.9648224e-05
4.5995825e-08
-5.9702299e-05
5.407477e-08
-5.9765277e-05
6.2978163e-08
-5.9838002e-05
7.2724913e-08
-5.9921324e-05
8.3322042e-08
-6.0016086e-05
9.4762007e-08
-6.0123107e-05
1.0702047e-07
-6.0243161e-05
1.2005406e-07
-6.0376959e-05
1.3379837e-07
-6.0525125e-05
1.4816583e-07
-6.068817e-05
1.6304514e-07
-6.086647e-05
1.7829997e-07
-6.1060239e-05
1.9376922e-07
-6.1269507e-05
2.0926773e-07
-6.1494095e-05
2.2458807e-07
-6.1733598e-05
2.3950227e-07
-6.1987364e-05
2.5376625e-07
-6.2254487e-05
2.6712333e-07
-6.2533797e-05
2.7930966e-07
-6.2823857e-05
2.9005985e-07
-6.312297e-05
2.9911367e-07
-6.3429194e-05
3.0622312e-07
-6.3740352e-05
3.111588e-07
-6.4054071e-05
3.1371839e-07
-6.4367804e-05
3.1373327e-07
-6.4678879e-05
3.1107523e-07
-6.4984542e-05
3.0566312e-07
-6.5282011e-05
2.9746812e-07
-6.5568528e-05
2.8651742e-07
-6.5841426e-05
2.7289763e-07
-6.6098181e-05
2.5675547e-07
-6.6336476e-05
2.3829532e-07
-6.6554251e-05
2.1777482e-07
-6.6749747e-05
1.9549575e-07
-6.6921535e-05
1.7178787e-07
-6.7068531e-05
1.4699594e-07
-6.7189971e-05
1.2144057e-07
-6.7285414e-05
9.5442231e-08
-6.7354625e-05
6.9210881e-08
-6.7397926e-05
4.330178e-08
-6.7416691e-05
1.8765135e-08
-6.7413794e-05
-2.8971855e-09
-6.7387238e-05
-2.6556707e-08
-6.733196e-05
-5.5277912e-08
-6.7245716e-05
-8.6243574e-08
-6.7126572e-05
-1.1914363e-07
-6.6973008e-05
-1.5356456e-07
-6.6783948e-05
-1.890604e-07
-6.6559421e-05
-2.2452676e-07
-6.6301637e-05
-2.5778385e-07
-6.6016423e-05
-2.8521356e-07
-6.5715066e-05
-3.0135782e-07
-6.5415421e-05
-2.9964468e-07
-6.5141967e-05
-2.7345374e-07
-6.4929769e-05
-2.1219803e-07
-6.482556e-05
-1.0420877e-07
-6.4901034e-05
7.5473502e-08
-6.5215019e-05
3.1398548e-07
-6.5792406e-05
5.7738682e-07
-6.6656052e-05
8.636456e-07
-6.7834027e-05
1.1779746e-06
-6.9364273e-05
1.5302469e-06
-7.1303996e-05
1.9397229e-06
-7.3732671e-05
2.4286742e-06
-7.6767447e-05
3.0347764e-06
-8.0561457e-05
3.7940104e-06
-8.5326494e-05
4.765037e-06
-9.131499e-05
5.9884957e-06
-9.8854402e-05
7.5394116e-06
-0.00010828982
9.4354177e-06
-0.00012004682
1.1757004e-05
-0.0001344876
1.4440778e-05
-0.00015206373
1.7576128e-05
-0.00017295889
2.0895162e-05
-0.00019757011
2.4611219e-05
-0.00022532781
2.7757703e-05
-0.00025685238
3.1524562e-05
-0.00028730399
3.045161e-05
3.5276614e-05
-0.00016564872
2.6007907e-08
-0.00016565816
1.1934007e-08
-0.00016566746
1.2320511e-08
-0.00016567522
9.3807829e-09
-0.00016568245
7.8922609e-09
-0.00016568911
7.2389738e-09
-0.00016569533
5.8030855e-09
-0.00016570129
5.6023018e-09
-0.00016570702
4.5823013e-09
-0.00016571275
4.4494467e-09
-0.00016571844
3.8009827e-09
-0.00016572428
3.7084782e-09
-0.00016573027
3.3549685e-09
-0.00016573654
3.3501422e-09
-0.00016574315
3.2503608e-09
-0.00016575021
3.3886004e-09
-0.00016575779
3.5364633e-09
-0.00016576602
3.8748441e-09
-0.000165775
4.2941403e-09
-0.00016578487
4.8965845e-09
-0.00016579577
5.6376087e-09
-0.00016580784
6.5816193e-09
-0.00016582127
7.7208421e-09
-0.00016583625
9.1041485e-09
-0.00016585298
1.0746598e-08
-0.00016587171
1.2693928e-08
-0.0001658927
1.4977845e-08
-0.00016591624
1.7648409e-08
-0.00016594265
2.0751995e-08
-0.00016597228
2.4348263e-08
-0.00016600552
2.8498241e-08
-0.00016604278
3.3275474e-08
-0.00016608452
3.875544e-08
-0.00016613123
4.5024643e-08
-0.00016618347
5.2163647e-08
-0.00016624195
6.0259536e-08
-0.00016630744
6.9416057e-08
-0.00016638074
7.9737592e-08
-0.00016646269
9.1335764e-08
-0.00016655422
1.0432311e-07
-0.00016665631
1.1881574e-07
-0.00016676999
1.349256e-07
-0.00016689637
1.5276448e-07
-0.00016703662
1.7243436e-07
-0.00016719193
1.9402802e-07
-0.00016736356
2.1762239e-07
-0.00016755276
2.4327451e-07
-0.0001677608
2.7101601e-07
-0.00016798892
3.0084661e-07
-0.00016823832
3.3272914e-07
-0.00016851014
3.6658281e-07
-0.0001688054
4.0227753e-07
-0.00016912498
4.3962855e-07
-0.00016946957
4.7839257e-07
-0.00016983967
5.1826263e-07
-0.00017023549
5.5886826e-07
-0.00017065696
5.9977411e-07
-0.00017110368
6.4048221e-07
-0.00017157485
6.8043608e-07
-0.00017206929
7.1902836e-07
-0.00017258539
7.5560726e-07
-0.00017312112
7.8949114e-07
-0.00017367397
8.1998025e-07
-0.00017424104
8.4637325e-07
-0.00017481896
8.6798412e-07
-0.00017540401
8.8416099e-07
-0.00017599209
8.943064e-07
-0.00017657883
8.9789373e-07
-0.0001771596
8.9448923e-07
-0.00017772963
8.8376845e-07
-0.00017828409
8.6553178e-07
-0.00017881815
8.397192e-07
-0.0001793271
8.0642128e-07
-0.00017980647
7.6588496e-07
-0.00018025209
7.1851866e-07
-0.00018066022
6.6489105e-07
-0.00018102765
6.0572129e-07
-0.00018135174
5.4186763e-07
-0.00018163055
4.7430155e-07
-0.00018186284
4.0407808e-07
-0.00018204813
3.3228579e-07
-0.00018218669
2.6000386e-07
-0.00018227947
1.8821671e-07
-0.00018232801
1.1775569e-07
-0.0001823344
4.968988e-08
-0.00018229958
-1.6056255e-08
-0.00018221822
-8.4251879e-08
-0.00018208831
-1.5646569e-07
-0.00018191306
-2.3052972e-07
-0.00018169311
-3.0619065e-07
-0.00018142938
-3.8287753e-07
-0.00018112309
-4.5985289e-07
-0.00018077709
-5.3506521e-07
-0.00018039747
-6.0414845e-07
-0.00017999602
-6.5922918e-07
-0.00017959349
-6.8774886e-07
-0.00017922315
-6.7169318e-07
-0.00017893616
-5.8663897e-07
-0.00017880595
-4.036614e-07
-0.00017893021
-8.7933699e-08
-0.00017940093
3.6650664e-07
-0.00018025726
9.3180655e-07
-0.00018154633
1.6030538e-06
-0.00018334817
2.3792301e-06
-0.00018572881
3.2442828e-06
-0.00018874381
4.192975e-06
-0.00019243861
5.2250516e-06
-0.00019685436
6.3554692e-06
-0.00020202985
7.6041595e-06
-0.00020800475
9.0096803e-06
-0.00021481636
1.0605619e-05
-0.00022249919
1.2447869e-05
-0.00023107307
1.4562378e-05
-0.00024054022
1.7006558e-05
-0.0002508593
1.9754496e-05
-0.00026194523
2.2842932e-05
-0.00027361391
2.610946e-05
-0.00028560457
2.9566791e-05
-0.00029744465
3.273524e-05
-0.00030857228
3.5738846e-05
-0.00031798778
3.7173211e-05
-0.00032463288
3.8169654e-05
-0.0003273839
3.3202631e-05
3.0473317e-05
-0.00024336326
4.3378317e-08
-0.00024337955
2.8228046e-08
-0.00024339611
2.8881141e-08
-0.00024341197
2.5237111e-08
-0.00024342816
2.4080611e-08
-0.00024344431
2.3388822e-08
-0.00024346098
2.2471044e-08
-0.00024347806
2.2680963e-08
-0.00024349587
2.239986e-08
-0.00024351447
2.3044326e-08
-0.00024353406
2.339007e-08
-0.00024355475
2.4395957e-08
-0.00024357671
2.5323043e-08
-0.0002436001
2.6740093e-08
-0.0002436251
2.8242982e-08
-0.00024365186
3.015479e-08
-0.0002436806
3.227194e-08
-0.0002437115
3.4780255e-08
-0.0002437448
3.7590391e-08
-0.00024378072
4.0817766e-08
-0.00024381952
4.4438047e-08
-0.00024386147
4.8534565e-08
-0.00024390687
5.3121962e-08
-0.00024395604
5.8272977e-08
-0.00024400933
6.4028483e-08
-0.00024406709
7.0462963e-08
-0.00024412975
7.7638067e-08
-0.00024419774
8.5637628e-08
-0.00024427153
9.4542418e-08
-0.00024435164
1.0445087e-07
-0.0002444386
1.1546248e-07
-0.00024453302
1.276935e-07
-0.00024463553
1.4126257e-07
-0.0002447468
1.5629951e-07
-0.00024486758
1.7294435e-07
-0.00024499867
1.9134383e-07
-0.0002451409
2.1164858e-07
-0.00024529517
2.3400436e-07
-0.0002454624
2.5857403e-07
-0.00024564359
2.8551379e-07
-0.00024583976
3.1498486e-07
-0.00024605197
3.4713253e-07
-0.0002462813
3.8209868e-07
-0.00024652887
4.2000191e-07
-0.00024679578
4.6093961e-07
-0.00024708314
5.0497713e-07
-0.00024739201
5.5214077e-07
-0.0002477234
6.0240961e-07
-0.00024807826
6.5570462e-07
-0.00024845741
7.118817e-07
-0.00024886155
7.7072142e-07
-0.00024929119
8.3192104e-07
-0.00024974665
8.9508696e-07
-0.00025022799
9.5973067e-07
-0.00025073499
1.0252617e-06
-0.00025126711
1.0909905e-06
-0.00025182346
1.1561287e-06
-0.00025240278
1.2197952e-06
-0.00025300337
1.281025e-06
-0.00025362312
1.3387857e-06
-0.0002542595
1.3919886e-06
-0.00025490953
1.4395162e-06
-0.00025556979
1.4802428e-06
-0.00025623648
1.5130632e-06
-0.00025690542
1.5369212e-06
-0.0002575721
1.550841e-06
-0.00025823175
1.5539602e-06
-0.00025887942
1.5455558e-06
-0.00025951
1.5250782e-06
-0.00026011841
1.4921768e-06
-0.0002606996
1.4467219e-06
-0.00026124871
1.3888258e-06
-0.00026176115
1.3188574e-06
-0.00026223271
1.2374479e-06
-0.00026265968
1.1454949e-06
-0.00026303895
1.0441566e-06
-0.00026336806
9.3483247e-07
-0.00026364533
8.1913999e-07
-0.0002638699
6.9886996e-07
-0.00026404175
5.7592929e-07
-0.00026416174
4.5226919e-07
-0.0002642315
3.2976757e-07
-0.00026425343
2.1014536e-07
-0.00026423026
9.458754e-08
-0.00026416451
-1.6062167e-08
-0.00026405568
-1.248843e-07
-0.00026390791
-2.3202122e-07
-0.00026372984
-3.3453461e-07
-0.00026352757
-4.3280469e-07
-0.00026330713
-5.2663168e-07
-0.0002630747
-6.153088e-07
-0.00026283795
-6.9660102e-07
-0.00026260719
-7.6582225e-07
-0.00026239702
-8.1431903e-07
-0.00026222815
-8.2809702e-07
-0.00026212914
-7.8675973e-07
-0.00026213858
-6.6225004e-07
-0.00026230264
-4.2258808e-07
-0.00026267454
-3.1757226e-08
-0.00026328508
5.2260559e-07
-0.00026415455
1.235981e-06
-0.00026533884
2.1160963e-06
-0.00026690194
3.1661468e-06
-0.00026889529
4.3725794e-06
-0.00027135854
5.7075339e-06
-0.00027431469
7.1491272e-06
-0.0002777722
8.6825659e-06
-0.00028172509
1.0308358e-05
-0.00028615427
1.2033338e-05
-0.00029102692
1.3882326e-05
-0.0002962958
1.58745e-05
-0.00030189517
1.8047241e-05
-0.00030773747
2.0404678e-05
-0.00031370509
2.2974176e-05
-0.0003196455
2.5694912e-05
-0.00032536121
2.8558642e-05
-0.00033060457
3.1352822e-05
-0.00033507364
3.4035851e-05
-0.00033840337
3.6064978e-05
-0.00034018217
3.7517644e-05
-0.00033997279
3.6963824e-05
-0.00033719971
3.5396581e-05
-0.00033227896
2.828188e-05
2.0775157e-05
-0.00029076344
6.4262336e-08
-0.00029078585
5.0635814e-08
-0.00029080926
5.2288686e-08
-0.00029083311
4.9088305e-08
-0.00029085814
4.9110262e-08
-0.00029088398
4.922635e-08
-0.00029091123
4.9721597e-08
-0.00029093976
5.1215927e-08
-0.00029096999
5.2632416e-08
-0.00029100196
5.5008256e-08
-0.00029103597
5.740419e-08
-0.00029107217
6.0593744e-08
-0.00029111083
6.3982306e-08
-0.00029115214
6.8056541e-08
-0.00029119639
7.2489297e-08
-0.00029124381
7.757341e-08
-0.00029129469
8.3151188e-08
-0.00029134931
8.9404495e-08
-0.000291408
9.6276233e-08
-0.00029147107
1.0389189e-07
-0.00029153889
1.1225417e-07
-0.00029161182
1.214647e-07
-0.00029169026
1.3156398e-07
-0.00029177464
1.4264852e-07
-0.00029186539
1.547858e-07
-0.00029196301
1.6807813e-07
-0.00029206799
1.8261528e-07
-0.00029218086
1.9851211e-07
-0.0002923022
2.1587902e-07
-0.00029243259
2.3484783e-07
-0.00029257268
2.5554874e-07
-0.00029272312
2.7813189e-07
-0.00029288461
3.0274962e-07
-0.00029305787
3.2956205e-07
-0.00029324366
3.5873937e-07
-0.00029344277
3.9044861e-07
-0.00029365599
4.248719e-07
-0.00029388417
4.62179e-07
-0.00029412815
5.0255259e-07
-0.00029438879
5.4615493e-07
-0.00029466696
5.9315356e-07
-0.00029496351
6.4368257e-07
-0.00029527927
6.9786808e-07
-0.00029561507
7.557954e-07
-0.00029597164
8.1751445e-07
-0.00029634969
8.8302501e-07
-0.00029674982
9.5226753e-07
-0.00029717252
1.0251137e-06
-0.00029761817
1.1013518e-06
-0.00029808697
1.1806795e-06
-0.00029857894
1.2626918e-06
-0.00029909389
1.346872e-06
-0.00029963138
1.4325837e-06
-0.00030019072
1.5190686e-06
-0.0003007709
1.6054389e-06
-0.00030137059
1.6906845e-06
-0.00030198814
1.7736758e-06
-0.00030262152
1.8531752e-06
-0.00030326835
1.9278514e-06
-0.00030392587
1.9963039e-06
-0.00030459096
2.0570805e-06
-0.00030526016
2.1087152e-06
-0.00030592967
2.1497585e-06
-0.00030659543
2.1788157e-06
-0.00030725309
2.194586e-06
-0.00030789815
2.1959042e-06
-0.00030852598
2.1817849e-06
-0.00030913188
2.1514545e-06
-0.0003097112
2.1043972e-06
-0.0003102594
2.0403853e-06
-0.00031077219
1.9595078e-06
-0.00031124556
1.8621954e-06
-0.00031167594
1.7492381e-06
-0.00031206028
1.6217908e-06
-0.00031239616
1.4813762e-06
-0.00031268189
1.3298775e-06
-0.00031291656
1.1695083e-06
-0.00031310021
1.0027841e-06
-0.00031323379
8.3245477e-07
-0.0003133193
6.6143628e-07
-0.00031335971
4.9267903e-07
-0.00031335903
3.2909301e-07
-0.00031332204
1.7314986e-07
-0.00031325475
2.7300987e-08
-0.00031316206
-1.0874906e-07
-0.00031305292
-2.3403264e-07
-0.0003129397
-3.4523388e-07
-0.00031283197
-4.422636e-07
-0.00031273885
-5.2592936e-07
-0.00031266922
-5.9625954e-07
-0.00031263214
-6.5239035e-07
-0.0003126371
-6.9164413e-07
-0.00031269457
-7.0834704e-07
-0.00031281653
-6.9236353e-07
-0.00031301657
-6.2805326e-07
-0.00031330955
-4.9377786e-07
-0.00031370906
-2.6274205e-07
-0.00031422688
9.5227733e-08
-0.00031485856
5.9992264e-07
-0.00031560676
1.2708055e-06
-0.00031650342
2.132646e-06
-0.00031758424
3.1969175e-06
-0.0003188739
4.4558029e-06
-0.00032038654
5.8852224e-06
-0.00032213238
7.4533677e-06
-0.00032411373
9.1304844e-06
-0.00032632189
1.0890726e-05
-0.00032873515
1.2721615e-05
-0.00033131837
1.4616558e-05
-0.00033402104
1.6585e-05
-0.0003367774
1.8630852e-05
-0.00033950227
2.0772114e-05
-0.00034209192
2.299433e-05
-0.00034441734
2.5299598e-05
-0.00034632932
2.7606888e-05
-0.00034765094
2.9880268e-05
-0.00034819536
3.1897242e-05
-0.00034775924
3.3599729e-05
-0.00034617617
3.4481907e-05
-0.00034328708
3.4628555e-05
-0.00033917185
3.2848597e-05
-0.00033378547
3.0010194e-05
-0.00032844961
2.2946026e-05
1.4906143e-05
-0.00031525414
8.8638156e-08
-0.00031528166
7.8156865e-08
-0.0003153106
8.1228391e-08
-0.00031534103
7.9514724e-08
-0.00031537327
8.1357332e-08
-0.00031540714
8.3094053e-08
-0.00031544314
8.5715439e-08
-0.0003154812
8.9280927e-08
-0.00031552176
9.3190183e-08
-0.0003155649
9.8147326e-08
-0.00031561097
1.0347837e-07
-0.00031566017
1.0978903e-07
-0.00031571281
1.166273e-07
-0.00031576916
1.2440411e-07
-0.00031582954
1.3287181e-07
-0.00031589426
1.4229599e-07
-0.00031596368
1.5256764e-07
-0.00031603814
1.6386666e-07
-0.00031611804
1.7617027e-07
-0.00031620376
1.8961543e-07
-0.00031629574
2.0423283e-07
-0.00031639442
2.2014299e-07
-0.00031650027
2.3741187e-07
-0.00031661378
2.561591e-07
-0.00031673547
2.7647656e-07
-0.00031686588
2.98492e-07
-0.00031700558
3.2231874e-07
-0.00031715517
3.4809779e-07
-0.00031731525
3.7596156e-07
-0.00031748647
4.0606696e-07
-0.00031766949
4.3856315e-07
-0.00031786497
4.7362128e-07
-0.00031807364
5.1141102e-07
-0.00031829618
5.5210345e-07
-0.00031853332
5.9588528e-07
-0.0003187858
6.4292777e-07
-0.00031905435
6.934161e-07
-0.00031933968
7.4750898e-07
-0.0003196425
8.0537895e-07
-0.00031996351
8.6715972e-07
-0.00032030334
9.3298952e-07
-0.00032066261
1.0029512e-06
-0.00032104186
1.0771142e-06
-0.00032144155
1.1554872e-06
-0.00032186207
1.2380287e-06
-0.00032230367
1.3246287e-06
-0.0003227665
1.4150983e-06
-0.00032325055
1.5091603e-06
-0.00032375563
1.6064321e-06
-0.00032428137
1.7064194e-06
-0.00032482718
1.8085038e-06
-0.00032539224
1.9119342e-06
-0.00032597548
2.0158201e-06
-0.00032657554
2.1191325e-06
-0.0003271908
2.220696e-06
-0.00032781932
2.3192028e-06
-0.00032845886
2.4132183e-06
-0.00032910688
2.5011977e-06
-0.00032976054
2.5815065e-06
-0.00033041669
2.6524527e-06
-0.00033107191
2.7123091e-06
-0.00033172256
2.7593624e-06
-0.00033236475
2.7919492e-06
-0.00033299444
2.8085043e-06
-0.00033360746
2.8076078e-06
-0.00033419959
2.7880348e-06
-0.00033476662
2.7488086e-06
-0.0003353044
2.6892387e-06
-0.00033580898
2.6089739e-06
-0.00033627663
2.5080399e-06
-0.00033670399
2.3868706e-06
-0.00033708814
2.2463396e-06
-0.00033742668
2.0877796e-06
-0.00033771788
1.9129909e-06
-0.00033796075
1.7242447e-06
-0.00033815515
1.5242765e-06
-0.00033830189
1.3162503e-06
-0.00033840283
1.103725e-06
-0.00033846095
8.9057256e-07
-0.0003384804
6.8088262e-07
-0.00033846653
4.7881836e-07
-0.00033842585
2.8841295e-07
-0.00033836613
1.1342486e-07
-0.00033829558
-4.3248269e-08
-0.00033822511
-1.7922161e-07
-0.00033816763
-2.9150914e-07
-0.00033813404
-3.7882097e-07
-0.0003381343
-4.4201075e-07
-0.00033817803
-4.8219709e-07
-0.00033827384
-5.0044901e-07
-0.00033842901
-4.9721761e-07
-0.00033864944
-4.7121295e-07
-0.00033893947
-4.1831652e-07
-0.00033930168
-3.3016061e-07
-0.00033973632
-1.9341566e-07
-0.00034024114
1.1042291e-08
-0.00034080879
3.0491021e-07
-0.00034142709
7.1353056e-07
-0.00034209267
1.2654996e-06
-0.00034281162
1.9897624e-06
-0.00034358685
2.9078724e-06
-0.00034441432
4.0243884e-06
-0.00034528855
5.3300318e-06
-0.00034620673
6.8033998e-06
-0.00034716537
8.4120122e-06
-0.00034815783
1.0122947e-05
-0.00034917217
1.1905064e-05
-0.00035018809
1.3737535e-05
-0.00035117577
1.5604237e-05
-0.00035209312
1.7502347e-05
-0.00035288616
1.9423895e-05
-0.00035348614
2.1372094e-05
-0.00035381297
2.3321152e-05
-0.0003537721
2.5258734e-05
-0.00035326492
2.7099707e-05
-0.00035218528
2.880063e-05
-0.00035044454
3.0156497e-05
-0.00034796107
3.1116256e-05
-0.00034472245
3.1243288e-05
-0.00034071914
3.0625245e-05
-0.00033617437
2.8303831e-05
-0.00033112703
2.4962848e-05
-0.00032664905
1.8468051e-05
1.0837691e-05
-0.00032615562
1.1578873e-07
-0.00032618675
1.0928223e-07
-0.00032621949
1.1396684e-07
-0.00032625446
1.1448649e-07
-0.00032629166
1.1855544e-07
-0.00032633109
1.2252878e-07
-0.00032637314
1.2776441e-07
-0.00032641785
1.3398534e-07
-0.00032646559
1.4093739e-07
-0.00032651653
1.4908167e-07
-0.00032657101
1.5796322e-07
-0.00032662928
1.6805495e-07
-0.00032669168
1.7903066e-07
-0.00032675852
1.9124049e-07
-0.00032683016
2.0451019e-07
-0.00032690695
2.1908517e-07
-0.00032698928
2.3490302e-07
-0.00032707756
2.5214525e-07
-0.00032717221
2.7082259e-07
-0.00032727368
2.9108517e-07
-0.00032738244
3.1299096e-07
-0.00032749898
3.3667969e-07
-0.00032762381
3.6224134e-07
-0.00032775747
3.8981766e-07
-0.00032790051
4.1952232e-07
-0.00032805352
4.5150589e-07
-0.00032821711
4.8590099e-07
-0.00032839188
5.2287032e-07
-0.00032857848
5.6256194e-07
-0.00032877756
6.0515126e-07
-0.0003289898
6.5079772e-07
-0.00032921586
6.9968422e-07
-0.00032945644
7.519867e-07
-0.00032971221
8.0787366e-07
-0.00032998385
8.675299e-07
-0.00033027203
9.3110994e-07
-0.0003305774
9.9878561e-07
-0.00033090058
1.0706844e-06
-0.00033124215
1.1469462e-06
-0.00033160264
1.2276506e-06
-0.00033198253
1.3128804e-06
-0.00033238222
1.4026384e-06
-0.00033280201
1.4969088e-06
-0.00033324212
1.5955939e-06
-0.00033370262
1.698531e-06
-0.00033418346
1.8054714e-06
-0.00033468443
1.9160697e-06
-0.00033520515
2.0298747e-06
-0.00033574503
2.1463108e-06
-0.00033630328
2.2646744e-06
-0.0003368789
2.3841212e-06
-0.00033747062
2.5036596e-06
-0.00033807695
2.6221462e-06
-0.00033869611
2.7382899e-06
-0.00033932606
2.850646e-06
-0.00033996449
2.9576356e-06
-0.00034060883
3.0575553e-06
-0.00034125623
3.1485988e-06
-0.00034190361
3.228883e-06
-0.00034254764
3.2964879e-06
-0.00034318481
3.3494825e-06
-0.00034381143
3.3859833e-06
-0.00034442368
3.4041966e-06
-0.00034501765
3.4024737e-06
-0.00034558941
3.379365e-06
-0.00034613505
3.3336765e-06
-0.00034665077
3.2645306e-06
-0.00034713294
3.1714082e-06
-0.00034757818
3.0542092e-06
-0.00034798343
2.9132949e-06
-0.00034834609
2.7495234e-06
-0.00034866403
2.5642862e-06
-0.00034893578
2.3595306e-06
-0.00034916056
2.137771e-06
-0.00034933841
1.9020928e-06
-0.00034947028
1.6561473e-06
-0.00034955814
1.4041075e-06
-0.00034960505
1.1506315e-06
-0.00034961523
9.0075683e-07
-0.00034959414
6.5979357e-07
-0.00034954846
4.3313439e-07
-0.00034948608
2.260393e-07
-0.00034941609
4.3435312e-08
-0.00034934865
-1.1069704e-07
-0.00034929533
-2.325337e-07
-0.00034926738
-3.1946063e-07
-0.00034927493
-3.7127309e-07
-0.00034932783
-3.8911065e-07
-0.00034943468
-3.7534192e-07
-0.00034960244
-3.3269238e-07
-0.00034983595
-2.6370975e-07
-0.00035013759
-1.695752e-07
-0.00035050699
-4.8917057e-08
-0.00035094053
1.0338289e-07
-0.00035143122
2.9727201e-07
-0.00035196882
5.4864453e-07
-0.00035254258
8.7867111e-07
-0.00035314158
1.3125302e-06
-0.00035375432
1.8782415e-06
-0.00035436544
2.6008797e-06
-0.00035495513
3.4975644e-06
-0.0003555059
4.5751515e-06
-0.00035600216
5.826292e-06
-0.00035642997
7.2312121e-06
-0.00035677878
8.7608249e-06
-0.00035703949
1.0383657e-05
-0.00035720244
1.2068014e-05
-0.00035725441
1.3789507e-05
-0.00035717693
1.5526751e-05
-0.00035694348
1.7268896e-05
-0.00035651978
1.9000197e-05
-0.00035586159
2.0713908e-05
-0.00035491863
2.2378189e-05
-0.00035363282
2.3972927e-05
-0.00035194909
2.5415978e-05
-0.0003498124
2.6663938e-05
-0.00034719264
2.7536742e-05
-0.00034407005
2.7993661e-05
-0.00034049956
2.7672799e-05
-0.00033653165
2.6657333e-05
-0.00033243817
2.4210352e-05
-0.00032832455
2.0849234e-05
-0.00032501693
1.5160424e-05
8.4013649e-06
-0.0003304003
1.4489797e-07
-0.00033043357
1.4255504e-07
-0.00033046847
1.4886869e-07
-0.00033050604
1.5204873e-07
-0.000330546
1.5852356e-07
-0.00033058859
1.6511614e-07
-0.00033063405
1.7322611e-07
-0.00033068252
1.8245703e-07
-0.00033073435
1.927635e-07
-0.00033078973
2.044571e-07
-0.00033084901
2.1724293e-07
-0.00033091245
2.3150259e-07
-0.00033098043
2.4701108e-07
-0.00033105327
2.6407642e-07
-0.00033113135
2.8258757e-07
-0.00033121504
3.0277836e-07
-0.00033130477
3.2462868e-07
-0.00033140095
3.4832571e-07
-0.00033150404
3.7391174e-07
-0.0003316145
4.0155187e-07
-0.00033173284
4.3133001e-07
-0.00033185957
4.6340557e-07
-0.00033199522
4.9789116e-07
-0.00033214035
5.3494998e-07
-0.00033229554
5.7471548e-07
-0.0003324614
6.1735932e-07
-0.00033263853
6.6303039e-07
-0.00033282757
7.1191002e-07
-0.00033302916
7.6415759e-07
-0.00033324397
8.1996237e-07
-0.00033347266
8.7948803e-07
-0.0003337159
9.4292285e-07
-0.00033397436
1.0104415e-06
-0.00033424868
1.0822016e-06
-0.00033453953
1.1583791e-06
-0.00033484753
1.2391024e-06
-0.00033517326
1.3245175e-06
-0.00033551728
1.4147067e-06
-0.0003358801
1.5097643e-06
-0.00033626215
1.6097014e-06
-0.0003366638
1.714531e-06
-0.00033708532
1.8241603e-06
-0.00033752689
1.9384732e-06
-0.00033798854
2.0572502e-06
-0.0003384702
2.1801925e-06
-0.00033897163
2.3068989e-06
-0.00033949242
2.4368542e-06
-0.00034003196
2.5694227e-06
-0.00034058948
2.703827e-06
-0.00034116395
2.8391482e-06
-0.00034175415
2.9743136e-06
-0.00034235858
3.1080926e-06
-0.00034297553
3.2390937e-06
-0.00034360301
3.3657742e-06
-0.0003442388
3.4864339e-06
-0.00034488041
3.5992425e-06
-0.0003455251
3.7022512e-06
-0.00034616992
3.7934207e-06
-0.00034681169
3.8706515e-06
-0.00034744704
3.9318313e-06
-0.00034807242
3.9748641e-06
-0.00034868417
3.9977374e-06
-0.00034927854
3.9985693e-06
-0.00034985174
3.9756705e-06
-0.00035039998
3.9276043e-06
-0.00035091955
3.8532497e-06
-0.00035140689
3.7518678e-06
-0.00035185863
3.6231485e-06
-0.0003522717
3.4672772e-06
-0.00035264339
3.284982e-06
-0.00035297143
3.0775717e-06
-0.00035325413
2.846978e-06
-0.00035349037
2.5957784e-06
-0.00035367981
2.327211e-06
-0.0003538229
2.0451751e-06
-0.00035392098
1.7542277e-06
-0.0003539764
1.4595279e-06
-0.00035399256
1.1667949e-06
-0.00035397398
8.8217825e-07
-0.00035392632
6.1213505e-07
-0.00035385638
3.6318954e-07
-0.00035377205
1.4171203e-07
-0.00035368212
-4.6492012e-08
-0.00035359649
-1.9633122e-07
-0.00035352527
-3.0375418e-07
-0.00035347819
-3.6653698e-07
-0.00035346471
-3.8475492e-07
-0.00035349348
-3.6033861e-07
-0.000353572
-2.9682836e-07
-0.00035370595
-1.9873884e-07
-0.00035389882
-7.0839596e-08
-0.0003541515
8.310952e-08
-0.00035446196
2.6154298e-07
-0.00035482547
4.6688673e-07
-0.00035523482
7.0661856e-07
-0.00035567993
9.9375933e-07
-0.00035614828
1.3470203e-06
-0.00035662455
1.7888049e-06
-0.00035708901
2.3427019e-06
-0.00035751955
3.031419e-06
-0.00035789358
3.8715926e-06
-0.00035818788
4.8694481e-06
-0.00035838159
6.020001e-06
-0.00035845834
7.3079618e-06
-0.0003584062
8.7086894e-06
-0.00035821681
1.019427e-05
-0.00035788393
1.1735133e-05
-0.00035740084
1.3306414e-05
-0.00035675873
1.4884642e-05
-0.00035594408
1.6454247e-05
-0.00035493875
1.7994861e-05
-0.00035371816
1.9493322e-05
-0.00035225497
2.0915e-05
-0.00035051777
2.2235724e-05
-0.0003484807
2.3378906e-05
-0.00034611973
2.430297e-05
-0.0003434343
2.4851318e-05
-0.00034042895
2.4988311e-05
-0.00033717045
2.4414295e-05
-0.00033370753
2.3194407e-05
-0.00033026506
2.0767883e-05
-0.00032692955
1.7513728e-05
-0.00032431311
1.2543981e-05
6.6690576e-06
-0.00033186413
1.7511564e-07
-0.00033189833
1.7674747e-07
-0.00033193412
1.8466812e-07
-0.00033197277
1.9069696e-07
-0.00033201388
1.996288e-07
-0.00033205781
2.0904276e-07
-0.00033210471
2.201341e-07
-0.00033215481
2.3255805e-07
-0.00033220841
2.4635703e-07
-0.00033226573
2.6177566e-07
-0.00033232711
2.786259e-07
-0.00033239284
2.9723497e-07
-0.00033246329
3.1745621e-07
-0.00033253878
3.3957199e-07
-0.00033261972
3.6352461e-07
-0.00033270648
3.8954379e-07
-0.0003327995
4.1764743e-07
-0.00033289921
4.4803179e-07
-0.00033300607
4.8076871e-07
-0.00033312055
5.1603975e-07
-0.00033324318
5.5395368e-07
-0.00033337446
5.9469002e-07
-0.00033351495
6.383831e-07
-0.00033366522
6.8521734e-07
-0.00033382585
7.3534487e-07
-0.00033399745
7.8895764e-07
-0.00033418064
8.4621936e-07
-0.00033437606
9.0732865e-07
-0.00033458435
9.724543e-07
-0.00033480619
1.0417975e-06
-0.00033504222
1.1155237e-06
-0.00033529313
1.193824e-06
-0.00033555955
1.2768685e-06
-0.00033584215
1.3648e-06
-0.00033614155
1.4577804e-06
-0.00033645836
1.5559071e-06
-0.00033679314
1.6592962e-06
-0.00033714641
1.7679798e-06
-0.00033751865
1.8820016e-06
-0.00033791024
2.0012981e-06
-0.00033832152
2.125807e-06
-0.00033875269
2.2553342e-06
-0.00033920388
2.3896574e-06
-0.00033967506
2.5284299e-06
-0.00034016608
2.671212e-06
-0.00034067662
2.8174453e-06
-0.00034120621
2.9664417e-06
-0.00034175417
3.117378e-06
-0.00034231961
3.2692736e-06
-0.00034290146
3.4209945e-06
-0.00034349839
3.5712408e-06
-0.00034410884
3.7185454e-06
-0.00034473102
3.8612734e-06
-0.00034536288
3.9976359e-06
-0.00034600213
4.1256849e-06
-0.00034664624
4.2433467e-06
-0.00034729242
4.348437e-06
-0.00034793769
4.4386934e-06
-0.00034857885
4.5118109e-06
-0.00034921252
4.5654958e-06
-0.00034983515
4.5974973e-06
-0.0003504431
4.6056842e-06
-0.00035103262
4.588095e-06
-0.00035159996
4.5430083e-06
-0.00035214136
4.4690064e-06
-0.00035265316
4.3650462e-06
-0.00035313182
4.2305303e-06
-0.00035357403
4.065359e-06
-0.00035397676
3.8700016e-06
-0.00035433732
3.6455494e-06
-0.00035465351
3.3937545e-06
-0.00035492361
3.1170772e-06
-0.00035514654
2.8187073e-06
-0.00035532191
2.502581e-06
-0.00035545011
2.1733755e-06
-0.00035553238
1.8365045e-06
-0.0003555709
1.4980468e-06
-0.00035556881
1.1646991e-06
-0.00035553024
8.4361531e-07
-0.00035546038
5.422711e-07
-0.00035536536
2.6817137e-07
-0.00035525226
2.8613208e-08
-0.00035512895
-1.6980586e-07
-0.00035500392
-3.2135626e-07
-0.0003548859
-4.2178105e-07
-0.00035478343
-4.6900119e-07
-0.00035470489
-4.6329915e-07
-0.00035465807
-4.0715279e-07
-0.00035464971
-3.0519595e-07
-0.00035468503
-1.6341635e-07
-0.0003547674
1.1526696e-08
-0.00035489805
2.1376815e-07
-0.000355076
4.3948971e-07
-0.00035529765
6.8853709e-07
-0.0003555565
9.6546501e-07
-0.00035584281
1.2800682e-06
-0.0003561431
1.647313e-06
-0.00035644058
2.0862813e-06
-0.00035671602
2.6181505e-06
-0.00035694745
3.2628488e-06
-0.00035711113
4.0352715e-06
-0.00035718455
4.9428656e-06
-0.00035714773
5.9831804e-06
-0.00035698431
7.1445454e-06
-0.00035668277
8.4071479e-06
-0.00035623577
9.7472725e-06
-0.0003556392
1.1138555e-05
-0.00035488999
1.2557207e-05
-0.0003539847
1.397935e-05
-0.00035291713
1.538668e-05
-0.00035167828
1.6756007e-05
-0.00035025468
1.8069721e-05
-0.00034863142
1.9291741e-05
-0.00034679086
2.0395172e-05
-0.00034472105
2.1309088e-05
-0.00034241175
2.1993671e-05
-0.00033987437
2.2313945e-05
-0.00033712422
2.2238154e-05
-0.00033423345
2.1523529e-05
-0.00033125943
2.0220391e-05
-0.00032840503
1.7913483e-05
-0.0003257684
1.4877097e-05
-0.00032377912
1.0554694e-05
5.4705418e-06
-0.00033231542
2.0584335e-07
-0.00033234978
2.1110005e-07
-0.00033238571
2.2059917e-07
-0.00033242452
2.2950921e-07
-0.00033246577
2.4087816e-07
-0.00033250992
2.5319334e-07
-0.00033255706
2.6728e-07
-0.00033260747
2.8296831e-07
-0.00033266141
3.0029393e-07
-0.00033271914
3.195001e-07
-0.00033278097
3.4045943e-07
-0.00033284721
3.6347644e-07
-0.00033291822
3.8846164e-07
-0.00033299433
4.1568653e-07
-0.00033307594
4.4513726e-07
-0.00033316345
4.7704632e-07
-0.00033325726
5.1146535e-07
-0.00033335784
5.4860293e-07
-0.00033346562
5.8855849e-07
-0.00033358112