/*--------------------------------*- C++ -*----------------------------------*\
| =========                 |                                                 |
| \\      /  F ield         | foam-extend: Open Source CFD                    |
|  \\    /   O peration     | Version:     4.1                                |
|   \\  /    A nd           | Web:         http://www.foam-extend.org         |
|    \\/     M anipulation  |                                                 |
\*---------------------------------------------------------------------------*/
FoamFile
{
    version     2.0;
    format      ascii;
    class       volVectorField;
    location    "0.7";
    object      U;
}
// * * * * * * * * * * * * * * * * * * * * * * * * * * * * * * * * * * * * * //

dimensions      [0 1 -1 0 0 0 0];

internalField   nonuniform List<vector> 
16126
(
(0.1845187 -1.1807696e-05 0)
(0.18457831 6.4006031e-07 0)
(0.18454581 -5.2722931e-07 0)
(0.18458785 5.8061034e-07 0)
(0.18456286 1.6522688e-06 0)
(0.18458673 1.1858801e-06 0)
(0.18457033 2.3847006e-06 0)
(0.18458131 1.8348949e-06 0)
(0.18457013 2.7657276e-06 0)
(0.18457274 2.7507666e-06 0)
(0.18456325 3.4998225e-06 0)
(0.18456028 3.7679976e-06 0)
(0.18455056 4.4305219e-06 0)
(0.1845436 4.8505982e-06 0)
(0.18453268 5.4841367e-06 0)
(0.18452261 6.0052265e-06 0)
(0.18451006 6.6490612e-06 0)
(0.18449744 7.2508138e-06 0)
(0.18448311 7.9303561e-06 0)
(0.18446832 8.6052614e-06 0)
(0.1844523 9.3358083e-06 0)
(0.18443571 1.0080734e-05 0)
(0.18441825 1.0869264e-05 0)
(0.18440031 1.1679573e-05 0)
(0.18438185 1.252356e-05 0)
(0.18436318 1.3386603e-05 0)
(0.18434442 1.4268407e-05 0)
(0.18432591 1.5152755e-05 0)
(0.18430791 1.602609e-05 0)
(0.18429084 1.6860467e-05 0)
(0.18427516 1.7622989e-05 0)
(0.18426146 1.8258809e-05 0)
(0.18425044 1.8719322e-05 0)
(0.18424294 1.8922829e-05 0)
(0.18423998 1.895969e-05 0)
(0.18424249 1.9090343e-05 0)
(0.18425105 1.9274028e-05 0)
(0.18426681 1.9348804e-05 0)
(0.18429097 1.9277981e-05 0)
(0.18432496 1.9021814e-05 0)
(0.1843703 1.8549142e-05 0)
(0.1844287 1.7828083e-05 0)
(0.18450203 1.682547e-05 0)
(0.18459227 1.5508297e-05 0)
(0.1847016 1.3842136e-05 0)
(0.18483229 1.1793182e-05 0)
(0.18498678 9.3281026e-06 0)
(0.18516756 6.4154964e-06 0)
(0.18537725 3.0266776e-06 0)
(0.18561846 -8.6334014e-07 0)
(0.18589385 -5.2743062e-06 0)
(0.18620599 -1.0219608e-05 0)
(0.18655738 -1.5705093e-05 0)
(0.18695033 -2.172739e-05 0)
(0.18738693 -2.8272848e-05 0)
(0.18786896 -3.5316595e-05 0)
(0.18839782 -4.2821142e-05 0)
(0.18897443 -5.0735745e-05 0)
(0.18959919 -5.8996104e-05 0)
(0.19027189 -6.7523579e-05 0)
(0.19099164 -7.6225565e-05 0)
(0.1917568 -8.4996256e-05 0)
(0.19256499 -9.371703e-05 0)
(0.19341297 -0.00010225825 0)
(0.1942967 -0.00011048079 0)
(0.19521133 -0.00011823906 0)
(0.1961512 -0.00012538307 0)
(0.19710991 -0.00013176235 0)
(0.19808038 -0.00013722991 0)
(0.19905495 -0.00014164615 0)
(0.20002551 -0.00014488321 0)
(0.20098361 -0.00014683021 0)
(0.20192061 -0.00014739676 0)
(0.2028279 -0.00014651778 0)
(0.20369701 -0.00014415678 0)
(0.20451985 -0.00014030778 0)
(0.20528888 -0.00013499596 0)
(0.20599727 -0.00012827243 0)
(0.20663907 -0.00012021256 0)
(0.20720934 -0.0001108781 0)
(0.20770414 -0.000100347 0)
(0.20812071 -8.8498288e-05 0)
(0.20845706 -7.5388672e-05 0)
(0.20871246 -6.0025534e-05 0)
(0.20888612 -4.346851e-05 0)
(0.20898097 -2.446662e-05 0)
(0.20900238 -1.841962e-05 0)
(0.20896296 -1.7223779e-05 0)
(0.2088378 -4.2260458e-06 0)
(0.20862018 1.154187e-05 0)
(0.20830308 3.0036057e-05 0)
(0.20788147 4.9795374e-05 0)
(0.20735098 7.0304679e-05 0)
(0.20670931 9.05965e-05 0)
(0.20595898 0.00010938938 0)
(0.20511113 0.0001254778 0)
(0.20419082 0.00013740494 0)
(0.20324289 0.00014841193 0)
(0.20233318 0.00016041565 0)
(0.20154757 0.00020958956 0)
(0.20101798 0.00032020901 0)
(0.20090073 0.00033870995 0)
(0.20148608 0.00025248458 0)
(0.20284742 0.00018687385 0)
(0.20506595 0.00014623651 0)
(0.20820127 0.00012107873 0)
(0.21237045 8.9076662e-05 0)
(0.21768732 1.6580864e-05 0)
(0.22439939 -0.00013369484 0)
(0.23274188 -0.00042461092 0)
(0.24322102 -0.0009202394 0)
(0.25625707 -0.0017294487 0)
(0.2727778 -0.0029424022 0)
(0.29336671 -0.0047208758 0)
(0.31955379 -0.0071495631 0)
(0.35181769 -0.010437113 0)
(0.39252654 -0.01458002 0)
(0.44122052 -0.019842488 0)
(0.50171935 -0.025943404 0)
(0.57038711 -0.033359423 0)
(0.65503277 -0.040683509 0)
(0.74108178 -0.049840804 0)
(0.85369082 -0.051310186 0)
(0.92415565 -0.06280053 0)
(0.51347085 -3.7180853e-05 0)
(0.51354463 -1.0999368e-05 0)
(0.51354134 -1.2004274e-05 0)
(0.51359307 -7.2991784e-06 0)
(0.51359643 -4.4265252e-06 0)
(0.5136327 -3.5844091e-06 0)
(0.5136415 -6.4595041e-07 0)
(0.51366852 -3.078905e-07 0)
(0.51368048 1.9986671e-06 0)
(0.5137026 2.5751102e-06 0)
(0.51371702 4.3447343e-06 0)
(0.51373714 5.0941896e-06 0)
(0.51375376 6.4917448e-06 0)
(0.51377388 7.3053485e-06 0)
(0.51379294 8.4370634e-06 0)
(0.51381464 9.2256177e-06 0)
(0.51383683 1.0138869e-05 0)
(0.51386155 1.0826517e-05 0)
(0.51388793 1.1520242e-05 0)
(0.5139172 1.203108e-05 0)
(0.51394917 1.2463891e-05 0)
(0.51398471 1.2709003e-05 0)
(0.51402406 1.2801728e-05 0)
(0.51406796 1.2667483e-05 0)
(0.51411692 1.2300423e-05 0)
(0.51417171 1.1636748e-05 0)
(0.51423305 1.0642046e-05 0)
(0.51430184 9.248555e-06 0)
(0.51437899 7.3968671e-06 0)
(0.51446557 5.0037701e-06 0)
(0.5145627 1.9830971e-06 0)
(0.51467164 -1.7758681e-06 0)
(0.51479373 -6.3872333e-06 0)
(0.51493044 -1.1989261e-05 0)
(0.51508334 -1.8682825e-05 0)
(0.51525432 -2.6485935e-05 0)
(0.51544589 -3.5530188e-05 0)
(0.51566038 -4.6029802e-05 0)
(0.51590034 -5.8143393e-05 0)
(0.51616851 -7.2042563e-05 0)
(0.51646783 -8.7897689e-05 0)
(0.51680143 -0.00010588192 0)
(0.51717265 -0.00012616803 0)
(0.517585 -0.00014892157 0)
(0.51804218 -0.00017429964 0)
(0.51854796 -0.00020244226 0)
(0.51910626 -0.00023346759 0)
(0.51972101 -0.00026746347 0)
(0.5203961 -0.00030448003 0)
(0.52113537 -0.00034452147 0)
(0.52194243 -0.00038753695 0)
(0.52282066 -0.00043341237 0)
(0.52377303 -0.00048196253 0)
(0.52480203 -0.00053292335 0)
(0.52590952 -0.00058594633 0)
(0.52709663 -0.0006405948 0)
(0.52836363 -0.00069634138 0)
(0.52970978 -0.00075256901 0)
(0.53113325 -0.00080857491 0)
(0.53263102 -0.00086357673 0)
(0.53419878 -0.00091672306 0)
(0.53583088 -0.00096710751 0)
(0.53752028 -0.0010137844 0)
(0.53925859 -0.0010557895 0)
(0.54103607 -0.0010921614 0)
(0.54284171 -0.001121967 0)
(0.54466336 -0.0011443265 0)
(0.54648782 -0.0011584402 0)
(0.54830111 -0.0011636156 0)
(0.55008859 -0.0011592927 0)
(0.55183531 -0.0011450672 0)
(0.55352621 -0.0011207137 0)
(0.55514645 -0.0010862007 0)
(0.55668171 -0.0010417071 0)
(0.55811852 -0.0009876272 0)
(0.55944455 -0.00092457481 0)
(0.56064894 -0.00085337149 0)
(0.56172258 -0.00077503455 0)
(0.56265831 -0.00069073823 0)
(0.56345117 -0.00060179146 0)
(0.5640985 -0.00050954329 0)
(0.56459996 -0.00041545678 0)
(0.56495759 -0.00032078289 0)
(0.56517514 -0.00022745271 0)
(0.56525859 -0.00013656145 0)
(0.56521457 -5.4248866e-05 0)
(0.56504277 2.9377457e-05 0)
(0.56471027 0.00012660149 0)
(0.56423719 0.00023267643 0)
(0.56362374 0.00034533264 0)
(0.56287348 0.00046325712 0)
(0.56198858 0.00058625582 0)
(0.56097449 0.00071301151 0)
(0.55984336 0.00083995447 0)
(0.55862092 0.00095938839 0)
(0.55735446 0.0010575127 0)
(0.55612549 0.0011133128 0)
(0.5550583 0.0010956813 0)
(0.55434724 0.00097687937 0)
(0.55424993 0.00067180585 0)
(0.55511697 0.00010900976 0)
(0.5571704 -0.00065270237 0)
(0.56042564 -0.0015533998 0)
(0.56516151 -0.0025804286 0)
(0.57159774 -0.0037273559 0)
(0.57992061 -0.0050064831 0)
(0.59029184 -0.0064358319 0)
(0.60282699 -0.0080613525 0)
(0.61767199 -0.009937624 0)
(0.63491199 -0.012157348 0)
(0.65472204 -0.01480495 0)
(0.6771368 -0.018013804 0)
(0.70236826 -0.021861558 0)
(0.73027714 -0.026496516 0)
(0.76109402 -0.031907247 0)
(0.79421033 -0.038218326 0)
(0.82989992 -0.045172705 0)
(0.86643693 -0.05287612 0)
(0.90443891 -0.060505305 0)
(0.93951271 -0.06845173 0)
(0.97399141 -0.074157503 0)
(0.99694827 -0.080369992 0)
(1.0166214 -0.074746174 0)
(1.0120354 -0.080157252 0)
(0.7543761 -7.01997e-05 0)
(0.75446801 -3.8302099e-05 0)
(0.75449 -3.8894239e-05 0)
(0.75456114 -3.1455495e-05 0)
(0.75459531 -2.8197569e-05 0)
(0.75465641 -2.6341251e-05 0)
(0.75469912 -2.3363345e-05 0)
(0.7547571 -2.2874431e-05 0)
(0.75480691 -2.0979073e-05 0)
(0.75486621 -2.1002315e-05 0)
(0.75492316 -2.0100867e-05 0)
(0.75498698 -2.0465571e-05 0)
(0.75505191 -2.0407845e-05 0)
(0.75512284 -2.1200677e-05 0)
(0.75519717 -2.1923605e-05 0)
(0.75527763 -2.3283328e-05 0)
(0.75536324 -2.4809664e-05 0)
(0.7554557 -2.689546e-05 0)
(0.75555491 -2.9322559e-05 0)
(0.7556621 -3.2321987e-05 0)
(0.75577765 -3.5816115e-05 0)
(0.75590264 -3.9959867e-05 0)
(0.75603777 -4.4757443e-05 0)
(0.75618412 -5.0335022e-05 0)
(0.75634262 -5.6749751e-05 0)
(0.75651446 -6.4125682e-05 0)
(0.75670079 -7.25602e-05 0)
(0.75690295 -8.2191119e-05 0)
(0.75712233 -9.3151671e-05 0)
(0.75736045 -0.0001056038 0)
(0.75761896 -0.00011971508 0)
(0.75789963 -0.00013567834 0)
(0.75820436 -0.00015369282 0)
(0.75853517 -0.00017398157 0)
(0.75889426 -0.00019679604 0)
(0.75928401 -0.00022245495 0)
(0.75970699 -0.00025122843 0)
(0.76016585 -0.00028335825 0)
(0.76066344 -0.00031914008 0)
(0.76120273 -0.00035887509 0)
(0.76178683 -0.00040286571 0)
(0.76241898 -0.00045140825 0)
(0.76310252 -0.00050478631 0)
(0.76384085 -0.00056325781 0)
(0.76463744 -0.00062704844 0)
(0.76549571 -0.00069633585 0)
(0.76641904 -0.0007712379 0)
(0.76741068 -0.0008517962 0)
(0.76847369 -0.00093796079 0)
(0.76961081 -0.0010295738 0)
(0.77082443 -0.0011263524 0)
(0.77211647 -0.0012278738 0)
(0.77348823 -0.0013335612 0)
(0.77494032 -0.0014426719 0)
(0.77647253 -0.0015542893 0)
(0.77808371 -0.0016673197 0)
(0.77977169 -0.0017804929 0)
(0.78153311 -0.0018923699 0)
(0.78336343 -0.0020013566 0)
(0.78525677 -0.002105724 0)
(0.78720592 -0.0022036356 0)
(0.78920233 -0.0022931817 0)
(0.79123608 -0.0023724182 0)
(0.79329595 -0.0024394132 0)
(0.79536955 -0.0024922949 0)
(0.79744336 -0.0025293057 0)
(0.79950296 -0.0025488534 0)
(0.8015332 -0.0025495669 0)
(0.80351845 -0.0025303459 0)
(0.80544284 -0.0024904099 0)
(0.80729057 -0.0024293383 0)
(0.80904621 -0.0023471098 0)
(0.81069502 -0.0022441249 0)
(0.8122233 -0.0021212284 0)
(0.81361869 -0.0019797106 0)
(0.81487054 -0.0018213057 0)
(0.81597013 -0.0016481617 0)
(0.81691101 -0.0014628057 0)
(0.8176892 -0.0012680726 0)
(0.81830333 -0.0010670103 0)
(0.81875466 -0.00086276943 0)
(0.81904723 -0.00065832064 0)
(0.81918717 -0.00045654369 0)
(0.81918326 -0.00025877733 0)
(0.81904325 -6.8876473e-05 0)
(0.81877582 0.0001207883 0)
(0.8183686 0.00031936224 0)
(0.81785936 0.00052015179 0)
(0.81726471 0.00072003669 0)
(0.81660519 0.00091981986 0)
(0.81589798 0.0011185999 0)
(0.8151641 0.0013134649 0)
(0.81443015 0.0014972694 0)
(0.81373343 0.001655522 0)
(0.81312715 0.0017633493 0)
(0.81268657 0.0017827495 0)
(0.81251329 0.0016601003 0)
(0.81274601 0.0013269913 0)
(0.81352899 0.00068697422 0)
(0.8150525 -0.00031022685 0)
(0.81731624 -0.0016166474 0)
(0.82044133 -0.0031893522 0)
(0.82465907 -0.0050611552 0)
(0.83013235 -0.0072378106 0)
(0.83701796 -0.0096618296 0)
(0.84540391 -0.012298822 0)
(0.85534697 -0.015130304 0)
(0.86683932 -0.018172097 0)
(0.87985709 -0.021452391 0)
(0.89429764 -0.025038002 0)
(0.91007241 -0.028984001 0)
(0.92695842 -0.033388215 0)
(0.94479943 -0.038281066 0)
(0.96316511 -0.043750999 0)
(0.9818239 -0.049702991 0)
(0.99995647 -0.056161448 0)
(1.0173236 -0.062713047 0)
(1.0323645 -0.069297951 0)
(1.0451943 -0.074762763 0)
(1.0527441 -0.079219555 0)
(1.05665 -0.079446284 0)
(1.0507853 -0.077435609 0)
(1.0403614 -0.062534179 0)
(1.0190204 -0.047382427 0)
(0.90130686 -0.00010906656 0)
(0.90141848 -7.8381324e-05 0)
(0.90145991 -8.0482691e-05 0)
(0.90155356 -7.2856568e-05 0)
(0.90161492 -7.133047e-05 0)
(0.90170367 -7.0315173e-05 0)
(0.90177873 -6.9495639e-05 0)
(0.90187006 -7.0840542e-05 0)
(0.90195746 -7.156957e-05 0)
(0.90205621 -7.4205677e-05 0)
(0.90215655 -7.6532465e-05 0)
(0.90226645 -8.0322506e-05 0)
(0.90238143 -8.4209194e-05 0)
(0.90250582 -8.9270873e-05 0)
(0.90263781 -9.4757582e-05 0)
(0.90277999 -0.00010129761 0)
(0.90293192 -0.00010852063 0)
(0.90309537 -0.00011680062 0)
(0.90327064 -0.00012598821 0)
(0.90345918 -0.00013632751 0)
(0.90366173 -0.00014779803 0)
(0.90387962 -0.00016058672 0)
(0.90411391 -0.00017475305 0)
(0.90436596 -0.0001904683 0)
(0.90463704 -0.00020784814 0)
(0.90492865 -0.00022707246 0)
(0.90524226 -0.00024830341 0)
(0.9055795 -0.00027174482 0)
(0.90594208 -0.00029760301 0)
(0.90633179 -0.00032611665 0)
(0.90675054 -0.00035753625 0)
(0.90720033 -0.00039214303 0)
(0.90768326 -0.00043022664 0)
(0.90820155 -0.00047210553 0)
(0.90875749 -0.00051808835 0)
(0.90935347 -0.0005684894 0)
(0.90999194 -0.00062365877 0)
(0.91067546 -0.00068396227 0)
(0.91140663 -0.00074976294 0)
(0.91218813 -0.00082142116 0)
(0.91302261 -0.00089928249 0)
(0.91391277 -0.0009836701 0)
(0.91486123 -0.0010748732 0)
(0.91587054 -0.0011731307 0)
(0.91694315 -0.0012786185 0)
(0.91808131 -0.0013914295 0)
(0.91928705 -0.0015115556 0)
(0.9205621 -0.0016388661 0)
(0.92190782 -0.0017730871 0)
(0.92332512 -0.0019137798 0)
(0.92481437 -0.0020603198 0)
(0.92637534 -0.0022118781 0)
(0.92800708 -0.0023674055 0)
(0.92970783 -0.0025256201 0)
(0.93147498 -0.0026850013 0)
(0.93330493 -0.0028437901 0)
(0.93519308 -0.0029999962 0)
(0.93713373 -0.003151415 0)
(0.93912004 -0.0032956527 0)
(0.94114406 -0.0034301613 0)
(0.94319666 -0.0035522828 0)
(0.94526763 -0.0036593028 0)
(0.94734569 -0.0037485101 0)
(0.94941862 -0.003817266 0)
(0.95147335 -0.0038630747 0)
(0.95349614 -0.0038836606 0)
(0.95547274 -0.0038770419 0)
(0.95738865 -0.0038416067 0)
(0.95922931 -0.0037761807 0)
(0.96098042 -0.0036800934 0)
(0.96262819 -0.003553229 0)
(0.96415968 -0.0033960756 0)
(0.96556307 -0.0032097508 0)
(0.96682803 -0.0029960266 0)
(0.96794598 -0.0027573213 0)
(0.96891048 -0.0024966909 0)
(0.96971744 -0.0022177732 0)
(0.97036546 -0.0019247319 0)
(0.97085602 -0.0016221313 0)
(0.97119367 -0.0013148192 0)
(0.97138616 -0.0010076989 0)
(0.97144419 -0.00070560635 0)
(0.97138202 -0.00041265737 0)
(0.97121462 -0.00013277394 0)
(0.97096504 0.00013538906 0)
(0.97063998 0.00039574198 0)
(0.9702881 0.00063970953 0)
(0.96993818 0.00086303395 0)
(0.9696201 0.0010694978 0)
(0.96936083 0.0012578154 0)
(0.96918838 0.0014258106 0)
(0.96913092 0.0015672176 0)
(0.96921912 0.0016697755 0)
(0.96948729 0.0017122215 0)
(0.96997533 0.001661605 0)
(0.97072763 0.001471539 0)
(0.97179222 0.0010796844 0)
(0.97320364 0.00041993731 0)
(0.97500404 -0.00055285514 0)
(0.97712053 -0.0018468702 0)
(0.97964147 -0.0034963404 0)
(0.98268076 -0.0055639846 0)
(0.98634247 -0.0080345749 0)
(0.99067605 -0.010848215 0)
(0.99572121 -0.013945943 0)
(1.0014996 -0.017272143 0)
(1.0080065 -0.020783702 0)
(1.0151892 -0.02446692 0)
(1.0229706 -0.028321652 0)
(1.0312029 -0.032383358 0)
(1.0397313 -0.036675962 0)
(1.0482869 -0.041255674 0)
(1.0566348 -0.046108748 0)
(1.0643294 -0.051259465 0)
(1.0710738 -0.056551439 0)
(1.0761505 -0.061926047 0)
(1.0793195 -0.066918722 0)
(1.0794429 -0.071416543 0)
(1.0767432 -0.074329691 0)
(1.0694264 -0.075855439 0)
(1.0591241 -0.073307029 0)
(1.0435012 -0.068725758 0)
(1.026166 -0.054078877 0)
(1.00997 -0.037760994 0)
(0.97721787 -0.0001564727 0)
(0.97734883 -0.00013090412 0)
(0.97740406 -0.00013560996 0)
(0.97751758 -0.00013002906 0)
(0.97760008 -0.00013164957 0)
(0.97771238 -0.00013315384 0)
(0.97781364 -0.00013602836 0)
(0.97793303 -0.00014086574 0)
(0.9780514 -0.00014599898 0)
(0.97818326 -0.00015318417 0)
(0.97831972 -0.00016076632 0)
(0.97846832 -0.00017015989 0)
(0.97862516 -0.00018028372 0)
(0.97879442 -0.00019206216 0)
(0.97897472 -0.00020490112 0)
(0.97916865 -0.00021937514 0)
(0.9793761 -0.0002352099 0)
(0.97959896 -0.00025277609 0)
(0.97983781 -0.00027199402 0)
(0.98009427 -0.00029313108 0)
(0.98036932 -0.00031622625 0)
(0.98066452 -0.00034150474 0)
(0.98098114 -0.00036908273 0)
(0.98132077 -0.00039917885 0)
(0.98168491 -0.00043196575 0)
(0.98207525 -0.00046767614 0)
(0.98249348 -0.00050652981 0)
(0.98294141 -0.00054878572 0)
(0.98342091 -0.00059470685 0)
(0.98393392 -0.00064458533 0)
(0.98448246 -0.00069872446 0)
(0.98506861 -0.00075745243 0)
(0.9856945 -0.00082110862 0)
(0.98636231 -0.00089005374 0)
(0.98707426 -0.00096466326 0)
(0.98783262 -0.0010453287 0)
(0.98863964 -0.001132423 0)
(0.98949759 -0.0012263132 0)
(0.99040869 -0.0013273608 0)
(0.99137511 -0.0014359096 0)
(0.99239892 -0.0015522706 0)
(0.99348209 -0.0016767103 0)
(0.9946264 -0.001809434 0)
(0.99583342 -0.0019505671 0)
(0.99710449 -0.0021001371 0)
(0.99844061 -0.0022580501 0)
(0.99984244 -0.0024240695 0)
(1.0013102 -0.0025977903 0)
(1.0028435 -0.0027786162 0)
(1.0044417 -0.0029657349 0)
(1.0061031 -0.0031580965 0)
(1.0078257 -0.0033543944 0)
(1.0096065 -0.0035530502 0)
(1.0114418 -0.003752205 0)
(1.0133269 -0.0039497171 0)
(1.0152564 -0.0041431687 0)
(1.0172237 -0.0043298826 0)
(1.0192216 -0.0045069487 0)
(1.0212415 -0.0046712626 0)
(1.0232742 -0.0048195754 0)
(1.0253096 -0.0049485537 0)
(1.0273366 -0.0050548519 0)
(1.0293436 -0.0051351907 0)
(1.0313182 -0.0051864462 0)
(1.0332477 -0.00520574 0)
(1.0351189 -0.0051905366 0)
(1.0369189 -0.005138735 0)
(1.0386345 -0.0050487636 0)
(1.0402531 -0.0049196612 0)
(1.0417629 -0.0047511594 0)
(1.0431526 -0.004543742 0)
(1.0444125 -0.0042987054 0)
(1.0455343 -0.0040181879 0)
(1.0465114 -0.0037052005 0)
(1.0473397 -0.0033636153 0)
(1.0480172 -0.0029981587 0)
(1.048545 -0.0026143419 0)
(1.048927 -0.002218397 0)
(1.0491708 -0.00181712 0)
(1.0492873 -0.0014177137 0)
(1.0492913 -0.0010274774 0)
(1.0492014 -0.00065354933 0)
(1.049039 -0.00030217019 0)
(1.0488312 2.0926249e-05 0)
(1.0486016 0.00031471599 0)
(1.0483942 0.00057187794 0)
(1.0482452 0.00078765174 0)
(1.0481859 0.00096509922 0)
(1.0482468 0.0011043161 0)
(1.048457 0.0012064633 0)
(1.0488409 0.0012702598 0)
(1.0494191 0.0012908479 0)
(1.0502076 0.0012570743 0)
(1.0512173 0.0011482513 0)
(1.0524533 0.00093262427 0)
(1.053912 0.00056696339 0)
(1.0555831 3.2830716e-06 0)
(1.0574323 -0.00081415322 0)
(1.0594163 -0.0019287516 0)
(1.0615587 -0.0034092295 0)
(1.0638746 -0.0053182591 0)
(1.0663646 -0.0076480689 0)
(1.069005 -0.010379416 0)
(1.0717846 -0.013471601 0)
(1.0746978 -0.016852874 0)
(1.0777277 -0.020455537 0)
(1.0808517 -0.024216309 0)
(1.0840158 -0.02809733 0)
(1.087152 -0.032071797 0)
(1.0901376 -0.036143365 0)
(1.0928431 -0.040304645 0)
(1.0950499 -0.044573958 0)
(1.0965706 -0.048905558 0)
(1.097065 -0.053283773 0)
(1.0963348 -0.057530265 0)
(1.093893 -0.061554552 0)
(1.0896829 -0.064902276 0)
(1.0830343 -0.067446268 0)
(1.0743842 -0.068188607 0)
(1.0628046 -0.067288465 0)
(1.0497706 -0.062512279 0)
(1.0343543 -0.055453723 0)
(1.0187239 -0.040981075 0)
(1.0063667 -0.024373048 0)
(1.0110045 -0.00020989536 0)
(1.0111506 -0.00019215374 0)
(1.0112143 -0.00020013409 0)
(1.0113423 -0.00019863529 0)
(1.0114388 -0.00020462461 0)
(1.0115677 -0.00021029621 0)
(1.0116869 -0.0002182527 0)
(1.0118259 -0.00022814811 0)
(1.0119657 -0.00023917086 0)
(1.0121207 -0.00025247225 0)
(1.0122824 -0.00026692439 0)
(1.012458 -0.00028361251 0)
(1.012644 -0.00030175405 0)
(1.0128446 -0.00032211744 0)
(1.0130586 -0.00034427986 0)
(1.0132886 -0.00036875688 0)
(1.0135348 -0.0003953809 0)
(1.013799 -0.00042451537 0)
(1.0140821 -0.00045615624 0)
(1.0143858 -0.00049059097 0)
(1.0147113 -0.00052791985 0)
(1.0150601 -0.00056840253 0)
(1.0154338 -0.00061221001 0)
(1.0158341 -0.00065960259 0)
(1.0162625 -0.0007108044 0)
(1.0167209 -0.0007660926 0)
(1.0172112 -0.00082573552 0)
(1.0177352 -0.00089003592 0)
(1.0182948 -0.000959301 0)
(1.0188921 -0.0010338623 0)
(1.0195291 -0.0011140597 0)
(1.0202079 -0.001200251 0)
(1.0209307 -0.0012927962 0)
(1.0216995 -0.0013920668 0)
(1.0225165 -0.0014984227 0)
(1.0233837 -0.0016122239 0)
(1.0243032 -0.0017338224 0)
(1.025277 -0.0018635515 0)
(1.0263069 -0.0020017138 0)
(1.0273947 -0.002148571 0)
(1.0285419 -0.0023043263 0)
(1.02975 -0.0024691121 0)
(1.03102 -0.0026429688 0)
(1.0323527 -0.0028258256 0)
(1.0337487 -0.0030174794 0)
(1.0352079 -0.0032175697 0)
(1.0367299 -0.0034255552 0)
(1.0383139 -0.0036406877 0)
(1.0399583 -0.0038619886 0)
(1.0416611 -0.0040882254 0)
(1.0434195 -0.0043178907 0)
(1.04523 -0.0045491866 0)
(1.0470882 -0.0047800133 0)
(1.0489892 -0.0050079654 0)
(1.050927 -0.0052303363 0)
(1.0528949 -0.0054441333 0)
(1.0548853 -0.0056461029 0)
(1.0568898 -0.005832769 0)
(1.0588992 -0.0060004824 0)
(1.0609035 -0.0061454847 0)
(1.0628922 -0.0062639819 0)
(1.064854 -0.0063522317 0)
(1.0667773 -0.0064066369 0)
(1.0686499 -0.0064238507 0)
(1.0704599 -0.0064008812 0)
(1.0721948 -0.0063352044 0)
(1.0738428 -0.0062248695 0)
(1.0753923 -0.0060686072 0)
(1.0768323 -0.0058659225 0)
(1.0781528 -0.0056171893 0)
(1.0793449 -0.0053237176 0)
(1.0804012 -0.0049878256 0)
(1.0813161 -0.0046128732 0)
(1.082086 -0.0042033028 0)
(1.0827097 -0.0037646273 0)
(1.0831887 -0.0033034285 0)
(1.0835273 -0.0028272746 0)
(1.0837334 -0.0023446481 0)
(1.0838181 -0.001864751 0)
(1.0837965 -0.0013972992 0)
(1.0836874 -0.00095218755 0)
(1.0835133 -0.00053898671 0)
(1.0833006 -0.00016689339 0)
(1.0830793 0.00015754414 0)
(1.0828825 0.00042595162 0)
(1.0827487 0.00063306692 0)
(1.0827091 0.00077815075 0)
(1.0827956 0.00086206026 0)
(1.0830371 0.00088902818 0)
(1.0834581 0.00086246332 0)
(1.0840772 0.00078541757 0)
(1.0849058 0.00065745458 0)
(1.0859473 0.00047261626 0)
(1.0871961 0.0002170715 0)
(1.0886353 -0.00013242083 0)
(1.0902386 -0.00061127903 0)
(1.0919686 -0.001261896 0)
(1.0937956 -0.0021356745 0)
(1.0956829 -0.0033031391 0)
(1.0975948 -0.0048164304 0)
(1.0994715 -0.0067052628 0)
(1.1012511 -0.0089923619 0)
(1.1028862 -0.011659676 0)
(1.1043276 -0.014659882 0)
(1.1055389 -0.017930058 0)
(1.1064899 -0.021402028 0)
(1.1071559 -0.025010068 0)
(1.1074994 -0.02870592 0)
(1.1074794 -0.032449575 0)
(1.1070175 -0.03622547 0)
(1.1060349 -0.040007896 0)
(1.1043867 -0.043791583 0)
(1.1019605 -0.047515439 0)
(1.098531 -0.051144044 0)
(1.0940028 -0.054503752 0)
(1.0880694 -0.057505314 0)
(1.0807886 -0.059755512 0)
(1.0717749 -0.061169575 0)
(1.0615024 -0.060939018 0)
(1.0495289 -0.059262396 0)
(1.0370397 -0.05440911 0)
(1.0239827 -0.047600337 0)
(1.0116593 -0.035153466 0)
(1.0034081 -0.020154768 0)
(1.0241567 -0.00026868476 0)
(1.0243133 -0.00025954826 0)
(1.0243809 -0.00027091765 0)
(1.0245178 -0.00027457504 0)
(1.0246218 -0.00028540362 0)
(1.0247603 -0.00029616114 0)
(1.0248895 -0.00030984941 0)
(1.0250397 -0.00032567043 0)
(1.0251917 -0.00034338797 0)
(1.0253598 -0.0003637501 0)
(1.0255358 -0.00038601338 0)
(1.0257268 -0.00041103679 0)
(1.0259296 -0.00043826637 0)
(1.026148 -0.00046836846 0)
(1.0263813 -0.00050105899 0)
(1.026632 -0.00053682259 0)
(1.0269003 -0.00057558387 0)
(1.0271882 -0.0006177137 0)
(1.0274967 -0.00066327738 0)
(1.0278274 -0.00071258991 0)
(1.0281816 -0.00076580982 0)
(1.028561 -0.00082323425 0)
(1.0289673 -0.00088508639 0)
(1.0294021 -0.00095166774 0)
(1.0298671 -0.0010232498 0)
(1.0303643 -0.0011001499 0)
(1.0308954 -0.0011826777 0)
(1.0314625 -0.0012711709 0)
(1.0320674 -0.0013659689 0)
(1.0327124 -0.0014674279 0)
(1.0333993 -0.0015759073 0)
(1.0341302 -0.0016917746 0)
(1.0349073 -0.0018153946 0)
(1.0357327 -0.0019471312 0)
(1.0366082 -0.0020873345 0)
(1.0375359 -0.0022363379 0)
(1.0385177 -0.0023944376 0)
(1.0395555 -0.0025618931 0)
(1.0406507 -0.0027389099 0)
(1.0418049 -0.0029256308 0)
(1.0430194 -0.0031221133 0)
(1.0442951 -0.0033283163 0)
(1.0456328 -0.0035440753 0)
(1.0470328 -0.003769083 0)
(1.0484951 -0.0040028646 0)
(1.0500192 -0.0042447531 0)
(1.051604 -0.0044938647 0)
(1.053248 -0.0047490732 0)
(1.0549492 -0.0050089872 0)
(1.0567046 -0.0052719285 0)
(1.0585109 -0.0055359142 0)
(1.0603638 -0.0057986446 0)
(1.0622584 -0.0060574971 0)
(1.0641889 -0.0063095288 0)
(1.0661488 -0.006551488 0)
(1.0681308 -0.0067798382 0)
(1.0701268 -0.0069907921 0)
(1.0721279 -0.0071803615 0)
(1.0741247 -0.007344418 0)
(1.0761069 -0.007478769 0)
(1.0780638 -0.0075792444 0)
(1.0799842 -0.0076417977 0)
(1.0818567 -0.0076626127 0)
(1.0836693 -0.0076382233 0)
(1.0854105 -0.0075656307 0)
(1.0870684 -0.007442431 0)
(1.0886318 -0.0072669315 0)
(1.0900899 -0.0070382735 0)
(1.0914326 -0.0067565336 0)
(1.0926509 -0.006422832 0)
(1.0937371 -0.0060394055 0)
(1.0946848 -0.0056096924 0)
(1.0954897 -0.0051383678 0)
(1.0961495 -0.0046313955 0)
(1.0966643 -0.0040960102 0)
(1.0970366 -0.0035407211 0)
(1.0972723 -0.0029752083 0)
(1.0973802 -0.0024102418 0)
(1.0973725 -0.001857435 0)
(1.097265 -0.0013290233 0)
(1.097077 -0.00083740158 0)
(1.0968314 -0.00039472484 0)
(1.0965542 -1.2190615e-05 0)
(1.0962738 0.00030039897 0)
(1.0960232 0.00053539199 0)
(1.0958323 0.00068744606 0)
(1.0957313 0.00075647345 0)
(1.0957486 0.00074613695 0)
(1.0959097 0.00066215474 0)
(1.0962354 0.00051228989 0)
(1.0967402 0.00030407626 0)
(1.0974312 4.2809085e-05 0)
(1.0983069 -0.00027110692 0)
(1.0993561 -0.00064506648 0)
(1.1005607 -0.0010970962 0)
(1.1018941 -0.0016577797 0)
(1.1033204 -0.0023716808 0)
(1.1047981 -0.0032901004 0)
(1.1062733 -0.004460534 0)
(1.1076778 -0.0059339367 0)
(1.1089429 -0.0077496825 0)
(1.1099966 -0.009915323 0)
(1.1107676 -0.012417997 0)
(1.1111974 -0.015223036 0)
(1.1112436 -0.018273426 0)
(1.1108739 -0.021507103 0)
(1.1100698 -0.024859004 0)
(1.1088095 -0.02827661 0)
(1.1070757 -0.031711731 0)
(1.1048271 -0.035135113 0)
(1.1020273 -0.038507628 0)
(1.0985908 -0.041806782 0)
(1.0944648 -0.044962204 0)
(1.0895113 -0.047926315 0)
(1.0837058 -0.050533434 0)
(1.0768634 -0.052693493 0)
(1.0690939 -0.054056046 0)
(1.0601737 -0.054538461 0)
(1.0505157 -0.053454584 0)
(1.0398927 -0.050953723 0)
(1.0291384 -0.045719433 0)
(1.0184448 -0.038682916 0)
(1.0085169 -0.027660131 0)
(1.0022183 -0.014776887 0)
(1.0286921 -0.00033024348 0)
(1.0288545 -0.00032968338 0)
(1.0289229 -0.00034441146 0)
(1.0290641 -0.00035389589 0)
(1.0291707 -0.00036982774 0)
(1.0293134 -0.00038631646 0)
(1.0294467 -0.00040614823 0)
(1.0296018 -0.00042847745 0)
(1.029759 -0.00045336045 0)
(1.0299329 -0.00048132771 0)
(1.0301152 -0.00051191452 0)
(1.030313 -0.0005458268 0)
(1.0305231 -0.0005827022 0)
(1.0307495 -0.00062313239 0)
(1.0309913 -0.00066695901 0)
(1.0312512 -0.00071464588 0)
(1.0315293 -0.00076620489 0)
(1.0318278 -0.00082201776 0)
(1.0321476 -0.00088221671 0)
(1.0324903 -0.00094714472 0)
(1.0328574 -0.0010170166 0)
(1.0332506 -0.0010921656 0)
(1.0336714 -0.0011728647 0)
(1.0341216 -0.001259454 0)
(1.034603 -0.0013522492 0)
(1.0351175 -0.0014516044 0)
(1.0356669 -0.0015578662 0)
(1.0362533 -0.0016714026 0)
(1.0368785 -0.0017925801 0)
(1.0375447 -0.001921774 0)
(1.0382539 -0.0020593556 0)
(1.0390082 -0.0022056934 0)
(1.0398095 -0.0023611415 0)
(1.04066 -0.0025260391 0)
(1.0415616 -0.0027006923 0)
(1.0425163 -0.0028853764 0)
(1.0435258 -0.003080317 0)
(1.0445919 -0.0032856826 0)
(1.0457161 -0.003501564 0)
(1.0468998 -0.0037279638 0)
(1.048144 -0.0039647716 0)
(1.0494497 -0.00421175 0)
(1.0508173 -0.0044685065 0)
(1.052247 -0.0047344751 0)
(1.0537386 -0.0050088892 0)
(1.0552914 -0.0052907575 0)
(1.056904 -0.005578839 0)
(1.0585748 -0.0058716192 0)
(1.0603013 -0.0061672885 0)
(1.0620806 -0.0064637234 0)
(1.0639088 -0.0067584724 0)
(1.0657815 -0.0070487482 0)
(1.0676936 -0.0073314275 0)
(1.0696391 -0.007603059 0)
(1.0716112 -0.007859884 0)
(1.0736024 -0.0080978667 0)
(1.0756046 -0.0083127391 0)
(1.0776088 -0.0085000596 0)
(1.0796053 -0.0086552843 0)
(1.081584 -0.0087738547 0)
(1.083534 -0.0088512957 0)
(1.0854443 -0.0088833286 0)
(1.0873033 -0.0088659894 0)
(1.0890994 -0.0087957618 0)
(1.0908208 -0.0086697052 0)
(1.0924561 -0.0084855958 0)
(1.0939939 -0.0082420515 0)
(1.0954238 -0.0079386687 0)
(1.0967356 -0.00757613 0)
(1.0979206 -0.0071563245 0)
(1.0989711 -0.0066824249 0)
(1.099881 -0.0061589828 0)
(1.1006457 -0.0055919617 0)
(1.1012631 -0.0049887971 0)
(1.101733 -0.0043583675 0)
(1.1020579 -0.0037110001 0)
(1.1022431 -0.0030583398 0)
(1.1022967 -0.0024132595 0)
(1.1022301 -0.0017895576 0)
(1.1020576 -0.0012017001 0)
(1.1017969 -0.00066425235 0)
(1.1014685 -0.00019140292 0)
(1.1010957 0.00020405819 0)
(1.100704 0.00051083675 0)
(1.1003205 0.00071997576 0)
(1.0999722 0.00082751109 0)
(1.0996852 0.00083382903 0)
(1.0994852 0.0007433434 0)
(1.099395 0.00056488354 0)
(1.0994333 0.00030940222 0)
(1.099614 -1.0953974e-05 0)
(1.099944 -0.00038592553 0)
(1.1004241 -0.0008095548 0)
(1.1010474 -0.0012844278 0)
(1.1017983 -0.0018232957 0)
(1.1026523 -0.0024493012 0)
(1.1035735 -0.003195529 0)
(1.1045141 -0.0041039305 0)
(1.105418 -0.0052234603 0)
(1.1062219 -0.0065972593 0)
(1.1068529 -0.0082555621 0)
(1.1072368 -0.010215558 0)
(1.1073081 -0.012469785 0)
(1.1070083 -0.014989778 0)
(1.1062951 -0.017730559 0)
(1.1051385 -0.02063887 0)
(1.1035241 -0.023657377 0)
(1.1014393 -0.02673579 0)
(1.0988799 -0.029825168 0)
(1.0958254 -0.032890232 0)
(1.0922629 -0.03588585 0)
(1.0881418 -0.038779986 0)
(1.0834407 -0.041499726 0)
(1.0780712 -0.043992653 0)
(1.0720386 -0.046107748 0)
(1.0652239 -0.047762954 0)
(1.0577411 -0.048661123 0)
(1.0494617 -0.048736981 0)
(1.04073 -0.047436943 0)
(1.031484 -0.044879989 0)
(1.0223517 -0.040063009 0)
(1.0137254 -0.033623706 0)
(1.0060292 -0.02407548 0)
(1.0014107 -0.012670501 0)
(1.0300897 -0.00039357387 0)
(1.0302545 -0.00040087181 0)
(1.0303221 -0.00041888226 0)
(1.0304646 -0.0004343177 0)
(1.0305711 -0.00045530628 0)
(1.0307147 -0.00047772919 0)
(1.0308485 -0.00050374598 0)
(1.0310046 -0.00053276839 0)
(1.0311627 -0.0005649265 0)
(1.0313378 -0.00060068719 0)
(1.0315214 -0.00063975376 0)
(1.0317207 -0.00068275521 0)
(1.0319325 -0.00072946701 0)
(1.0321607 -0.00078044381 0)
(1.0324045 -0.00083562785 0)
(1.0326666 -0.00089548081 0)
(1.0329471 -0.0009600905 0)
(1.0332482 -0.0010298589 0)
(1.0335707 -0.0011049801 0)
(1.0339164 -0.0011858299 0)
(1.0342868 -0.0012726773 0)
(1.0346834 -0.0013658941 0)
(1.0351079 -0.001465802 0)
(1.0355621 -0.0015727808 0)
(1.0360477 -0.0016871891 0)
(1.0365667 -0.0018094174 0)
(1.0371208 -0.001939848 0)
(1.0377122 -0.0020788778 0)
(1.0383428 -0.0022268981 0)
(1.0390145 -0.0023843008 0)
(1.0397296 -0.0025514674 0)
(1.04049 -0.0027287659 0)