/*--------------------------------*- C++ -*----------------------------------*\
| =========                 |                                                 |
| \\      /  F ield         | foam-extend: Open Source CFD                    |
|  \\    /   O peration     | Version:     4.1                                |
|   \\  /    A nd           | Web:         http://www.foam-extend.org         |
|    \\/     M anipulation  |                                                 |
\*---------------------------------------------------------------------------*/
FoamFile
{
    version     2.0;
    format      ascii;
    class       volScalarField;
    location    "0.85";
    object      p;
}
// * * * * * * * * * * * * * * * * * * * * * * * * * * * * * * * * * * * * * //

dimensions      [0 2 -2 0 0 0 0];

internalField   nonuniform List<scalar> 
16796
(
-11.980044
-12.364102
-14.733062
-17.185194
-19.612243
-21.922693
-24.062779
-25.994245
-27.687512
-29.118992
-30.270093
-31.127034
-31.680972
-31.928369
-31.871361
-31.518236
-30.883777
-29.989671
-28.864702
-27.544962
-26.073808
-24.5018
-22.886346
-21.291287
-19.786185
-18.445576
-17.347966
-16.574775
-16.209127
-16.335034
-17.036351
-18.394477
-20.486747
-23.385965
-27.159031
-31.865688
-37.557268
-44.275502
-52.051859
-60.907632
-70.852304
-81.882062
-93.979942
-107.11528
-121.24322
-136.30424
-152.22384
-168.91213
-186.26362
-204.15706
-222.45528
-241.00525
-259.63827
-278.17029
-296.40256
-314.12243
-331.10457
-347.11243
-361.90011
-375.21456
-386.79814
-396.39156
-403.73708
-408.58199
-410.6823
-409.80651
-405.73943
-398.28592
-387.27456
-372.56088
-354.03058
-331.60183
-305.22739
-274.8967
-240.63614
-202.50557
-160.59783
-115.05166
-66.075319
-13.893008
41.27547
99.173314
159.51563
221.99675
286.29499
352.0773
419.00404
486.73364
554.92719
623.25269
691.38916
759.0302
825.88716
891.69178
956.19828
1019.1848
1080.4546
1139.8362
1197.1832
1252.3742
1305.3115
1355.9199
1404.1453
1449.9528
1493.3251
1534.2604
1572.7706
1608.8794
1642.6204
1674.0355
1703.1736
1730.0893
1754.8425
1777.4968
1798.1143
1816.7616
1833.5242
1848.518
1861.8558
1873.5123
1883.339
1892.3494
1904.4
1921.6941
-10.092935
-12.031254
-14.659639
-17.214686
-19.686533
-22.021556
-24.177184
-26.119164
-27.819463
-29.255107
-30.407725
-31.263589
-31.813831
-32.054861
-31.988758
-31.623766
-30.974645
-30.063087
-28.917914
-27.5753
-26.07872
-24.478905
-22.833485
-21.206562
-19.667957
-18.292497
-17.159114
-16.349737
-15.948081
-16.038968
-16.707146
-18.033976
-20.09688
-22.969158
-26.718082
-31.403778
-37.077983
-43.782862
-51.550452
-60.403202
-70.351048
-81.39022
-93.504109
-106.66232
-120.82021
-135.91846
-151.88268
-168.62305
-186.03409
-203.99447
-222.36685
-240.99795
-259.71871
-278.3446
-296.67628
-314.50038
-331.59072
-347.70981
-362.61067
-376.03906
-387.73607
-397.44107
-404.89494
-409.84355
-412.04151
-411.25595
-407.2704
-399.88854
-388.93789
-374.27313
-355.7793
-333.37417
-307.01038
-276.67768
-242.40438
-204.25946
-162.35085
-116.81634
-67.811879
-15.540382
39.745045
97.774632
158.25902
220.88986
285.3433
351.28442
418.3717
486.26178
554.6139
623.09438
691.38056
759.16454
826.15633
892.08649
956.70828
1019.7992
1081.1618
1140.6244
1198.0406
1253.289
1306.2723
1356.9156
1405.1653
1450.9872
1494.3648
1535.2968
1573.7959
1609.8865
1643.6026
1674.9867
1704.0878
1730.9602
1755.6623
1778.256
1798.8062
1817.382
1834.0607
1848.9381
1862.0932
1873.4981
1883.1193
1891.8491
1901.5862
1911.0821
-8.9505047
-11.557402
-14.519814
-17.272679
-19.878609
-22.31787
-24.561815
-26.581637
-28.351198
-29.847899
-31.053085
-31.952461
-32.536504
-32.800971
-32.74735
-32.383387
-31.723467
-30.78904
-29.608842
-28.219119
-26.66359
-24.993409
-23.266818
-21.548632
-19.909648
-18.426129
-17.178861
-16.251217
-15.728355
-15.695925
-16.238243
-17.438578
-19.377752
-22.131221
-25.76856
-30.352195
-35.936218
-42.56556
-50.274756
-59.085615
-69.008191
-80.040911
-92.168453
-105.36154
-119.57631
-134.75394
-150.82026
-167.68538
-185.24346
-203.37247
-221.93408
-240.77369
-259.72061
-278.58839
-297.17543
-315.26586
-332.63074
-349.02954
-364.21212
-377.92089
-389.89351
-399.86584
-407.57529
-412.76431
-415.18419
-414.59897
-410.78926
-403.55612
-392.72477
-378.14787
-359.70893
-337.32448
-310.94603
-280.56321
-246.20536
-207.94301
-165.88436
-120.1729
-70.978906
-18.508184
36.995144
95.262333
156.00208
218.90313
283.63842
349.8696
417.25169
485.43781
554.08379
622.8526
691.41849
759.47072
826.71674
892.88501
957.72705
1021.019
1082.5627
1142.1858
1199.742
1255.1103
1308.1939
1358.9189
1407.2329
1453.1032
1496.5146
1537.4677
1575.9766
1612.0676
1645.7764
1677.1472
1706.2305
1733.0824
1757.7624
1780.3329
1800.8586
1819.4095
1836.063
1850.9027
1863.9834
1875.3061
1884.9771
1893.6812
1901.6882
1906.7322
-8.5039363
-11.299615
-14.453259
-17.35393
-20.072068
-22.600691
-24.919138
-27.002596
-28.826592
-30.368974
-31.610917
-32.537684
-33.139195
-33.410654
-33.353053
-32.973739
-32.286824
-31.313624
-30.082898
-28.63108
-27.002231
-25.248041
-23.4274
-21.606089
-19.856604
-18.257013
-16.888431
-15.835178
-15.183908
-15.021979
-15.435859
-16.510638
-18.328587
-20.967109
-24.49766
-28.984531
-34.483717
-41.042023
-48.6959
-57.469827
-67.376224
-78.414865
-90.571656
-103.81846
-118.11248
-133.39572
-149.59457
-166.61944
-184.36441
-202.70707
-221.50831
-240.61235
-259.84691
-279.02352
-297.93815
-316.3721
-334.09319
-350.85731
-366.41041
-380.49074
-392.8316
-403.16439
-411.22194
-416.74222
-419.47213
-419.17151
-415.61706
-408.60629
-397.96126
-383.53188
-365.19963
-342.8792
-316.52047
-286.11309
-251.68862
-213.31699
-171.10245
-125.18726
-75.7473
-22.993874
32.827579
91.444354
152.56044
215.85982
281.01052
347.6691
415.48537
484.10719
553.18522
622.37743
691.35335
759.79792
827.41478
893.92912
959.0898
1022.671
1084.473
1144.323
1202.0745
1257.6067
1310.8237
1361.6531
1410.0441
1455.9656
1499.4046
1540.3639
1578.8598
1614.9205
1648.5839
1679.8961
1708.9092
1735.6805
1760.2708
1782.7431
1803.1619
1821.596
1838.1193
1852.8016
1865.6838
1876.8007
1886.3205
1894.6964
1901.519
1904.9554
-8.3731765
-11.24003
-14.54215
-17.592013
-20.444072
-23.090931
-25.514059
-27.690114
-29.595109
-31.206667
-32.505327
-33.475505
-34.106213
-34.391775
-34.332396
-33.934772
-33.212534
-32.186716
-30.886017
-29.347046
-27.614274
-25.740018
-23.784226
-21.814688
-19.90623
-18.137199
-16.589953
-15.351255
-14.510159
-14.156572
-14.380018
-15.268421
-16.90681
-19.375575
-22.749208
-27.095021
-32.471945
-38.929451
-46.506439
-55.230156
-65.115556
-76.164612
-88.364724
-101.6894
-116.09702
-131.5305
-147.91668
-165.16607
-183.17241
-201.81241
-220.94567
-240.41455
-260.0444
-279.64384
-299.00542
-317.90645
-336.11033
-353.36804
-369.42023
-383.99952
-396.8333
-407.64691
-416.16707
-422.12566
-425.26365
-425.33522
-422.11178
-415.38601
-404.97573
-390.72711
-372.51896
-350.26332
-323.90836
-293.44418
-258.90525
-220.36232
-177.92116
-131.72542
-81.954486
-28.823048
27.42104
86.501223
148.11635
211.94456
277.64753
344.87512
413.27022
482.47371
552.12931
621.88832
691.414
760.38553
828.50147
895.48267
961.07452
1025.0485
1087.2034
1147.3651
1205.3873
1261.1497
1314.5578
1365.5408
1414.0503
1460.0579
1503.5534
1544.5424
1583.0444
1619.0905
1652.7215
1683.9858
1712.9381
1739.6373
1764.1451
1786.5252
1806.8415
1825.161
1841.5505
1856.0659
1868.739
1879.6194
1888.8483
1896.6558
1902.4554
1905.0775
-8.4025098
-11.303088
-14.712694
-17.884895
-20.855922
-23.612616
-26.135081
-28.399604
-30.381779
-32.058553
-33.40957
-34.41823
-35.0725
-35.365696
-35.297113
-34.872683
-34.105451
-33.01607
-31.633102
-29.993282
-28.141375
-26.130399
-24.02192
-21.886284
-19.798529
-17.837882
-16.089742
-14.64303
-13.589283
-13.021316
-13.03168
-13.71142
-15.148752
-17.427362
-20.625128
-24.812789
-30.052691
-36.397623
-43.88964
-52.559192
-62.424119
-73.48909
-85.743928
-99.164037
-113.70927
-129.32374
-145.93512
-163.45421
-181.77457
-200.77219
-220.30529
-240.2143
-260.32197
-280.43365
-300.33796
-319.80764
-338.60086
-356.46281
-373.12778
-388.32162
-401.76456
-413.17454
-422.27075
-428.77756
-432.42858
-432.97088
-430.16923
-423.81016
-413.70601
-399.69814
-381.66162
-359.50486
-333.17366
-302.6582
-267.99433
-229.25218
-186.53916
-140.00153
-89.822788
-36.2222
20.54771
80.204841
142.44149
206.92844
273.31941
341.25584
410.37189
480.29959
550.6739
621.13765
691.34612
760.97121
829.70505
897.263
963.38603
1027.8424
1090.4285
1150.9694
1209.3184
1265.3562
1318.99
1370.1513
1418.7945
1464.8947
1508.4452
1549.4556
1587.9493
1623.9613
1657.5361
1688.7259
1717.5885
1744.1858
1768.582
1790.8425
1811.0324
1829.2184
1845.4634
1859.8163
1872.31
1883.0015
1891.9826
1899.3331
1904.4685
1906.6653
-8.5388367
-11.49859
-15.024749
-18.32973
-21.434744
-24.319292
-26.9601
-29.331593
-31.407952
-33.164773
-34.580312
-35.636567
-36.320123
-36.623
-36.543329
-36.086059
-35.263477
-34.095724
-32.611164
-30.84662
-28.847176
-26.667036
-24.370067
-22.028043
-19.716355
-17.517509
-15.519451
-13.814008
-12.49607
-11.661937
-11.407957
-11.829119
-13.017669
-15.061438
-18.042494
-22.035759
-27.107689
-33.315057
-40.703723
-49.307856
-59.148679
-70.234017
-82.556522
-96.093511
-110.80664
-126.64139
-143.52626
-161.37231
-180.07277
-199.50262
-219.51843
-239.95822
-260.64156
-281.36988
-301.92706
-322.08036
-341.58169
-360.16927
-377.5698
-393.50096
-407.6744
-419.79914
-429.58533
-436.74828
-441.01272
-442.11721
-439.81849
-433.89576
-424.1548
-410.43135
-392.59596
-370.55295
-344.24567
-313.66462
-278.84627
-239.86154
-196.81987
-149.87019
-99.199998
-45.033416
12.371357
72.725509
135.71351
200.99734
268.22114
337.01614
407.00589
477.81165
549.0577
620.37654
691.41372
761.83225
831.31639
899.57487
966.34332
1031.3859
1094.4966
1155.499
1214.2463
1270.6205
1324.5305
1375.9109
1424.7195
1470.9355
1514.5565
1555.5967
1594.084
1630.058
1663.5675
1694.6688
1723.4232
1749.8958
1774.1532
1796.2627
1816.2906
1834.3028
1850.359
1864.505
1876.777
1887.2335
1895.9275
1902.8714
1907.5486
1909.4952
-8.7327434
-11.765014
-15.409564
-18.846076
-22.085368
-25.100117
-27.863001
-30.345793
-32.520616
-34.361229
-35.844129
-36.949601
-37.662584
-37.973562
-37.879283
-37.383513
-36.497606
-35.241037
-33.641882
-31.736885
-29.571539
-27.201493
-24.692819
-22.117912
-19.554169
-17.086963
-14.807015
-12.809519
-11.192993
-10.057698
-9.5042534
-9.6321058
-10.53813
-12.314901
-15.0493
-18.821066
-23.701413
-29.751766
-37.022438
-45.551888
-55.365312
-66.474247
-78.87478
-92.546621
-107.45359
-123.54284
-140.74395
-158.96842
-178.10921
-198.04033
-218.61654
-239.67321
-261.02641
-282.47311
-303.79185
-324.74356
-345.07296
-364.51022
-382.7732
-399.57007
-414.6024
-427.56877
-438.16864
-446.10661
-451.09689
-452.86791
-451.16685
-445.76415
-436.45769
-423.07646
-405.48546
-383.58413
-357.31271
-326.66138
-291.66712
-252.40233
-208.97869
-161.5485
-110.30386
-55.474619
2.6742129
63.845821
127.71545
193.93472
262.13646
331.9398
402.95573
474.79267
547.06219
619.38447
691.39348
762.74163
833.10389
902.18111
969.70262
1035.428
1099.1481
1160.6851
1219.8925
1276.6535
1330.8796
1382.5091
1431.5042
1477.8489
1521.5463
1562.6162
1601.0921
1637.0194
1670.4521
1701.4516
1730.0839
1756.418
1780.524
1802.4717
1822.3291
1840.1621
1856.0284
1869.9723
1882.0317
1892.2603
1900.6833
1907.292
1911.6459
1913.432
-8.9915622
-12.126513
-15.910995
-19.496258
-22.886097
-26.047238
-28.948129
-31.557379
-33.844514
-35.780966
-37.341048
-38.502956
-39.249652
-39.569779
-39.458433
-38.917965
-37.958594
-36.598976
-34.866812
-32.798604
-30.440486
-27.849923
-25.094921
-22.248625
-19.391369
-16.611526
-14.003162
-11.665411
-9.7010332
-8.2149279
-7.3126754
-7.0989105
-7.6758901
-9.1416945
-11.588768
-15.102408
-19.759303
-25.626228
-32.758619
-41.199791
-50.979519
-62.113546
-74.601852
-88.426717
-103.55455
-119.93436
-137.49691
-156.1542
-175.79894
-196.30399
-217.52213
-239.28575
-261.40692
-283.67761
-305.87024
-327.7386
-349.01918
-369.43295
-388.68762
-406.48041
-422.50132
-436.43684
-447.97409
-456.80529
-462.63247
-465.17231
-464.16095
-459.35868
-450.55426
-437.56893
-420.26127
-398.52525
-372.29744
-341.56725
-306.37246
-266.78704
-222.925
-174.9423
-123.03613
-67.442779
-8.4350925
53.680891
118.56976
185.87118
255.20481
326.17574
398.38023
471.4117
544.86681
618.35125
691.48541
763.90928
835.28692
905.30996
973.70042
1040.2125
1104.6336
1166.7844
1226.5185
1283.7208
1338.3061
1390.2167
1439.42
1485.9059
1529.6838
1570.7798
1609.2343
1645.0988
1678.4339
1709.3067
1737.7887
1763.9537
1787.876
1809.6291
1829.2836
1846.9067
1862.5564
1876.2782
1888.1118
1898.1065
1906.2719
1912.6004
1916.7137
1918.3878
-9.2922593
-12.548191
-16.488024
-20.233961
-23.785169
-27.10336
-30.152886
-32.898959
-35.308147
-37.349181
-38.99382
-40.21783
-41.00187
-41.332447
-41.202721
-40.613381
-39.573274
-38.100081
-36.220942
-33.971982
-31.400172
-28.565063
-25.535661
-22.386641
-19.201719
-16.072348
-13.096351
-10.377204
-8.0224186
-6.1421019
-4.8474049
-4.2488187
-4.4546868
-5.5693205
-7.6914687
-10.912728
-15.316003
-20.974135
-27.948404
-36.287603
-46.026782
-57.186385
-69.770824
-83.765679
-99.140291
-115.84569
-133.81414
-152.95829
-173.17068
-194.32305
-216.26602
-238.82876
-261.81897
-285.02306
-308.20666
-331.11553
-353.47691
-375.00135
-395.38508
-414.31286
-431.46145
-446.50351
-459.11202
-468.96496
-475.75034
-479.17131
-478.95125
-474.83875
-466.61205
-454.08346
-437.10415
-415.56187
-389.38885
-358.57326
-323.154
-283.20702
-238.84902
-190.24006
-137.58296
-81.12128
-21.136672
42.054351
108.10427
176.63908
247.26339
319.56611
393.12654
467.52076
542.32813
617.13761
691.55381
765.2024
837.73484
908.83221
978.20818
1045.6109
1110.824
1173.6665
1233.9925
1291.6891
1346.675
1398.8976
1448.3304
1494.9701
1538.8336
1579.9545
1618.3809
1654.1719
1687.3952
1718.1247
1746.4381
1772.4148
1796.134
1817.6733
1837.1065
1854.5028
1869.922
1883.4116
1895.0132
1904.774
1912.6973
1918.7867
1922.7108
1924.3006
-9.6450735
-13.047332
-17.165945
-21.09283
-24.823975
-28.316743
-31.531542
-34.430029
-36.975515
-39.133667
-40.873327
-42.167463
-42.994081
-43.337215
-43.187785
-42.544541
-41.414699
-39.814806
-37.77127
-35.319807
-32.508249
-29.397949
-26.059215
-22.569139
-19.014598
-15.490648
-12.099367
-8.9490947
-6.1527246
-3.8262369
-2.0870684
-1.052321
-0.83720558
-1.5530615
-3.3057445
-6.1939482
-10.307575
-15.72629
-22.517965
-30.737527
-40.425987
-51.609001
-64.295909
-78.476416
-94.122847
-111.18845
-129.60723
-149.2927
-170.13725
-192.01148
-214.7637
-238.21962
-262.18215
-286.43159
-310.72607
-334.80245
-358.37766
-381.15059
-402.80457
-423.01034
-441.42972
-457.71973
-471.53728
-482.54421
-490.41257
-494.83014
-495.50583
-492.17492
-484.60372
-472.59442
-455.98987
-434.67089
-408.56467
-377.65774
-341.99028
-301.64044
-256.72776
-207.41674
-153.9164
-96.478269
-35.393828
29.008706
96.368205
166.29522
238.37728
312.18484
387.27777
463.21226
539.54777
615.854
691.71745
766.74727
840.58049
912.88616
983.36846
1051.7687
1117.8664
1181.4791
1242.4613
1300.7032
1356.1278
1408.6888
1458.3667
1505.1663
1549.1129
1590.2491
1628.6317
1664.3285
1697.4155
1727.9744
1756.0902
1781.8488
1805.3353
1826.6322
1845.8174
1862.9636
1878.133
1891.3761
1902.7371
1912.2627
1919.9563
1925.8346
1929.6017
1931.1234
-10.04063
-13.609256
-17.927508
-22.054032
-25.982545
-29.666525
-33.062559
-36.128644
-38.824585
-41.112668
-42.958457
-44.331761
-45.207569
-45.567089
-45.398666
-44.698804
-43.472798
-41.735849
-39.513434
-36.840754
-33.766408
-30.353425
-26.673886
-22.807332
-18.843993
-14.882911
-11.030848
-7.4015314
-4.1138359
-1.2902774
0.94470127
2.4666193
3.1525947
2.8834347
1.5453417
-0.96830822
-4.7552389
-9.9027315
-16.486028
-24.566919
-34.193016
-45.395827
-58.190315
-72.571037
-88.51342
-105.97337
-124.88696
-145.16871
-166.71105
-189.38344
-213.03182
-237.47819
-262.52035
-287.93195
-313.46293
-338.84034
-363.76971
-387.93701
-411.01115
-432.64718
-452.49013
-470.1794
-485.35378
-497.65682
-506.74254
-512.28129
-513.96554
-511.51552
-504.6841
-493.26197
-477.08267
-456.01932
-429.99331
-398.98911
-363.04856
-322.25246
-276.72353
-226.63105
-172.1908
-113.663
-51.349911
14.407319
83.232421
154.71867
228.43434
303.92903
380.74054
458.40236
536.45125
614.4349
691.91908
768.49416
843.78077
917.43432
989.14839
1058.6568
1125.7345
1190.1976
1251.9018
1310.7405
1366.6426
1419.5686
1469.5075
1516.4734
1560.5013
1601.644
1639.9682
1675.5515
1708.4795
1738.8425
1766.7338
1792.2466
1815.4728
1836.5005
1855.4126
1872.2859
1887.1865
1900.1687
1911.2796
1920.5678
1928.0397
1933.7253
1937.3549
1938.8182
-10.483968
-14.242005
-18.784247
-23.132982
-27.280133
-31.175529
-34.771989
-38.023725
-40.886789
-43.319764
-45.284576
-46.74749
-47.680091
-48.060378
-47.873759
-47.114153
-45.784623
-43.898794
-41.480985
-38.565755
-35.20238
-31.455573
-27.399531
-23.116411
-18.700068
-14.253949
-9.8899909
-5.7278855
-1.8931441
1.4844596
4.2726985
6.3388852
7.5516055
7.7829308
6.9102299
4.8180594
1.3999985
-3.4397028
-9.7844712
-17.703766
-27.252467
-38.46866
-51.373625
-65.967396
-82.228739
-100.11658
-119.56931
-140.50274
-162.80943
-186.35775
-210.99122
-236.52794
-262.76023
-289.45462
-316.35213
-343.16911
-369.5986
-395.31227
-419.96308
-443.18863
-464.6152
-483.8625
-500.54898
-514.29765
-524.74223
-531.53346
-534.34535
-532.88123
-526.87888
-516.11617
-500.41633
-479.64402
-453.71409
-422.60853
-386.3711
-345.08561
-298.87813
-247.92305
-192.44338
-132.70872
-69.03303
-1.7716217
68.682537
141.90351
217.43803
294.81218
373.53879
453.12555
533.08342
612.93497
692.2224
770.51471
847.41396
922.56024
995.63524
1066.3645
1134.5184
1199.9115
1262.4011
1321.8852
1378.299
1431.6115
1481.8214
1528.9536
1573.0543
1614.1877
1652.432
1687.876
1720.6157
1750.7515
1778.3858
1803.6203
1826.5542
1847.2824
1865.8934
1882.469
1897.0799
1909.7847
1920.6344
1929.6807
1936.9347
1942.4382
1945.9417
1947.3522
-10.973975
-14.943257
-19.73367
-24.327607
-28.715508
-32.843656
-36.66108
-40.118052
-43.166614
-45.761317
-47.860071
-49.425193
-50.424444
-50.832203
-50.630532
-49.810391
-48.372253
-46.32788
-43.700177
-40.52287
-36.845781
-32.735324
-28.267966
-23.528684
-18.615235
-13.635862
-8.7081786
-3.9584219
0.48058494
4.4710508
7.872142
10.54209
12.340034
13.128375
12.774704
11.15382
8.1496843
3.6571835
-2.4161449
-10.148274
-19.602049
-30.822892
-43.839042
-58.656829
-75.258737
-93.607041
-113.64286
-135.28356
-158.42199
-182.92559
-208.63544
-235.36561
-262.90266
-291.00548
-319.40554
-347.80759
-375.89099
-403.31175
-429.70523
-454.68969
-477.87057
-498.84559
-517.21045
-532.56513
-544.52056
-552.70548
-556.77314
-556.40793
-551.3308
-541.30525
-526.14318
-505.70002
-479.88324
-448.67194
-412.11235
-370.29182
-323.34005
-271.43688
-214.81295
-153.74788
-88.568167
-19.644472
52.611972
127.75401
205.30441
284.76287
365.61405
447.33647
529.41176
611.33402
692.61866
772.8105
851.49067
928.28204
1002.8532
1074.9207
1144.2499
1210.6542
1273.9936
1334.171
1391.1297
1444.8484
1495.3372
1542.633
1586.7952
1627.9008
1666.0409
1701.3167
1733.8362
1763.7108
1791.0533
1815.9744
1838.5819
1858.9781
1877.2581
1893.5093
1907.8078
1920.217
1930.7924
1939.5897
1946.6254
1951.9516
1955.335
1956.6956
-11.51193
-15.715553
-20.780206
-25.644551
-30.297656
-34.682235
-38.743427
-42.427375
-45.68183
-48.456955
-50.706244
-52.387632
-53.464608
-53.907479
-53.694525
-52.813327
-51.261384
-49.048277
-46.195204
-42.734855
-38.717467
-34.211164
-29.294851
-24.056574
-18.598281
-13.033388
-7.4857349
-2.0887132
3.0168043
7.6841942
11.763144
15.101865
17.549077
18.95651
19.180968
18.086485
15.546416
11.445323
5.6807989
-1.8345716
-11.172338
-22.386101
-35.51173
-50.562744
-67.525642
-86.366504
-107.02949
-129.43375
-153.47268
-179.01294
-205.89321
-233.92344
-262.88418
-292.52625
-322.57089
-352.71034
-382.60915
-411.90621
-440.21756
-467.14011
-492.25624
-515.1392
-535.35934
-552.49093
-566.1194
-575.84883
-581.30932
-582.16406
-578.11535
-568.91073
-554.34972
-534.27777
-508.59419
-477.27478
-440.36877
-397.96753
-350.2046
-297.26553
-239.38896
-176.86502
-110.03355
-39.281656
34.959587
112.21973
191.99492
273.75536
356.95403
441.03645
525.45102
609.65951
693.147
775.43095
856.06891
934.66456
1010.872
1084.398
1155.0029
1222.4996
1286.7509
1347.6666
1405.1992
1459.3388
1510.1087
1557.5598
1601.766
1642.8192
1680.8249
1715.8982
1748.1603
1777.735
1804.7462
1829.3152
1851.5589
1871.5877
1889.504
1905.4018
1919.3628
1931.4561
1941.7418
1950.2805
1957.0939
1962.2432
1965.5084
1966.8204
-12.10069
-16.562475
-21.928481
-27.089829
-32.034319
-36.701009
-41.030997
-44.966056
-48.449328
-51.426208
-53.845331
-55.659778
-56.828276
-57.316558
-57.098629
-56.158221
-54.489419
-52.099242
-49.006833
-45.243578
-40.859972
-35.925823
-30.522566
-24.74157
-18.689181
-12.484468
-6.2580968
-0.15125193
5.6863728
11.098466
15.924287
20.00103
23.165945
25.259022
26.125202
25.616687
23.59518
19.933906
14.519567
7.2543169
-1.9428356
-13.134662
-26.365192
-41.655921
-58.998109
-78.362288
-99.695692
-122.91966
-147.92847
-174.58822
-202.73531
-232.17556
-262.6833
-294.00094
-325.83883
-357.87583
-389.76047
-421.11303
-451.52841
-480.58006
-507.82481
-532.8088
-555.07416
-574.16643
-589.64254
-601.07904
-608.08009
-610.28528
-607.37619
-599.08268
-585.19083
-565.53539
-540.00669
-508.57686
-471.29895
-428.26897
-379.62463
-325.55739
-266.31415
-202.19594
-133.55655
-60.800546
15.619615
95.208036
177.43147
261.72721
347.51262
434.19593
521.18793
607.91372
693.82402
778.40539
861.18892
941.75687
1019.7474
1094.8569
1166.8407
1235.5114
1300.7362
1362.4329
1420.5651
1475.1363
1526.1849
1573.7778
1618.0054
1658.9762
1696.8119
1731.6432
1763.6058
1792.8372
1819.4737
1843.6479
1865.4866
1885.1095
1902.6268
1918.1395
1931.7357
1943.4903
1953.4687
1961.7365
1968.3204
1973.2896
1976.4359
1977.699
-12.740322
-17.484859
-23.180831
-28.667579
-33.931633
-38.908239
-43.534248
-47.746786
-51.484029
-54.686179
-57.296542
-59.262827
-60.53846
-61.084056
-60.868808
-59.872083
-58.084066
-55.508789
-52.162949
-48.076343
-43.29954
-37.903973
-31.973646
-25.603495
-18.904632
-12.002236
-5.0342856
1.8495018
8.4897917
14.719658
20.366923
25.256683
29.213599
32.064771
33.642119
33.784866
32.341939
29.174135
24.156247
17.178951
8.1509743
-3.000714
-16.328724
-31.862991
-49.601466
-69.519341
-91.566462
-115.667
-141.71651
-169.58081
-199.09424
-230.05852
-262.24169
-295.37736
-329.16446
-363.26757
-397.31804
-430.91596
-463.6332
-495.01744
-524.59739
-551.88915
-576.40346
-597.65387
-615.16552
-628.48413
-637.185
-640.88141
-639.23201
-631.94716
-618.79844
-599.6092
-574.26011
-542.71928
-505.04448
-461.33712
-411.73927
-356.44854
-295.72017
-229.86628
-159.25503
-84.309335
-5.5044826
76.635983
161.54641
248.62744
337.25639
426.79941
516.62463
606.11555
694.68398
781.78161
866.90977
949.62697
1029.5539
1106.3759
1179.8433
1249.7694
1316.0271
1378.5441
1437.2968
1492.3046
1543.6231
1591.3376
1635.5572
1676.409
1714.0327
1748.5763
1780.1917
1809.0311
1835.2445
1858.9768
1880.3657
1899.5407
1916.6204
1931.7136
1944.9151
1956.3057
1965.9568
1973.9389
1980.2833
1985.0665
1988.0907
1989.3038
-13.434906
-18.488216
-24.544359
-30.386755
-36.00071
-41.317476
-46.269412
-50.788672
-54.808068
-58.262139
-61.088331
-63.228418
-64.629925
-65.247742
-65.045645
-63.998049
-62.090686
-59.324108
-55.712094
-51.282504
-46.085809
-40.194871
-33.696245
-26.688784
-19.288672
-11.627644
-3.8516029
3.8804443
11.398637
18.524435
25.073131
30.856561
35.685587
39.373182
41.737004
42.602073
41.803345
39.188043
34.617959
27.971257
19.145383
8.0562158
-5.3581599
-21.137125
-39.28678
-59.786605
-82.589594
-107.62325
-134.78481
-163.94023
-194.92206
-227.52808
-261.51999
-296.62239
-332.52225
-368.86906
-405.27577
-441.32072
-476.55069
-510.48517
-542.62192
-572.44378
-599.42663
-623.04838
-642.79865
-658.18877
-668.76174
-674.10158
-673.84161
-667.67066
-655.34473
-636.67521
-611.53252
-579.88053
-541.78303
-497.3476
-446.72096
-390.10708
-327.76945
-260.03119
-187.27501
-109.94279
-28.533966
56.398037
144.25198
234.38766
326.13745
418.81989
511.75471
604.27819
695.75801
785.60644
873.29148
958.34525
1040.3694
1119.0376
1194.0955
1265.3583
1332.7061
1396.0786
1455.4677
1510.9109
1562.4838
1610.2926
1654.4675
1695.1564
1732.5193
1766.7229
1797.937
1826.3301
1852.0668
1875.3054
1896.1955
1914.8767
1931.4771
1946.1132
1958.8873
1969.8864
1979.1877
1986.8666
1992.9591
1997.548
2000.4453
2001.6067
-14.184835
-19.573782
-26.021875
-32.252047
-38.248373
-43.937893
-49.248189
-54.106078
-58.438564
-62.174002
-65.243404
-67.581978
-69.130697
-69.838056
-69.661749
-68.570593
-66.54526
-63.582259
-59.691975
-54.899912
-49.256165
-42.834665
-35.724729
-28.029398
-19.870189
-11.385862
-2.7308718
5.9256725
14.402436
22.508192
30.044523
36.808751
42.596626
47.205665
50.437923
52.102897
52.02029
50.022517
45.957191
39.688895
31.102656
20.102542
6.6163448
-9.4060086
-27.979712
-49.088458
-72.689036
-98.712739
-127.05896
-157.59425
-190.14974
-224.51952
-260.45909
-297.68385
-335.86842
-374.6464
-413.61116
-452.31763
-490.28543
-527.00325
-561.93481
-594.52618
-624.21458
-650.43818
-672.64692
-690.3137
-702.94546
-710.09365
-711.36357
-706.42039
-695.00348
-676.91172
-652.00521
-620.24336
-581.69745
-536.48194
-484.74868
-426.70836
-362.6323
-292.85419
-217.77107
-137.84404
-53.597836
34.38205
125.45535
218.93646
314.10713
410.23202
506.57583
602.42115
697.08552
789.93668
880.40524
967.99403
1052.284
1132.9367
1209.6938
1282.3736
1350.8656
1415.1238
1475.1587
1531.0289
1582.8328
1630.7003
1674.7856
1715.2597
1752.3049
1786.109
1816.8609
1844.7471
1869.948
1892.6361
1912.9737
1931.1114
1947.187
1961.3255
1973.6366
1984.214
1993.1405
2000.4967
2006.3225
2010.7069
2013.4711
2014.5782
-14.994152
-20.747178
-27.620843
-34.273038
-40.686657
-46.784297
-52.488446
-57.720179
-62.400191
-66.450082
-69.793782
-72.359242
-74.080154
-74.897872
-74.763265
-73.63882
-71.499455
-68.337014
-64.157979
-58.984897
-52.866802
-45.878848
-38.113403
-29.677479
-20.698326
-11.322253
-1.7129498
7.9495028
17.471265
26.647253
35.26406
43.10313
49.943687
55.566342
59.756111
62.305551
63.017741
61.708981
58.211459
52.37506
44.071178
33.191307
19.651924
3.3911655
-15.616552
-37.359249
-61.79785
-88.868057
-118.47205
-150.47745
-184.71453
-220.97412
-259.00569
-298.51548
-339.16538
-380.57244
-422.30926
-463.90574
-504.85209
-544.60344
-582.58611
-618.20558
-650.85608
-679.93151
-704.83745
-725.00378
-739.89712
-749.03258
-751.98452
-748.39215
-737.97711
-720.52528
-695.88682
-664.01701
-624.99594
-578.94614
-526.02561
-466.45152
-400.50243
-328.52174
-250.92003
-168.17746
-80.844859
10.458087
105.04845
202.19004
301.10767
401.00476
501.08336
600.56482
698.70964
794.83519
888.33008
978.66475
1065.3978
1148.1783
1226.7448
1300.9204
1370.6066
1435.7751
1496.4578
1552.7381
1604.7405
1652.622
1696.5634
1736.7618
1773.4241
1806.7609
1836.9826
1864.2944
1888.8942
1910.9696
1930.6962
1948.2365
1963.7382
1977.3353
1989.145
1999.2677
2007.7921
2014.8037
2020.3463
2024.5141
2027.1378
2028.1877
-15.86408
-22.010665
-29.345288
-36.455866
-43.32414
-49.868015
-56.004538
-61.648587
-66.714003
-71.114989
-74.767687
-77.592023
-79.513604
-80.465822
-80.391894
-79.24718
-77.000058
-73.63702
-69.160043
-63.588064
-56.968404
-49.37746
-40.910663
-31.679012
-21.815824
-11.475488
-0.83164929
9.9237055
20.583117
30.926382
40.723707
49.739181
57.733956
64.470179
69.714265
73.240304
74.833277
74.291967
71.431809
66.086813
58.113436
47.389811
33.819939
17.329349
-2.1196363
-24.519464
-49.83549
-78.008655
-108.9445
-142.51219
-178.54191
-216.82176
-257.0956
-299.06064
-342.3659
-386.61122
-431.3474
-476.07759
-520.26032
-563.31416
-604.62442
-643.55176
-679.44264
-711.64157
-739.50448
-762.413
-779.78859
-791.10578
-795.90469
-793.7961
-784.4829
-767.73719
-743.4005
-711.42615
-671.90317
-624.96261
-570.77124
-509.55244
-441.59083
-367.23797
-286.91656
-201.12495
-110.44038
-15.518739
82.910525
184.05493
287.07491
391.10427
495.2734
598.73364
700.68049
800.37416
897.15614
990.46107
1079.8235
1164.88
1245.3669
1321.1149
1392.0406
1458.1365
1519.4605
1576.1243
1628.2825
1676.1227
1719.8556
1759.7074
1795.9119
1828.7053
1858.3203
1884.9833
1908.9103
1930.305
1949.3573
1966.2417
1981.1165
1994.1249
2005.3917
2015.0243
2023.1171
2029.7602
2035.001
2038.9388
2041.4135
2042.4029
-16.798263
-23.36942
-31.202365
-38.810016
-46.173043
-53.2044
-59.815317
-65.913977
-71.406754
-76.199749
-80.200527
-83.320141
-85.475219
-86.590273
-86.599952
-85.451591
-83.106142
-79.543961
-74.761793
-68.774246
-61.62628
-53.39537
-44.179888
-34.094931
-23.280203
-11.898731
-0.13488507
11.80643
23.702922
35.317883
46.403615
56.705231
65.96414
73.922324
80.32591
84.928878
87.496532
87.808644
85.662491
80.874983
73.286258
62.760254
49.187303
32.479599
12.585617
-10.491936
-36.723455
-66.055451
-98.397457
-133.62102
-171.55709
-211.9918
-254.66398
-299.26219
-345.42255
-392.72725
-440.70426
-488.82833
-536.5239
-583.16987
-628.10656
-670.64511
-710.07893
-745.69732
-776.80054
-802.716
-822.81442
-836.52496
-843.34968
-842.86841
-834.76405
-818.79444
-794.79491
-762.72154
-722.66848
-674.77665
-619.2279
-556.24998
-486.13176
-409.23062
-325.97893
-236.89151
-142.57169
-43.713227
58.903793
164.42412
271.93534
380.49166
489.14135
596.95541
703.055
806.63544
906.98531
1003.4997
1095.6874
1183.1728
1265.6918
1343.0856
1415.2895
1482.3217
1544.2701
1601.2796
1653.5391
1701.2709
1744.7193
1784.1425
1819.8044
1851.9682
1880.892
1906.8238
1929.9993
1950.6394
1968.9485
1985.114
1999.3051
2011.6741
2022.3537
2031.458
2039.0873
2045.3361
2050.2548
2053.9478
2056.2642
2057.1893
-17.798662
-24.826566
-33.197129
-41.342905
-49.243585
-56.8069
-63.937852
-70.537379
-76.503715
-81.734075
-86.126575
-89.582455
-92.008378
-93.318965
-93.439276
-92.307633
-89.876572
-86.119447
-81.02686
-74.608382
-66.906065
-57.998009
-47.985041
-36.986724
-25.149442
-12.645423
0.32942397
13.55618
26.796399
39.795352
52.285779
63.992049
74.633998
83.931594
91.60885
97.397857
101.04255
102.30208
100.95409
96.797086
89.653422
79.372057
65.827859
48.919598
28.58109
4.8082571
-22.375751