/*--------------------------------*- C++ -*----------------------------------*\
| =========                 |                                                 |
| \\      /  F ield         | foam-extend: Open Source CFD                    |
|  \\    /   O peration     | Version:     4.1                                |
|   \\  /    A nd           | Web:         http://www.foam-extend.org         |
|    \\/     M anipulation  |                                                 |
\*---------------------------------------------------------------------------*/
FoamFile
{
    version     2.0;
    format      ascii;
    class       surfaceScalarField;
    location    "0.85";
    object      phi;
}
// * * * * * * * * * * * * * * * * * * * * * * * * * * * * * * * * * * * * * //

dimensions      [0 3 -1 0 0 0 0];

internalField   nonuniform List<scalar> 
32976
(
-0.2233236
0.0004806998
-0.22385543
0.00053182579
-0.22440381
0.00054837704
-0.22496099
0.00055718223
-0.22552222
0.00056123163
-0.22608383
0.00056161322
-0.22664248
0.00055864785
-0.22719496
0.00055247864
-0.22773815
0.00054318526
-0.22826902
0.00053087325
-0.22878468
0.00051565755
-0.22928238
0.00049770628
-0.22975959
0.00047720856
-0.230214
0.00045440883
-0.23064357
0.00042957265
-0.23104659
0.0004030159
-0.23142166
0.00037507161
-0.23176778
0.00034611451
-0.23208431
0.00031653001
-0.23237104
0.00028673408
-0.23262818
0.00025714485
-0.23285638
0.00022819829
-0.23305671
0.00020032355
-0.23323066
0.0001739539
-0.23338017
0.00014950512
-0.23350755
0.00012738248
-0.23361551
0.0001079626
-0.23370711
9.1597191e-05
-0.23378571
7.8597749e-05
-0.23385495
6.9240523e-05
-0.23391871
6.3761184e-05
-0.23398105
6.2339916e-05
-0.23404614
6.5095495e-05
-0.23411824
7.2096844e-05
-0.23420159
8.3354183e-05
-0.23430041
9.8813984e-05
-0.23441877
0.00011836378
-0.2345606
0.00014182438
-0.23472955
0.00016895768
-0.23492903
0.00019947463
-0.23516206
0.00023303359
-0.23543128
0.0002692227
-0.23573888
0.00030759548
-0.23608654
0.00034765921
-0.23647543
0.00038888678
-0.23690615
0.00043072152
-0.23737873
0.00047258452
-0.23789262
0.00051388338
-0.23844663
0.00055401834
-0.23903903
0.00059239241
-0.23966745
0.0006284191
-0.24032898
0.00066153099
-0.24102016
0.00069118786
-0.24173705
0.00071688636
-0.24247522
0.00073816494
-0.24322983
0.00075461387
-0.24399571
0.0007658807
-0.24476739
0.00077167632
-0.24553917
0.00077177971
-0.24630521
0.00076604364
-0.2470596
0.00075439432
-0.24779644
0.0007368363
-0.24850989
0.00071345145
-0.24919429
0.00068439835
-0.2498442
0.00064991022
-0.25045449
0.0006102912
-0.25102041
0.00056591307
-0.25153761
0.00051720689
-0.25200227
0.00046465892
-0.25241107
0.00040880102
-0.25276128
0.00035020566
-0.25305075
0.00028946825
-0.25327794
0.00022719304
-0.25344194
0.00016399963
-0.25354246
0.00010052506
-0.25357987
3.7404312e-05
-0.2535551
-2.4766026e-05
-0.2534694
-8.5702591e-05
-0.25332366
-0.00014574295
-0.2531192
-0.00020445655
-0.25285867
-0.00026053472
-0.25254557
-0.00031309984
-0.25218398
-0.00036158641
-0.25177839
-0.00040558583
-0.2513336
-0.00044479011
-0.25085463
-0.00047897117
-0.25034666
-0.00050797259
-0.24981495
-0.00053170623
-0.2492648
-0.00055014965
-0.24870146
-0.00056334312
-0.24813007
-0.00057138694
-0.24755564
-0.00057443475
-0.24698295
-0.00057269058
-0.24641655
-0.00056640161
-0.2458607
-0.00055585199
-0.24531934
-0.00054135603
-0.24479609
-0.00052325112
-0.2442942
-0.00050189187
-0.24381656
-0.00047764142
-0.24336569
-0.00045086746
-0.24294375
-0.00042193539
-0.24255255
-0.00039120356
-0.24219353
-0.00035901875
-0.24186782
-0.00032571321
-0.24157622
-0.00029160023
-0.24131924
-0.00025697356
-0.24109714
-0.00022210499
-0.24090989
-0.0001872437
-0.24075728
-0.0001526159
-0.24063885
-0.00011842623
-0.240554
-8.4856797e-05
-0.24050193
-5.20703e-05
-0.24048171
-2.0211351e-05
-0.24049229
1.057488e-05
-0.24053237
4.0075998e-05
-0.24060049
6.8126013e-05
-0.2406952
9.4703938e-05
-0.24081495
0.00011975701
-0.24095794
0.00014298548
-0.24112143
0.0001634895
-0.24130138
0.00017995546
-0.241493
0.00019161252
-0.24170474
0.00021174227
0.000230712
-0.25484785
0.00076358663
-0.2551221
0.00080608452
-0.2554055
0.00083176808
-0.25569591
0.00084760047
-0.25599056
0.00085588197
-0.25628654
0.00085759239
-0.25658098
0.00085308698
-0.25687105
0.00084254193
-0.25715392
0.00082606207
-0.25742686
0.00080380702
-0.25768717
0.00077596612
-0.25793229
0.0007428265
-0.2581598
0.00070472529
-0.2583675
0.00066210173
-0.25855337
0.00061544607
-0.25871569
0.00056534216
-0.25885304
0.00051241788
-0.25896431
0.00045737897
-0.25904874
0.00040096312
-0.25910597
0.00034396474
-0.25913602
0.00028719374
-0.25913931
0.00023149208
-0.25911669
0.00017769968
-0.2590694
0.00012666134
-0.25899909
7.9197846e-05
-0.25890781
3.6105546e-05
-0.25879799
-1.8630372e-06
-0.25867238
-3.4006783e-05
-0.25853409
-5.9694391e-05
-0.25838646
-7.8392065e-05
-0.25823304
-8.9660558e-05
-0.25807758
-9.311804e-05
-0.25792401
-8.8468696e-05
-0.25777637
-7.5546811e-05
-0.25763871
-5.4302815e-05
-0.25751509
-2.4806398e-05
-0.25740947
1.2745336e-05
-0.25732568
5.8034775e-05
-0.25726734
0.00011061199
-0.25723773
0.00016986364
-0.25723979
0.00023509218
-0.25727609
0.00030553106
-0.25734881
0.00038030919
-0.25745962
0.00045846919
-0.25760971
0.00053897839
-0.25779973
0.00062074269
-0.25802977
0.00070262052
-0.25829932
0.00078343994
-0.25860732
0.00086201201
-0.25895208
0.00093715024
-0.25933134
0.0010076862
-0.2597423
0.0010724869
-0.26018158
0.0011304711
-0.26064532
0.0011806279
-0.26112919
0.0012220283
-0.26162842
0.0012538442
-0.2621379
0.0012753598
-0.26265221
0.0012859845
-0.26316569
0.0012852624
-0.26367253
0.0012728836
-0.26416682
0.0012486853
-0.26464264
0.0012126606
-0.26509415
0.0011649576
-0.26551563
0.0011058785
-0.2659016
0.0010358759
-0.26624685
0.00095554559
-0.26654656
0.00086561993
-0.2667963
0.0007669524
-0.26699215
0.00066050868
-0.2671307
0.00054734777
-0.26720911
0.00042861471
-0.26722514
0.00030549808
-0.26717715
0.00017920883
-0.26706418
5.1021497e-05
-0.26688588
-7.7774522e-05
-0.26664254
-0.0002059298
-0.26633506
-0.0003322533
-0.26596517
-0.00045558612
-0.26553629
-0.00057462543
-0.26505246
-0.00068828523
-0.26451726
-0.00079573613
-0.26393426
-0.0008960999
-0.26330727
-0.0009885742
-0.26264038
-0.0010724756
-0.26193793
-0.0011472473
-0.26120443
-0.0012124614
-0.26044459
-0.0012678186
-0.25966315
-0.0013131464
-0.2588649
-0.0013483965
-0.25805461
-0.0013736394
-0.25723693
-0.0013890607
-0.25641642
-0.0013949469
-0.25559743
-0.0013916815
-0.2547841
-0.0013797303
-0.25398032
-0.0013596297
-0.2531897
-0.0013319744
-0.25241555
-0.0012974026
-0.25166086
-0.0012565864
-0.25092829
-0.0012102134
-0.25022017
-0.0011589806
-0.24953853
-0.0011035806
-0.24888504
-0.0010446927
-0.24826108
-0.00098297413
-0.24766774
-0.00091905523
-0.24710581
-0.00085352976
-0.24657583
-0.00078695495
-0.24607809
-0.00071984651
-0.24561266
-0.00065267738
-0.2451794
-0.0005858771
-0.24477799
-0.00051983392
-0.24440795
-0.0004548936
-0.24406866
-0.00039136671
-0.24375933
-0.00032953279
-0.24347911
-0.0002696488
-0.2432271
-0.00021193699
-0.24300235
-0.00015662114
-0.2428037
-0.00010394689
-0.24262975
-5.4192492e-05
-0.24247883
-7.9335355e-06
-0.2423489
3.3553887e-05
-0.24223814
6.9195123e-05
-0.24214339
9.6871004e-05
-0.24205706
0.00012540579
0.00010910434
-0.25893047
0.00099760291
-0.25915269
0.001028303
-0.25937102
0.0010500952
-0.2595859
0.0010624782
-0.25979594
0.0010659301
-0.25999922
0.001060869
-0.26019364
0.0010475062
-0.26037712
0.0010260186
-0.26054762
0.00099656134
-0.26070319
0.00095938559
-0.26084203
0.0009147966
-0.26096243
0.00086323217
-0.26106291
0.00080520438
-0.26114217
0.00074136023
-0.26119914
0.00067242126
-0.26123303
0.00059923092
-0.26124331
0.00052269723
-0.26122976
0.00044382725
-0.26119247
0.00036367544
-0.26113187
0.00028336496
-0.26104872
0.00020404229
-0.26094412
0.00012688717
-0.26081949
5.3077814e-05
-0.26067662
-1.6212747e-05
-0.26051758
-7.9842064e-05
-0.26034476
-0.00013671429
-0.26016083
-0.00018579551
-0.25996869
-0.00022614609
-0.25977147
-0.00025691285
-0.2595725
-0.0002773585
-0.2593753
-0.00028686214
-0.25918346
-0.00028496372
-0.25900057
-0.00027135289
-0.25883025
-0.00024586917
-0.25867603
-0.00020852779
-0.25854133
-0.00015950626
-0.25842942
-9.9161767e-05
-0.25834337
-2.8018883e-05
-0.25828598
5.3224624e-05
-0.25825984
0.00014372239
-0.25826721
0.00024246563
-0.25830997
0.00034829153
-0.25838958
0.00045991747
-0.25850705
0.00057593788
-0.25866292
0.00069485001
-0.25885725
0.00081506879
-0.25908957
0.00093494732
-0.25935893
0.0010528001
-0.25966384
0.0011669215
-0.2600023
0.0012756131
-0.26037182
0.0013772048
-0.26076942
0.0014700798
-0.26119164
0.0015526973
-0.26163463
0.0016236186
-0.26209413
0.0016815237
-0.26256552
0.0017252379
-0.26304391
0.0017537487
-0.26352415
0.0017662238
-0.26400091
0.0017620251
-0.26446875
0.0017407248
-0.26492218
0.0017021076
-0.2653557
0.0016461833
-0.26576393
0.0015731858
-0.26614162
0.0014835719
-0.26648376
0.0013780163
-0.26678562
0.0012574013
-0.26704281
0.0011228071
-0.26725134
0.00097549001
-0.2674077
0.00081686886
-0.26750885
0.00064849762
-0.2675523
0.0004720592
-0.26753609
0.00028928587
-0.26745883
0.00010195497
-0.26731976
-8.804862e-05
-0.2671187
-0.00027884007
-0.26685607
-0.00046855459
-0.26653294
-0.00065538825
-0.26615092
-0.00083760516
-0.26571204
-0.0010135005
-0.2652188
-0.0011815236
-0.26467424
-0.0013402997
-0.2640818
-0.0014885444
-0.26344527
-0.0016250984
-0.26276878
-0.0017489667
-0.2620567
-0.001859333
-0.26131359
-0.0019555666
-0.26054418
-0.0020372239
-0.25975328
-0.0021040484
-0.25894571
-0.0021559663
-0.25812627
-0.0021930801
-0.25729967
-0.0022156628
-0.25647048
-0.0022241369
-0.25564309
-0.0022190688
-0.25482168
-0.0022011469
-0.25401014
-0.0021711648
-0.25321212
-0.0021300015
-0.25243092
-0.002078601
-0.25166955
-0.0020179573
-0.25093067
-0.0019490869
-0.25021663
-0.0018730198
-0.24952943
-0.0017907793
-0.24887076
-0.0017033687
-0.24824197
-0.0016117583
-0.24764415
-0.0015168786
-0.24707808
-0.0014196053
-0.24654427
-0.0013207604
-0.24604301
-0.0012211043
-0.24557436
-0.001121334
-0.24513815
-0.0010220828
-0.24473406
-0.00092392281
-0.24436159
-0.00082736326
-0.2440201
-0.00073285982
-0.24370881
-0.00064082036
-0.24342685
-0.00055161363
-0.24317321
-0.00046557702
-0.24294679
-0.00038303811
-0.24274641
-0.00030432696
-0.24257075
-0.00022985034
-0.24241833
-0.0001603538
-0.24228776
-9.7018117e-05
-0.24217828
-4.0286219e-05
-0.24208561
4.2021019e-06
-0.24200298
4.2771951e-05
4.1727838e-05
-0.25940626
0.0012202751
-0.25962215
0.0012441932
-0.2598326
0.0012605429
-0.26003732
0.0012671952
-0.26023506
0.0012636759
-0.26042417
0.0012499729
-0.2606028
0.0012261423
-0.26076913
0.0011923445
-0.26092134
0.0011487782
-0.26105774
0.0010957837
-0.26117673
0.0010337808
-0.26127685
0.00096335369
-0.26135683
0.00088518185
-0.26141557
0.00080010795
-0.26145222
0.00070906959
-0.26146614
0.00061315061
-0.26145696
0.00051351801
-0.26142459
0.00041145669
-0.26136923
0.00030831413
-0.26129138
0.00020551817
-0.26119187
0.00010452791
-0.26107182
6.8380161e-06
-0.26093269
-8.6051856e-05
-0.26077625
-0.00017265538
-0.26060457
-0.00025152086
-0.26042002
-0.00032126358
-0.26022523
-0.00038058154
-0.2600231
-0.00042828313
-0.25981671
-0.00046329901
-0.25960935
-0.00048471473
-0.25940445
-0.00049176779
-0.25920552
-0.00048389765
-0.25901613
-0.00046073467
-0.25883989
-0.00042211023
-0.25868033
-0.00036808612
-0.25854091
-0.00029893179
-0.25842492
-0.00021515358
-0.25833546
-0.0001174708
-0.25827541
-6.8271393e-06
-0.25824732
0.00011562973
-0.2582534
0.00024854753
-0.2582955
0.00039038963
-0.25837504
0.00053945943
-0.25849301
0.00069390376
-0.2586499
0.00085174554
-0.25884574
0.0010109059
-0.25908002
0.0011692291
-0.25935174
0.0013245144
-0.25965935
0.0014745388
-0.26000083
0.0016170922
-0.26037363
0.0017500053
-0.26077473
0.0018711801
-0.26120066
0.0019786197
-0.2616475
0.0020704618
-0.26211098
0.0021449991
-0.26258645
0.002200714
-0.263069
0.0022362998
-0.26355346
0.0022506837
-0.26403448
0.0022430459
-0.2645066
0.0022128397
-0.26496429
0.0021597947
-0.26540204
0.002083934
-0.26581442
0.0019855728
-0.26619617
0.001865318
-0.26654221
0.0017240612
-0.26684778
0.0015629671
-0.26710843
0.0013834597
-0.26732014
0.0011871956
-0.26747932
0.0009760458
-0.26758288
0.00075206062
-0.26762828
0.00051746069
-0.26761353
0.00027453392
-0.26753721
2.5640122e-05
-0.26739854
-0.00022672605
-0.26719728
-0.00048009334
-0.26693384
-0.00073199379
-0.26660919
-0.00098004485
-0.26622487
-0.0012219245
-0.26578296
-0.0014554105
-0.26528604
-0.0016784422
-0.2647372
-0.0018891429
-0.26413994
-0.0020858022
-0.26349814
-0.0022668953
-0.262816
-0.0024311126
-0.26209795
-0.0025773764
-0.26134867
-0.0027048521
-0.26057294
-0.0028129523
-0.25977565
-0.0029013371
-0.25896171
-0.0029699103
-0.25813598
-0.0030188096
-0.25730324
-0.0030484008
-0.25646813
-0.0030592486
-0.25563509
-0.0030521091
-0.25480833
-0.0030279016
-0.25399181
-0.0029876847
-0.25318918
-0.0029326307
-0.25240379
-0.0028639978
-0.25163863
-0.00278311
-0.2508964
-0.0026913203
-0.25017942
-0.002589999
-0.24948969
-0.0024805064
-0.24882889
-0.002364175
-0.24819835
-0.0022422926
-0.24759914
-0.0021160934
-0.24703201
-0.0019867378
-0.24649745
-0.001855314
-0.24599573
-0.0017228277
-0.24552686
-0.0015902004
-0.24509068
-0.0014582679
-0.24468682
-0.0013277846
-0.24431476
-0.001199421
-0.24397384
-0.001073776
-0.24366328
-0.00095138235
-0.24338218
-0.00083271762
-0.24312954
-0.00071821826
-0.24290428
-0.00060829741
-0.24270524
-0.00050336766
-0.24253114
-0.00040394604
-0.24238066
-0.00031083604
-0.2422527
-0.00022497607
-0.24214637
-0.00014661641
-0.24205681
-8.5355288e-05
-0.24198253
-3.1511371e-05
-5.3524056e-06
-0.2594606
0.001441396
-0.2596784
0.0014619953
-0.25989167
0.0014738112
-0.26009924
0.0014747714
-0.26029966
0.0014640923
-0.26049121
0.0014415269
-0.26067209
0.0014070172
-0.26084045
0.0013607066
-0.2609945
0.0013028293
-0.26113252
0.0012338072
-0.26125291
0.0011541686
-0.2613542
0.0010646388
-0.26143508
0.00096606064
-0.26149444
0.0008594687
-0.26153138
0.00074601358
-0.26154525
0.00062701723
-0.26153563
0.00050390429
-0.26150241
0.00037823723
-0.26144576
0.00025165805
-0.26136614
0.00012590146
-0.26126436
2.7413109e-06
-0.26114151
-0.0001160051
-0.26099906
-0.00022850727
-0.26083875
-0.00033295932
-0.26066268
-0.00042759092
-0.26047322
-0.00051072329
-0.26027304
-0.00058076797
-0.26006504
-0.00063627981
-0.25985238
-0.00067595662
-0.2596384
-0.00069869528
-0.25942659
-0.0007035774
-0.25922056
-0.00068993317
-0.25902396
-0.00065732799
-0.2588405
-0.00060557713
-0.2586738
-0.00053478383
-0.25852742
-0.00044530622
-0.25840478
-0.00033779906
-0.25830907
-0.00021317763
-0.25824326
-7.2638488e-05
-0.25821
8.2368282e-05
-0.25821159
0.00025014226
-0.25824996
0.00042875927
-0.2583266
0.00061609546
-0.25844254
0.00080984585
-0.25859834
0.0010075444
-0.25879404
0.0012066072
-0.25902917
0.0014043583
-0.25930273
0.001598068
-0.25961317
0.0017849833
-0.25995845
0.0019623693
-0.26033599
0.0021275441
-0.26074272
0.0022779163
-0.26117512
0.0024110206
-0.26162922
0.0025245591
-0.26210065
0.0026164262
-0.26258468
0.0026847506
-0.26307631
0.002727922
-0.26357024
0.0027446188
-0.26406103
0.0027338316
-0.26454308
0.0026948889
-0.26501074
0.002627461
-0.26545839
0.0025315815
-0.26588046
0.0024076465
-0.26627156
0.0022564143
-0.2666265
0.0020789974
-0.26694038
0.0018768485
-0.26720866
0.001651744
-0.26742722
0.001405751
-0.26759238
0.0011412042
-0.26770098
0.00086066619
-0.26775042
0.00056690211
-0.26773868
0.00026278953
-0.26766432
-4.8714996e-05
-0.26752654
-0.00036450811
-0.26732512
-0.00068151109
-0.26706048
-0.00099663857
-0.26673363
-0.0013068999
-0.26634615
-0.0016093969
-0.2659002
-0.0019013679
-0.26539841
-0.0021802307
-0.26484393
-0.0024436164
-0.26424036
-0.002689377
-0.26359165
-0.0029156085
-0.26290208
-0.0031206775
-0.26217622
-0.0033032394
-0.26141882
-0.0034622531
-0.26063478
-0.0035969866
-0.2598291
-0.0037070182
-0.25900678
-0.0037922321
-0.25817278
-0.003852807
-0.25733198
-0.0038892078
-0.25648907
-0.0039021497
-0.2556486
-0.0038925887
-0.25481481
-0.0038616853
-0.25399172
-0.0038107745
-0.25318302
-0.0037413332
-0.25239207
-0.0036549452
-0.25162191
-0.0035532757
-0.2508752
-0.0034380244
-0.25015429
-0.003310911
-0.24946116
-0.0031736412
-0.24879745
-0.003027884
-0.24816449
-0.0028752504
-0.2475633
-0.0027172829
-0.24699461
-0.0025554296
-0.24645888
-0.0023910472
-0.24595631
-0.0022253878
-0.24548692
-0.0020595968
-0.24505048
-0.0018947113
-0.24464659
-0.0017316655
-0.24427473
-0.0015712874
-0.24393419
-0.0014143136
-0.24362418
-0.0012613948
-0.24334379
-0.0011131098
-0.24309203
-0.00096997877
-0.24286784
-0.00083248266
-0.24267011
-0.00070109602
-0.24249767
-0.00057638984
-0.24234939
-0.00045911566
-0.24222438
-0.00034998324
-0.24212164
-0.00024935372
-0.24203695
-0.00017005491
-0.24197198
-9.6472631e-05
-4.1886564e-05
-0.25948691
0.0016647095
-0.25970857
0.0016836496
-0.25992657
0.0016918206
-0.26013928
0.001687478
-0.26034497
0.0016697845
-0.26054183
0.0016383879
-0.26072798
0.0015931619
-0.26090152
0.0015342439
-0.26106059
0.001461902
-0.26120342
0.0013766366
-0.26132833
0.0012790809
-0.26143379
0.0011700998
-0.26151843
0.0010506988
-0.26158107
0.00092210602
-0.26162074
0.00078568743
-0.26163673
0.00064300718
-0.26162858
0.00049575291
-0.26159611
0.00034577129
-0.26153946
0.00019500763
-0.26145907
4.5510061e-05
-0.26135571
-0.00010062177
-0.26123048
-0.00024123216
-0.26108484
-0.00037415232
-0.26092055
-0.00049724698
-0.26073972
-0.00060841538
-0.26054478
-0.00070566896
-0.26033843
-0.00078712128
-0.26012364
-0.00085106141
-0.25990366
-0.00089594188
-0.25968189
-0.00092045977
-0.25946194
-0.00092352959
-0.25924751
-0.00090436414
-0.25904238
-0.00086245741
-0.25885036
-0.00079760262
-0.2586752
-0.00070994072
-0.25852059
-0.00059991643
-0.25839006
-0.00046833271
-0.25828693
-0.00031630203
-0.25821429
-0.00014527867
-0.2581749
4.2980666e-05
-0.25817118
0.00024641828
-0.25820514
0.00046271589
-0.25827835
0.00068930973
-0.25839193
0.00092342861
-0.2585465
0.001162108
-0.25874213
0.0014022445
-0.2589784
0.0016406263
-0.25925431
0.0018739797
-0.25956834
0.0020990052
-0.25991839
0.0023124268
-0.26030188
0.0025110335
-0.26071569
0.0026917236
-0.26115622
0.0028515473
-0.26161941
0.0029877553
-0.26210082
0.0030978284
-0.26259559
0.0031795279
-0.2630986
0.0032309266
-0.26360442
0.0032504428
-0.26410746
0.0032368683
-0.26460197
0.0031893989
-0.26508215
0.0031076404
-0.2655422
0.0029916345
-0.26597641
0.0028418581
-0.26637922
0.0026592236
-0.26674529
0.00244507
-0.26706959
0.0022011465
-0.26734744
0.0019295926
-0.26757459
0.0016328992
-0.26774726
0.0013138795
-0.26786223
0.00097562712
-0.26791679
0.00062146603
-0.26790889
0.00025489118
-0.26783708
-0.00012052748
-0.26770051
-0.00050107323
-0.26749899
-0.00088303178
-0.26723294
-0.0012626945
-0.2669034
-0.0016364385
-0.26651203
-0.0020007708
-0.26606103
-0.0023523679
-0.26555314
-0.0026881131
-0.26499162
-0.003005141
-0.26438014
-0.0033008574
-0.26372278
-0.0035729681
-0.26302395
-0.0038195073
-0.26228833
-0.0040388578
-0.26152082
-0.0042297684
-0.26072644
-0.0043913616
-0.25991032
-0.0045231355
-0.2590776
-0.0046249589
-0.25823335
-0.0046970574
-0.25738255
-0.0047400042
-0.25653002
-0.0047546757
-0.25568037
-0.0047422398
-0.25483795
-0.0047041116
-0.2540068
-0.004641917
-0.25319069
-0.0045574522
-0.25239299
-0.0044526409
-0.25161676
-0.0043295034
-0.25086469
-0.004190099
-0.25013909
-0.0040365092
-0.24944194
-0.0038707951
-0.24877485
-0.0036949712
-0.24813912
-0.0035109793
-0.24753573
-0.0033206757
-0.24696536
-0.0031258009
-0.24642842
-0.0029279827
-0.24592509
-0.002728721
-0.2454553
-0.0025293857
-0.2450188
-0.002331214
-0.24461514
-0.0021353183
-0.24424375
-0.0019426808
-0.24390389
-0.0017541716
-0.24359473
-0.0015705544
-0.24331534
-0.0013925007
-0.24306472
-0.0012206044
-0.2428418
-0.0010554028
-0.24264548
-0.00089741342
-0.24247465
-0.00074721348
-0.24232832
-0.00060545264
-0.24220562
-0.00047267637
-0.24210561
-0.00034936668
-0.2420249
-0.00025076984
-0.24196639
-0.00015497515
-7.2831014e-05
-0.25952191
0.0018923015
-0.25974879
0.0019105298
-0.25997278
0.001915811
-0.26019192
0.0019066147
-0.26040428
0.001882145
-0.26060791
0.0018420184
-0.26080082
0.0017860767
-0.26098104
0.001714464
-0.26114663
0.0016274851
-0.26129571
0.0015257177
-0.26142652
0.0014098986
-0.26153746
0.0012810318
-0.26162704
0.0011402866
-0.26169403
0.00098908669
-0.26173736
0.00082901761
-0.26175624
0.00066189131
-0.26175015
0.00048966541
-0.26171886
0.00031447945
-0.26166244
0.00013859231
-0.26158131
-3.5623571e-05
-0.2614762
-0.00020572891
-0.26134822
-0.00036921656
-0.2611988
-0.00052357504
-0.26102974
-0.00066630225
-0.26084319
-0.00079496856
-0.2606416
-0.00090725505
-0.26042776
-0.0010009595
-0.26020473
-0.0010740916
-0.25997583
-0.0011248455
-0.25974459
-0.0011517041
-0.25951471
-0.0011534023
-0.25929005
-0.0011290256
-0.25907452
-0.001077988
-0.25887207
-0.0010000538
-0.25868661
-0.00089539746
-0.25852198
-0.00076454787
-0.25838186
-0.00060845658
-0.25826972
-0.00042843621
-0.2581888
-0.00022620332
-0.25814199
-3.8270098e-06
-0.25813184
0.00023626416
-0.25816047
0.00049134816
-0.25822957
0.0007584093
-0.25834033
0.0010341925
-0.25849345
0.0013152214
-0.25868906
0.0015978544
-0.25892676
0.0018783265
-0.25920558
0.0021528001
-0.25952398
0.0024174101
-0.25987988
0.0026683195
-0.26027061
0.0029017682
-0.26069301
0.0031141246
-0.2611434
0.0033019348
-0.26161762
0.0034619796
-0.2621111
0.0035913081
-0.26261887
0.0036872974
-0.26313563
0.0037476882
-0.26365582
0.0037706253
-0.26417364
0.00375469
-0.26468318
0.0036989368
-0.26517844
0.0036029007
-0.26565343
0.0034666282
-0.26610225
0.0032906769
-0.26651914
0.0030761168
-0.26689859
0.0028245202
-0.26723539
0.0025379426
-0.2675247
0.0022189002
-0.26776212
0.0018703237
-0.26794376
0.0014955232
-0.26806628
0.0010981434
-0.26812691
0.00068209596
-0.26812354
0.00025151495
-0.26805466
-0.00018940003
-0.26791944
-0.00063630053
-0.26771766
-0.0010848059
-0.2674498
-0.0015305586
-0.26711694
-0.0019692981
-0.26672079
-0.0023969153
-0.26626366
-0.0028095038
-0.26574837
-0.0032033961
-0.2651783
-0.0035752183
-0.26455724
-0.0039219177
-0.26388941
-0.0042407978
-0.26317936
-0.0045295504
-0.26243194
-0.0047862782
-0.2616522
-0.005009516
-0.26084532
-0.0051982394
-0.26001659
-0.0053518679
-0.25917129
-0.0054702597
-0.25831465
-0.0055536955
-0.25745178
-0.0056028673
-0.25658763
-0.0056188253
-0.25572691
-0.0056029648
-0.25487405
-0.005556972
-0.25403319
-0.005482781
-0.25320811
-0.005382525
-0.25240227
-0.0052584854
-0.25161872
-0.0051130542
-0.25086015
-0.0049486663
-0.25012888
-0.0047677787
-0.24942686
-0.0045728208
-0.24875566
-0.004366163
-0.24811656
-0.0041500862
-0.24751047
-0.0039267675
-0.24693802
-0.003698244
-0.24639959
-0.0034664177
-0.24589527
-0.0032330375
-0.24542496
-0.0029996971
-0.24498834
-0.0027678325
-0.24458493
-0.0025387309
-0.24421408
-0.0023135246
-0.24387504
-0.0020932118
-0.24356694
-0.0018786621
-0.24328881
-0.0016706318
-0.24303963
-0.0014697783
-0.24281835
-0.0012766851
-0.24262387
-0.0010918942
-0.24245512
-0.00091596082
-0.24231114
-0.0007494328
-0.24219107
-0.0005927522
-0.242094
-0.00044643044
-0.24201706
-0.00032771026
-0.24196321
-0.0002088228
-0.00010044533
-0.25957142
0.0021254516
-0.25980453
0.002143638
-0.26003533
0.0021466119
-0.26026169
0.0021329741
-0.26048152
0.0021019766
-0.26069274
0.0020532346
-0.26089324
0.0019865782
-0.26108094
0.0019021684
-0.26125381
0.0018003493
-0.26140987
0.0016817761
-0.26154726
0.0015472888
-0.26166426
0.0013980309
-0.26175931
0.0012353368
-0.26183105
0.0010608292
-0.26187835
0.00087631775
-0.26190033
0.00068386898
-0.26189638
0.00048571852
-0.26186621
0.00028430955
-0.26180984
8.2224032e-05
-0.26172764
-0.00011782498
-0.26162032
-0.00031304462
-0.26148898
-0.00050056387
-0.26133504
-0.00067750696
-0.26116035
-0.00084100155
-0.26096706
-0.00098825793
-0.2607577
-0.0011166136
-0.26053512
-0.0012235349
-0.26030248
-0.0013067309
-0.26006321
-0.001364122
-0.25982095
-0.0013939613
-0.25957956
-0.0013947892
-0.25934304
-0.0013655519
-0.25911545
-0.0013055732
-0.25890092
-0.0012145805
-0.25870354
-0.0010927766
-0.25852732
-0.00094077164
-0.25837611
-0.00075966617
-0.25825357
-0.0005509761
-0.25816309
-0.00031668553
-0.25810773
-5.9183352e-05
-0.25809019
0.00021871632
-0.25811271
0.00051387522
-0.25817712
0.00082281217
-0.25828469
0.0011417701
-0.25843621
0.0014667423
-0.25863189
0.0017935288
-0.25887135
0.0021177903
-0.25915366
0.0024351038
-0.25947726
0.0027410157
-0.25984005
0.0030311051
-0.26023932
0.0033010397
-0.26067183
0.003546635
-0.2611338
0.0037639106
-0.26162098
0.003949155
-0.26212864
0.0040989652
-0.26265165
0.0042103143
-0.26318456
0.004280593
-0.26372159
0.0043076565
-0.26425676
0.0042898621
-0.26478394
0.0042261125
-0.2652969
0.0041158641
-0.26578944
0.003959164
-0.26625541
0.0037566505
-0.26668885
0.0035095545
-0.26708402
0.0032196895
-0.2674355
0.0028894289
-0.26773829
0.0025216807
-0.2679878
0.0021198339
-0.26817999
0.0016877181
-0.2683114
0.0012295506
-0.26837917
0.00074986631
-0.26838112
0.00025346237
-0.2683157
-0.00025481443
-0.26818205
-0.0007699505
-0.26797998
-0.0012868795
-0.26770997
-0.0018005648
-0.26737319
-0.0023060844
-0.26697141
-0.0027986927
-0.26650703
-0.0032738782
-0.26598303
-0.0037274042
-0.26540287
-0.0041553729
-0.26477053
-0.0045542582
-0.26409038
-0.0049209479
-0.26336715
-0.00525278
-0.26260586
-0.0055475691
-0.26181175
-0.0058036303
-0.26099019
-0.0060197909
-0.26014667
-0.006195394
-0.25928664
-0.0063302928
-0.2584155
-0.0064248324
-0.25753853
-0.006479836
-0.25666081
-0.0064965439
-0.25578718
-0.0064765963
-0.25492218
-0.0064219708
-0.25407003
-0.0063349306
-0.25323459
-0.0062179675
-0.25241933
-0.0060737413
-0.25162735
-0.0059050364
-0.25086134
-0.0057146817
-0.25012359
-0.0055055268
-0.24941602
-0.0052803842
-0.2487402
-0.0050419925
-0.2480973
-0.0047929823
-0.24748821
-0.004535859
-0.24691349
-0.004272962
-0.24637344
-0.0040064709
-0.24586809
-0.0037383851
-0.24539726
-0.0034705217
-0.24496058
-0.0032045136
-0.2445575
-0.0029418193
-0.2441873
-0.0026837165
-0.24384919
-0.002431325
-0.24354224
-0.0021856129
-0.24326546
-0.0019474119
-0.24301781
-0.0017174327
-0.2427982
-0.0014962914
-0.24260556
-0.0012845357
-0.24243884
-0.0010826796
-0.24229709
-0.00089117859
-0.24217945
-0.00071039284
-0.24208512
-0.00054076767
-0.24201139
-0.00040143386
-0.24196091
-0.00025930337
-0.00012590684
-0.25963314
0.0023654881
-0.25987366
0.0023841548
-0.26011239
0.0023853411
-0.26034707
0.0023676594
-0.26057549
0.0023303921
-0.26079541
0.0022731608
-0.26100463
0.0021957933
-0.26120093
0.0020984722
-0.26138217
0.001981583
-0.26154625
0.0018458581
-0.2616912
0.0016922401
-0.26181518
0.0015220128
-0.26191652
0.0013366774
-0.26199375
0.0011380589
-0.26204563
0.00092819658
-0.26207118
0.00070941852
-0.26206971
0.00048424724
-0.26204084
0.00025544197
-0.26198454
2.5918811e-05
-0.26190111
-0.00020125342
-0.26179124
-0.0004229094
-0.26165601
-0.00063580046
-0.26149686
-0.00083665782
-0.26131562
-0.0010222377
-0.26111452
-0.0011893541
-0.26089616
-0.0013349814
-0.26066345
-0.0014562361
-0.26041968
-0.0015505065
-0.26016838
-0.0016154188
-0.25991336
-0.0016489789
-0.25965864
-0.001649516
-0.25940837
-0.0016158227
-0.25916682
-0.0015471207
-0.25893831
-0.0014430913
-0.25872713
-0.0013039596
-0.25853748
-0.0011304139
-0.25837345
-0.00092370418
-0.25823887
-0.00068555332
-0.25813733
-0.00041821931
-0.2580721
-0.00012442009
-0.25804601
0.00019262902
-0.25806149
0.00052935688
-0.25812048
0.00088180145
-0.25822439
0.001245681
-0.25837409
0.0016164408
-0.25856986
0.001989296
-0.25881138
0.0023593092
-0.25909772
0.0027214474
-0.25942735
0.0030706421
-0.2597981
0.0034018624
-0.26020724
0.0037101772
-0.26065143
0.003990823
-0.26112679
0.004239267
-0.26162891
0.0044512806
-0.26215293
0.0046229845
-0.26269354
0.0047509252
-0.26324507
0.004832123
-0.26380154
0.0048641249
-0.26435673
0.0048450486
-0.26490425
0.0047736322
-0.26543763
0.0046492447
-0.26595039
0.004471929
-0.26643615
0.0042424033
-0.26688866
0.0039620638
-0.26730194
0.0036329735
-0.26767035
0.0032578373
-0.26798864
0.002839973
-0.26825206
0.00238325
-0.26845638
0.0018920426
-0.268598
0.0013711677
-0.26867395
0.00082582078
-0.26868198
0.00026149363
-0.2686205
-0.0003162964
-0.26848861
-0.00090183815
-0.26828614
-0.001489353
-0.26801361
-0.0020730959
-0.26767224
-0.0026474557
-0.26726391
-0.003207024
-0.26679113
-0.0037466604
-0.26625699
-0.0042615374
-0.26566515
-0.0047472139
-0.26501974
-0.0051996731
-0.26432531
-0.0056153718
-0.26358681
-0.0059912812
-0.26280946
-0.0063249177
-0.26199872
-0.0066143709
-0.2611602
-0.0068583175
-0.26029956
-0.0070560263
-0.2594225
-0.0072073523
-0.25853462
-0.0073127155
-0.25764137
-0.0073730858
-0.256748
-0.0073899115
-0.2558595
-0.0073650995
-0.25498053
-0.007300942
-0.2541154
-0.0072000562
-0.25326806
-0.0070653172
-0.25244201
-0.0068997886
-0.25164037
-0.00670667
-0.25086585
-0.0064892066
-0.25012072
-0.00625066
-0.24940686
-0.0059942426
-0.24872577
-0.005723076
-0.24807861
-0.0054401514
-0.24746615
-0.0051483113
-0.24688891
-0.0048502037
-0.24634709
-0.0045482893
-0.24584066
-0.0042448195
-0.24536935
-0.0039418344
-0.2449327
-0.0036411615
-0.24453009
-0.0033444273
-0.24416076
-0.0030530495
-0.24382382
-0.0027682639
-0.2435183
-0.0024911296
-0.24324317
-0.0022225456
-0.24299733
-0.001963267
-0.24277969
-0.0017139319
-0.24258915
-0.0014750791
-0.24242466
-0.0012471734
-0.24228525
-0.0010305866
-0.24217005
-0.00082559458
-0.2420783
-0.00063251387
-0.24200734
-0.00047239871
-0.2419594
-0.00030723868
-0.00014985842
-0.25970717
0.002613429
-0.25995613
0.0026331152
-0.26020379
0.0026329963
-0.26044778
0.002611654
-0.26068577
0.0025683762
-0.26091539
0.0025027853
-0.26113431
0.0024147068
-0.26134018
0.0023043462
-0.26153073
0.002172129
-0.26170373
0.0020188647
-0.26185709
0.0018455977
-0.26198883
0.0016537526
-0.26209715
0.0014449992
-0.26218046
0.001221369
-0.2622374
0.00098513635
-0.26226688
0.00073889921
-0.26226811
0.00048547685
-0.26224063
0.00022795726
-0.26218432
-3.0391905e-05
-0.26209944
-0.00028613453