/*--------------------------------*- C++ -*----------------------------------*\
| =========                 |                                                 |
| \\      /  F ield         | foam-extend: Open Source CFD                    |
|  \\    /   O peration     | Version:     4.1                                |
|   \\  /    A nd           | Web:         http://www.foam-extend.org         |
|    \\/     M anipulation  |                                                 |
\*---------------------------------------------------------------------------*/
FoamFile
{
    version     2.0;
    format      ascii;
    class       volScalarField;
    location    "0.85";
    object      rAU;
}
// * * * * * * * * * * * * * * * * * * * * * * * * * * * * * * * * * * * * * //

dimensions      [0 0 1 0 0 0 0];

internalField   nonuniform List<scalar> 
16796
(
0.00012955295
0.00012930741
0.00012908092
0.00012884941
0.00012861312
0.00012837504
0.00012813493
0.00012789568
0.00012765701
0.0001274218
0.00012718976
0.00012696368
0.00012674321
0.00012653101
0.00012632657
0.00012613238
0.00012594772
0.00012577485
0.00012561278
0.00012546348
0.00012532568
0.00012520102
0.00012508791
0.00012498767
0.00012489835
0.00012482095
0.00012475318
0.0001246957
0.00012464593
0.00012460424
0.00012456777
0.00012453625
0.00012450817
0.00012448075
0.0001244539
0.00012442436
0.00012439199
0.00012435356
0.00012430897
0.00012425511
0.00012419206
0.00012411704
0.00012402985
0.00012392905
0.00012381388
0.00012368372
0.00012353814
0.0001233771
0.00012320057
0.00012300892
0.00012280275
0.00012258287
0.0001223503
0.00012210642
0.0001218526
0.00012159052
0.00012132198
0.00012104893
0.00012077334
0.00012049745
0.00012022329
0.00011995306
0.00011968889
0.00011943289
0.00011918708
0.00011895336
0.00011873364
0.00011852949
0.00011834246
0.00011817387
0.00011802489
0.00011789643
0.00011778935
0.00011770409
0.00011764102
0.00011760028
0.00011758177
0.00011758174
0.00011758523
0.0001176102
0.00011765646
0.00011772363
0.00011781083
0.00011791695
0.00011804061
0.00011818034
0.00011833453
0.00011850149
0.00011867943
0.00011886652
0.00011906102
0.00011926098
0.00011946459
0.00011967007
0.00011987568
0.00012007972
0.00012028059
0.0001204769
0.00012066715
0.00012085012
0.00012102466
0.00012118976
0.00012134449
0.0001214882
0.00012162015
0.00012173986
0.00012184695
0.00012194114
0.00012202221
0.00012209021
0.00012214504
0.00012218685
0.00012221581
0.00012223219
0.00012222848
0.00012220936
0.00012217935
0.00012213907
0.00012208918
0.00012203071
0.00012196515
0.00012189488
0.00012181609
0.000121704
0.00011713053
0.00011700032
0.00011689975
0.00011679806
0.0001166936
0.00011658841
0.00011648185
0.00011637633
0.00011627133
0.0001161693
0.00011606973
0.00011597503
0.00011588464
0.00011580088
0.00011572309
0.00011565344
0.00011559111
0.00011553809
0.00011549335
0.00011545866
0.00011543275
0.00011541711
0.00011541022
0.0001154133
0.00011542454
0.00011544488
0.00011547221
0.00011550724
0.00011554758
0.00011559038
0.00011562952
0.00011567403
0.00011572279
0.0001157735
0.00011582633
0.00011587849
0.00011593004
0.0001159781
0.00011602219
0.00011604608
0.00011606115
0.00011606497
0.00011605757
0.00011603774
0.00011600496
0.00011595882
0.00011589904
0.00011582575
0.00011573904
0.00011563938
0.00011552742
0.00011540401
0.00011527018
0.00011512727
0.00011497661
0.0001148198
0.00011465854
0.00011449464
0.00011432995
0.00011416653
0.00011400625
0.00011385111
0.00011370309
0.00011356409
0.00011343593
0.00011332034
0.00011321904
0.00011313342
0.00011306486
0.00011301455
0.00011298348
0.00011297244
0.00011298218
0.00011301303
0.00011306528
0.00011312354
0.00011317668
0.00011324786
0.00011332347
0.00011342
0.00011353671
0.00011367285
0.0001138277
0.00011400045
0.00011419011
0.0001143956
0.00011461568
0.00011484904
0.00011509424
0.00011534976
0.00011561418
0.00011588582
0.0001161631
0.00011644446
0.00011672831
0.00011701313
0.00011729741
0.00011757983
0.00011785894
0.00011813354
0.00011840246
0.00011866465
0.00011891911
0.00011916511
0.0001194018
0.00011962858
0.00011984493
0.00012005041
0.00012024466
0.00012042754
0.00012059879
0.00012075837
0.00012090627
0.00012104257
0.00012115969
0.00012126194
0.00012135349
0.00012143466
0.00012150589
0.00012156286
0.00012160083
0.00012163462
0.00012166061
0.00012167426
0.00011563243
0.00011551758
0.00011542841
0.00011534212
0.0001152571
0.00011517527
0.00011509583
0.00011502097
0.00011495001
0.00011488513
0.00011482559
0.00011477352
0.00011472805
0.00011469117
0.00011466187
0.00011464198
0.00011463029
0.00011462842
0.00011463495
0.00011465126
0.0001146757
0.0001147094
0.00011475046
0.00011479975
0.00011485513
0.00011491723
0.00011497233
0.00011502256
0.00011507742
0.00011513426
0.00011518717
0.00011524528
0.00011530766
0.00011537217
0.00011543915
0.00011550597
0.00011557286
0.00011563709
0.00011569832
0.0001157405
0.0001157681
0.00011576303
0.000115745
0.00011571319
0.00011566746
0.00011560778
0.00011553429
0.00011544751
0.00011534791
0.00011523632
0.00011511373
0.0001149813
0.00011484033
0.00011469239
0.00011453901
0.00011438192
0.00011422295
0.00011406396
0.00011390683
0.00011375359
0.00011360606
0.00011346616
0.00011333572
0.00011321649
0.00011311013
0.00011301813
0.00011294202
0.00011288294
0.00011284202
0.00011282019
0.00011281818
0.00011283653
0.0001128757
0.00011293579
0.0001130034
0.00011302775
0.00011304605
0.00011308495
0.00011314472
0.00011322527
0.00011332651
0.00011344805
0.00011358934
0.00011374967
0.00011392817
0.00011412383
0.00011433551
0.00011456192
0.00011480168
0.00011505327
0.00011531528
0.00011558599
0.00011586382
0.00011614713
0.0001164343
0.00011672373
0.00011701381
0.00011730315
0.0001175902
0.00011787366
0.00011815225
0.00011842482
0.00011869028
0.00011894779
0.00011919639
0.0001194354
0.00011966419
0.00011988226
0.00012008916
0.00012028467
0.00012046846
0.00012064043
0.00012080052
0.00012094874
0.00012108511
0.00012120988
0.00012132313
0.00012142509
0.00012151593
0.00012159075
0.00012164411
0.00012168878
0.00012171573
0.00012172131
0.00011539704
0.00011528447
0.0001151959
0.0001151108
0.00011502817
0.00011495004
0.00011487563
0.0001148071
0.0001147437
0.00011468757
0.00011463786
0.0001145966
0.00011456284
0.00011453844
0.00011452227
0.00011451602
0.00011451836
0.00011453076
0.00011455167
0.00011458233
0.00011462094
0.00011466851
0.000114723
0.00011478516
0.00011484735
0.00011488958
0.00011492621
0.00011495979
0.00011500019
0.00011504839
0.00011510229
0.00011516224
0.0001152274
0.00011529569
0.00011536751
0.00011544025
0.00011551413
0.00011558639
0.00011565717
0.00011572364
0.00011577894
0.00011578345
0.00011575494
0.00011571174
0.00011565388
0.00011558149
0.00011549493
0.00011539487
0.00011528201
0.00011515738
0.00011502215
0.00011487769
0.0001147255
0.00011456732
0.00011440484
0.00011423996
0.00011407462
0.00011391081
0.0001137505
0.0001135958
0.00011344857
0.00011331076
0.00011318422
0.00011307069
0.00011297178
0.00011288897
0.00011282368
0.00011277698
0.00011274991
0.00011274328
0.00011275769
0.00011279354
0.00011285116
0.00011293046
0.00011296495
0.00011294257
0.00011294069
0.00011295986
0.00011300056
0.00011306283
0.00011314672
0.00011325199
0.0001133782
0.00011352475
0.00011369085
0.00011387557
0.0001140778
0.0001142963
0.00011452971
0.00011477652
0.00011503529
0.00011530428
0.00011558186
0.00011586635
0.00011615605
0.00011644926
0.00011674432
0.00011703972
0.00011733382
0.00011762522
0.00011791254
0.00011819453
0.00011846999
0.00011873797
0.00011899745
0.00011924764
0.00011948783
0.00011971743
0.00011993591
0.000120143
0.0001203383
0.00012052165
0.00012069293
0.00012085209
0.00012099911
0.0001211342
0.00012125735
0.00012136875
0.00012146846
0.00012155642
0.00012163274
0.00012169438
0.0001217375
0.00012174218
0.00011530677
0.00011519368
0.00011510415
0.0001150182
0.00011493518
0.00011485728
0.00011478378
0.00011471686
0.00011465579
0.00011460267
0.00011455668
0.0001145198
0.00011449105
0.00011447227
0.00011446228
0.00011446273
0.00011447222
0.00011449217
0.00011452095
0.00011455973
0.00011460663
0.00011466256
0.00011472538
0.00011478779
0.00011481773
0.00011482974
0.00011485004
0.00011487993
0.00011491769
0.00011496435
0.00011501791
0.00011507877
0.00011514614
0.00011521796
0.00011529464
0.00011537354
0.00011545487
0.00011553582
0.00011561643
0.00011569378
0.00011576787
0.00011581068
0.00011577237
0.00011571845
0.00011564904
0.00011556446
0.0001154652
0.00011535213
0.00011522611
0.00011508836
0.00011494025
0.00011478335
0.00011461932
0.00011445011
0.00011427757
0.00011410376
0.00011393077
0.00011376073
0.00011359572
0.00011343795
0.00011328937
0.00011315198
0.00011302767
0.0001129182
0.00011282519
0.00011275007
0.00011269424
0.0001126587
0.0001126444
0.00011265205
0.00011268215
0.00011273496
0.00011281064
0.00011290896
0.00011288477
0.00011284163
0.0001128194
0.00011281877
0.00011284041
0.00011288449
0.00011295122
0.00011304048
0.00011315194
0.00011328512
0.0001134393
0.0001136136
0.00011380697
0.0001140182
0.00011424591
0.00011448862
0.00011474484
0.0001150128
0.00011529083
0.00011557716
0.00011587003
0.00011616765
0.00011646827
0.00011677028
0.00011707195
0.00011737176
0.00011766824
0.00011796002
0.00011824582
0.0001185246
0.00011879522
0.00011905682
0.00011930861
0.00011954991
0.00011978014
0.00011999895
0.00012020587
0.0001204007
0.00012058326
0.00012075346
0.00012091123
0.00012105671
0.00012118986
0.00012131078
0.00012141947
0.00012151586
0.00012160003
0.00012166708
0.00012172595
0.00012174057
0.00011522704
0.00011511198
0.00011502073
0.00011493335
0.00011484931
0.00011477093
0.00011469753
0.00011463134
0.00011457165
0.00011452058
0.0001144773
0.0001144438
0.00011441908
0.00011440498
0.00011440028
0.00011440659
0.00011442248
0.00011444932
0.00011448542
0.00011453186
0.00011458671
0.00011465078
0.00011472184
0.00011474821
0.00011474394
0.00011475025
0.00011476576
0.00011479189
0.00011482699
0.00011487219
0.00011492555
0.00011498753
0.00011505737
0.00011513304
0.00011521494
0.00011530044
0.00011538969
0.00011547981
0.00011557077
0.00011565956
0.00011574604
0.00011582326
0.0001157907
0.00011572602
0.00011564498
0.00011554802
0.00011543579
0.00011530935
0.00011516974
0.00011501838
0.00011485683
0.00011468684
0.00011451028
0.00011432928
0.00011414588
0.0001139623
0.00011378081
0.00011360365
0.00011343305
0.00011327133
0.00011312051
0.00011298269
0.00011285979
0.00011275361
0.00011266577
0.00011259769
0.00011255074
0.00011252585
0.00011252392
0.00011254554
0.00011259111
0.00011266074
0.00011275446
0.00011286466
0.00011279033
0.00011272604
0.00011268314
0.00011266252
0.00011266501
0.00011269093
0.00011274063
0.0001128141
0.00011291114
0.00011303134
0.00011317406
0.00011333848
0.00011352357
0.00011372814
0.00011395082
0.00011419011
0.00011444447
0.00011471211
0.00011499127
0.00011528012
0.0001155768
0.00011587946
0.00011618621
0.00011649537
0.00011680509
0.00011711374
0.00011741975
0.00011772166
0.00011801808
0.00011830786
0.0001185898
0.00011886293
0.00011912639
0.00011937944
0.00011962141
0.0001198519
0.0001200704
0.00012027664
0.0001204704
0.00012065155
0.00012081999
0.00012097583
0.00012111897
0.00012124949
0.00012136736
0.00012147255
0.00012156506
0.00012163833
0.00012170406
0.00012172791
0.00011514474
0.00011502699
0.00011493339
0.00011484403
0.00011475847
0.00011467907
0.00011460525
0.00011453927
0.00011448044
0.0001144309
0.00011438985
0.00011435928
0.0001143382
0.0001143284
0.00011432868
0.0001143406
0.00011436272
0.00011439633
0.00011443971
0.00011449386
0.00011455678
0.00011462918
0.00011468554
0.00011467048
0.00011465953
0.00011466003
0.00011467072
0.00011469313
0.00011472569
0.00011476962
0.00011482304
0.00011488648
0.00011495919
0.00011503918
0.00011512685
0.00011521952
0.00011531731
0.00011541727
0.0001155193
0.00011562026
0.00011571987
0.00011581499
0.00011581042
0.000115735
0.00011564222
0.00011553268
0.0001154072
0.00011526699
0.0001151133
0.00011494774
0.00011477209
0.00011458828
0.0001143984
0.00011420477
0.00011400962
0.00011381536
0.00011362441
0.00011343919
0.00011326206
0.00011309544
0.00011294148
0.00011280235
0.00011268004
0.00011257637
0.000112493
0.00011243134
0.00011239273
0.00011237806
0.00011238813
0.00011242349
0.00011248439
0.00011257083
0.00011268268
0.00011278875
0.00011268221
0.00011259633
0.00011253245
0.00011249162
0.00011247485
0.00011248261
0.00011251537
0.00011257326
0.00011265617
0.00011276378
0.0001128955
0.00011305057
0.00011322798
0.00011342655
0.00011364491
0.0001138815
0.00011413477
0.00011440284
0.0001146839
0.00011497603
0.00011527728
0.00011558568
0.00011589925
0.00011621621
0.00011653458
0.00011685264
0.0001171687
0.00011748119
0.00011778863
0.00011808978
0.00011838334
0.00011866827
0.00011894362
0.00011920858
0.00011946242
0.00011970469
0.00011993482
0.00012015249
0.00012035744
0.00012054951
0.00012072856
0.00012089466
0.00012104771
0.00012118774
0.00012131473
0.0001214287
0.00012152959
0.00012160947
0.00012168308
0.00012171652
0.00011505725
0.00011493614
0.00011483966
0.00011474787
0.00011466037
0.00011457959
0.00011450499
0.00011443888
0.00011438059
0.00011433232
0.00011429325
0.00011426539
0.00011424777
0.00011424216
0.00011424736
0.0001142649
0.0001142933
0.00011433381
0.00011438465
0.00011444677
0.00011451808
0.0001145992
0.00011461211
0.00011458383
0.00011456603
0.00011456061
0.00011456644
0.00011458512
0.00011461521
0.000114658
0.00011471168
0.00011477683
0.00011485274
0.00011493744
0.00011503131
0.00011513167
0.00011523857
0.000115349
0.00011546275
0.00011557657
0.00011569003
0.00011579985
0.00011583298
0.00011574672
0.000115642
0.00011551957
0.00011538041
0.00011522594
0.00011505758
0.00011487714
0.00011468662
0.00011448818
0.0001142841
0.00011407693
0.00011386907
0.00011366314
0.00011346174
0.00011326746
0.00011308279
0.00011291032
0.00011275228
0.00011261095
0.00011248837
0.00011238645
0.00011230684
0.00011225097
0.00011222016
0.00011221526
0.00011223703
0.00011228589
0.00011236201
0.00011246527
0.00011259537
0.00011268999
0.00011256082
0.00011245282
0.00011236752
0.00011230619
0.00011226997
0.00011225949
0.00011227536
0.00011231782
0.00011238685
0.0001124822
0.00011260337
0.0001127496
0.00011291991
0.00011311313
0.00011332784
0.00011356246
0.00011381539
0.00011408466
0.00011436839
0.00011466455
0.0001149711
0.00011528596
0.00011560704
0.00011593243
0.00011626004
0.00011658804
0.00011691464
0.00011723815
0.00011755699
0.00011786984
0.00011817529
0.00011847223
0.00011875965
0.00011903667
0.00011930249
0.00011955661
0.00011979841
0.00012002755
0.00012024372
0.00012044672
0.0001206364
0.0001208128
0.00012097579
0.00012112541
0.00012126165
0.00012138453
0.00012149399
0.00012158089
0.00012166292
0.00012170594
0.00011496518
0.0001148402
0.00011474027
0.00011464553
0.0001145556
0.00011447296
0.00011439712
0.00011433043
0.00011427229
0.00011422488
0.00011418745
0.00011416202
0.0001141476
0.00011414599
0.00011415597
0.00011417905
0.00011421371
0.00011426119
0.00011431963
0.00011438993
0.00011446992
0.00011455576
0.00011452351
0.00011448728
0.0001144624
0.0001144509
0.00011445175
0.00011446669
0.00011449435
0.00011453611
0.00011459025
0.0001146574
0.00011473687
0.00011482672
0.00011492731
0.00011503594
0.0001151526
0.00011527421
0.00011540044
0.00011552792
0.00011565608
0.00011578145
0.00011585896
0.00011576174
0.00011564485
0.00011550918
0.00011535589
0.00011518657
0.00011500287
0.00011480681
0.00011460059
0.00011438662
0.00011416738
0.00011394564
0.00011372403
0.00011350538
0.00011329246
0.00011308805
0.00011289481
0.00011271545
0.00011255236
0.00011240789
0.00011228419
0.00011218322
0.00011210667
0.00011205599
0.00011203248
0.00011203696
0.00011207013
0.00011213234
0.00011222365
0.00011234381
0.00011249236
0.00011257894
0.00011242641
0.00011229569
0.00011218851
0.0001121063
0.00011205039
0.00011202156
0.00011202054
0.00011204768
0.00011210306
0.00011218651
0.00011229754
0.00011243545
0.00011259927
0.00011278779
0.00011299958
0.000113233
0.00011348638
0.00011375768
0.00011404491
0.00011434594
0.00011465861
0.00011498072
0.00011531007
0.0001156446
0.00011598214
0.00011632071
0.0001166584
0.00011699344
0.00011732413
0.00011764905
0.00011796673
0.00011827597
0.00011857567
0.00011886491
0.00011914283
0.00011940887
0.00011966239
0.000119903
0.00012013036
0.00012034425
0.00012054449
0.00012073113
0.00012090401
0.00012106319
0.00012120867
0.0001213405
0.00012145864
0.00012155279
0.00012164348
0.00012169593
0.00011486811
0.00011473871
0.00011463483
0.00011453663
0.0001144438
0.00011435885
0.00011428136
0.00011421371
0.00011415533
0.00011410847
0.00011407239
0.00011404913
0.00011403773
0.00011403999
0.00011405467
0.00011408328
0.00011412428
0.00011417885
0.00011424511
0.00011432389
0.00011441292
0.00011448334
0.00011442594
0.00011438142
0.00011434918
0.00011433137
0.0001143271
0.00011433819
0.00011436341
0.00011440422
0.00011445898
0.00011452834
0.0001146117
0.00011470709
0.00011481489
0.00011493236
0.00011505942
0.00011519292
0.00011533242
0.0001154744
0.00011561814
0.00011575997
0.00011588437
0.00011578108
0.0001156517
0.00011550235
0.00011533438
0.00011514956
0.00011494975
0.00011473721
0.00011451436
0.00011428384
0.00011404839
0.00011381099
0.00011357451
0.00011334198
0.0001131164
0.00011290072
0.00011269778
0.00011251046
0.00011234128
0.0001121927
0.00011206699
0.00011196615
0.00011189194
0.00011184582
0.0001118291
0.00011184258
0.00011188689
0.00011196231
0.0001120688
0.00011220598
0.00011237326
0.00011245564
0.00011227896
0.00011212483
0.00011199521
0.0001118917
0.00011181581
0.00011176845
0.0001117505
0.0001117624
0.00011180432
0.00011187616
0.00011197747
0.00011210757
0.00011226548
0.00011244997
0.00011265958
0.00011289258
0.00011314724
0.00011342141
0.00011371299
0.00011401974
0.00011433937
0.00011466955
0.00011500795
0.00011535238
0.00011570053
0.0001160503
0.00011639968
0.00011674677
0.00011708978
0.00011742719
0.00011775744
0.00011807925
0.00011839149
0.00011869313
0.0001189833
0.00011926138
0.00011952669
0.0001197788
0.00012001737
0.00012024216
0.00012045296
0.00012064981
0.00012083258
0.0001210013
0.00012115603
0.00012129684
0.00012142372
0.00012152525
0.00012162466
0.00012168635
0.00011476632
0.00011463199
0.00011452359
0.0001144214
0.00011432515
0.00011423739
0.00011415775
0.00011408868
0.00011402965
0.00011398295
0.00011394788
0.00011392651
0.00011391789
0.00011392383
0.0001139431
0.00011397721
0.00011402459
0.00011408639
0.00011416068
0.00011424822
0.00011434669
0.00011438583
0.00011431891
0.00011426571
0.00011422575
0.00011420136
0.00011419174
0.00011419887
0.00011422161
0.00011426151
0.00011431701
0.00011438883
0.00011447639
0.00011457776
0.00011469329
0.00011482019
0.00011495836
0.00011510453
0.00011525814
0.00011541554
0.00011557583
0.00011573515
0.00011589185
0.00011580544
0.00011566321
0.00011549969
0.00011531641
0.00011511535
0.00011489859
0.00011466861
0.00011442811
0.00011417995
0.00011392712
0.00011367287
0.0001134203
0.00011317266
0.00011293319
0.00011270503
0.00011249122
0.0001122948
0.00011211845
0.00011196477
0.00011183611
0.00011173457
0.00011166198
0.00011161981
0.0001116094
0.00011163151
0.00011168673
0.00011177528
0.00011189701
0.00011205142
0.00011223774
0.00011232031
0.00011211859
0.00011194029
0.00011178758
0.00011166228
0.00011156604
0.00011149993
0.00011146495
0.00011146166
0.0001114903
0.00011155082
0.00011164282
0.00011176562
0.00011191823
0.00011209939
0.00011230756
0.00011254098
0.00011279777
0.0001130757
0.00011337255
0.00011368594
0.00011401343
0.00011435257
0.00011470086
0.00011505599
0.0001154155
0.00011577718
0.00011613887
0.00011649858
0.0001168544
0.00011720473
0.00011754792
0.00011788262
0.00011820762
0.00011852187
0.00011882441
0.00011911462
0.00011939177
0.00011965542
0.00011990519
0.00012014083
0.00012036215
0.00012056917
0.00012076177
0.00012094
0.00012110395
0.00012125372
0.00012138937
0.0001214983
0.00012160638
0.00012167711
0.00011465968
0.00011451985
0.00011440639
0.00011429967
0.00011419946
0.00011410839
0.00011402613
0.00011395518
0.00011389509
0.00011384817
0.00011381378
0.000113794
0.00011378794
0.00011379742
0.00011382121
0.00011386081
0.00011391464
0.00011398383
0.00011406639
0.00011416303
0.00011427136
0.00011427952
0.00011420256
0.00011414021
0.00011409214
0.00011406081
0.00011404559
0.00011404857
0.00011406873
0.00011410772
0.00011416405
0.00011423853
0.00011433059
0.00011443833
0.0001145621
0.00011469907
0.00011484905
0.00011500869
0.00011517732
0.00011535112
0.000115529
0.00011570691
0.00011588294
0.00011583576
0.00011568025
0.00011550198
0.00011530267
0.00011508452
0.00011484986
0.00011460141
0.00011434211
0.00011407511
0.00011380365
0.00011353125
0.00011326127
0.0001129972
0.00011274251
0.00011250058
0.00011227464
0.00011206792
0.00011188326
0.00011172341
0.00011159084
0.00011148774
0.00011141601
0.00011137718
0.00011137258
0.00011140297
0.0001114689
0.00011157051
0.00011170758
0.00011187946
0.00011208523
0.00011217287
0.00011194511
0.0001117418
0.0001115653
0.00011141763
0.00011130062
0.00011121549
0.00011116336
0.00011114489
0.00011116039
0.00011120987
0.00011129296
0.00011140897
0.0001115569
0.00011173543
0.00011194297
0.00011217764
0.00011243747
0.00011272011
0.00011302318
0.00011334416
0.00011368047
0.00011402949
0.00011438857
0.00011475524
0.00011512692
0.00011550123
0.00011587591
0.00011624883
0.000116618
0.00011698171
0.00011733823
0.00011768615
0.00011802419
0.00011835125
0.00011866633
0.00011896878
0.00011925784
0.00011953304
0.00011979402
0.0001200405
0.00012027229
0.00012048943
0.00012069179
0.00012087948
0.00012105259
0.00012121128
0.00012135566
0.00012147196
0.00012158861
0.00012166817
0.00011454827
0.00011440238
0.00011428328
0.00011417145
0.00011406672
0.00011397178
0.00011388637
0.00011381306
0.00011375144
0.00011370389
0.0001136698
0.00011365132
0.00011364758
0.00011366041
0.00011368862
0.0001137337
0.00011379406
0.00011387079
0.00011396189
0.000114068
0.00011418665
0.00011416418
0.00011407659
0.00011400455
0.00011394789
0.00011390923
0.00011388809
0.00011388669
0.00011390413
0.00011394216
0.00011399941
0.00011407672
0.00011417359
0.00011428812
0.00011442065
0.00011456832
0.00011473088
0.00011490487
0.00011508948
0.00011528073
0.00011547734
0.00011567504
0.00011587166
0.00011587292
0.00011570364
0.00011550997
0.00011529385
0.00011505769
0.00011480407
0.00011453598
0.00011425665
0.00011396949
0.00011367804
0.00011338609
0.00011309726
0.00011281534
0.00011254402
0.00011228693
0.00011204753
0.00011182924
0.00011163507
0.00011146794
0.00011133046
0.00011122491
0.00011115329
0.00011111716
0.00011111789
0.00011115623
0.0001112327
0.00011134738
0.00011149993
0.0001116896
0.00011191528
0.00011201338
0.00011175851
0.00011152923
0.00011132815
0.00011115748
0.00011101922
0.00011091475
0.00011084529
0.00011081161
0.0001108141
0.00011085281
0.00011092738
0.00011103713
0.00011118101
0.00011135765
0.00011156537
0.0001118022
0.00011206602
0.00011235436
0.00011266466
0.00011299427
0.0001133404
0.00011370029
0.00011407111
0.00011445023
0.00011483491
0.00011522263
0.00011561101
0.00011599778
0.00011638085
0.00011675842
0.00011712869
0.00011749016
0.00011784151
0.00011818158
0.00011850936
0.00011882414
0.00011912517
0.00011941195
0.00011968411
0.00011994139
0.0001201836
0.00012041078
0.00012062284
0.0001208199
0.0001210021
0.00012116962
0.00012132265
0.00012144624
0.00012157132
0.00012165949
0.00011443207
0.00011427953
0.00011415418
0.00011403664
0.00011392681
0.00011382743
0.00011373833
0.00011366214
0.00011359852
0.0001135499
0.00011351576
0.00011349826
0.00011349658
0.0001135126
0.00011354513
0.00011359568
0.00011366265
0.00011374712
0.00011384704
0.00011396301
0.00011409249
0.00011403981
0.00011394093
0.0001138586
0.00011379281
0.00011374635
0.0001137189
0.00011371282
0.00011372734
0.00011376434
0.00011382253
0.00011390283
0.00011400478
0.00011412651
0.00011426834
0.00011442738
0.0001146033
0.00011479255
0.00011499416
0.000115204
0.00011542057
0.00011563935
0.00011585792
0.00011591795
0.00011573433
0.00011552453
0.00011529069
0.00011503548
0.00011476175
0.00011447276
0.00011417203
0.00011386328
0.00011355035
0.00011323732
0.00011292813
0.00011262681
0.00011233736
0.00011206365
0.00011180936
0.00011157814
0.0001113732
0.00011119762
0.00011105417
0.00011094525
0.00011087293
0.00011083886
0.00011084443
0.00011089041
0.00011097727
0.00011110503
0.00011127327
0.00011148109
0.00011172722
0.00011184172
0.00011155855
0.00011130228
0.00011107575
0.00011088137
0.00011072131
0.00011059712
0.00011051013
0.00011046119
0.00011045078
0.00011047897
0.00011054542
0.00011064944
0.00011078993
0.00011096544
0.00011117422
0.00011141414
0.00011168297
0.00011197804
0.00011229667
0.00011263597
0.00011299301
0.00011336482
0.00011374838
0.00011414091
0.00011453949
0.00011494145
0.00011534426
0.00011574556
0.00011614312
0.00011653506
0.0001169195
0.00011729488
0.00011765982
0.00011801313
0.00011835376
0.00011868098
0.00011899402
0.00011929239
0.00011957572
0.00011984375
0.0001200963
0.00012033344
0.00012055509
0.00012076142
0.00012095259
0.00012112884
0.00012129042
0.00012142115
0.00012155449
0.00012165106
0.00011431113
0.00011415131
0.00011401909
0.0001138952
0.00011377964
0.00011367522
0.00011358185
0.00011350223
0.0001134361
0.00011338596
0.00011335135
0.00011333449
0.00011333461
0.00011335362
0.00011339038
0.00011344638
0.00011352006
0.00011361245
0.0001137215
0.00011384775
0.00011398859
0.00011390626
0.00011379536
0.00011370205
0.00011362652
0.00011357173
0.00011353752
0.0001135264
0.00011353778
0.00011357362
0.00011363275
0.00011371617
0.00011382346
0.0001139528
0.00011410448
0.00011427559
0.0001144657
0.00011467117
0.00011489089
0.00011512052
0.00011535836
0.00011559964
0.00011584166
0.00011597193
0.00011577334
0.00011554658
0.00011529405
0.00011501866
0.00011472353
0.00011441225
0.00011408864
0.00011375674
0.00011342071
0.00011308497
0.00011275375
0.0001124314
0.0001121222
0.00011183028
0.00011155959
0.00011131401
0.00011109696
0.00011091171
0.00011076117
0.00011064791
0.00011057409
0.00011054143
0.00011055136
0.00011060466
0.00011070179
0.00011084269
0.00011102687
0.00011125329
0.00011152048
0.00011165783
0.00011134508
0.00011106069
0.00011080774
0.00011058887
0.00011040643
0.00011026208
0.0001101573
0.00011009303
0.0001100698
0.00011008772
0.00011014645
0.00011024529
0.00011038307
0.00011055827
0.000110769
0.00011101301
0.00011128791
0.00011159085
0.00011191893
0.00011226909
0.00011263818
0.00011302302
0.00011342041
0.00011382736
0.00011424077
0.00011465784
0.00011507589
0.0001154924
0.00011590507
0.00011631191
0.00011671097
0.00011710062
0.00011747944
0.00011784619
0.00011819982
0.00011853957
0.00011886467
0.00011917464
0.0001194691
0.00011974781
0.00012001061
0.00012025759
0.00012048872
0.00012070418
0.00012090419
0.00012108904
0.000121259
0.00012139672
0.00012153812
0.00012164287
0.0001141855
0.00011401774
0.00011387798
0.00011374708
0.00011362513
0.00011351503
0.00011341678
0.00011333315
0.00011326397
0.00011321183
0.00011317632
0.00011315974
0.00011316138
0.00011318318
0.00011322405
0.0001132855
0.00011336598
0.00011346651
0.00011358502
0.00011372198
0.00011387475
0.00011376349
0.00011363974
0.00011353469
0.00011344873
0.00011338498
0.00011334349
0.00011332694
0.00011333486
0.00011336937
0.0001134294
0.00011351603
0.00011362892
0.00011376626
0.00011392835
0.00011411224
0.00011431742
0.00011454013
0.00011477911
0.00011502985
0.00011529039
0.0001155557
0.00011582277
0.00011603603
0.00011582176
0.00011557714
0.00011530482
0.00011500798
0.00011469007
0.00011435497
0.00011400686
0.00011365012
0.00011328926
0.00011292903
0.000112574
0.00011222886
0.00011189816
0.00011158635
0.00011129765
0.00011103619
0.0001108056
0.00011060938
0.00011045061
0.00011033199
0.00011025581
0.00011022388
0.00011023768
0.00011029801
0.0001104053
0.00011055945
0.00011075986
0.00011100538
0.00011129433
0.00011146154
0.0001111178
0.00011080407
0.00011052367
0.00011027946
0.00011007395
0.00010990898
0.00010978613
0.00010970642
0.00010967044
0.00010967833
0.00010972976
0.00010982398
0.00010995976
0.00011013549
0.00011034914
0.0001105983
0.00011088041
0.0001111924
0.00011153116
0.00011189341
0.00011227577
0.00011267483
0.00011308718
0.00011350963
0.00011393889
0.00011437199
0.00011480609
0.00011523857
0.00011566698
0.00011608927
0.00011650339
0.00011690768
0.00011730067
0.00011768109
0.00011804785
0.00011840023
0.00011873742
0.00011905896
0.0001193645
0.0001196538
0.00011992674
0.00012018344
0.0001204239
0.00012064834
0.00012085702
0.00012105029
0.00012122847
0.00012137298
0.00012152224
0.00012163492
0.00011405525
0.00011387886
0.00011373084
0.00011359223
0.0001134632
0.00011334675
0.00011324296
0.0001131547
0.00011308191
0.00011302724
0.00011299037
0.00011297369
0.00011297653
0.00011300091
0.00011304576
0.00011311265
0.00011320002
0.00011330892
0.00011343722
0.00011358538
0.00011375068
0.00011361139
0.0001134739
0.00011335626
0.00011325908
0.0001131857
0.00011313634
0.00011311386
0.00011311796
0.00011315091
0.00011321176
0.00011330168
0.0001134204
0.00011356614
0.00011373921
0.00011393662
0.00011415778
0.00011439882
0.00011465831
0.00011493155
0.00011521631
0.0001155073
0.00011580119
0.0001160833
0.00011588085
0.00011561736
0.00011532404
0.00011500438
0.00011466214
0.00011430157
0.0001139272
0.00011354378
0.0001131562
0.00011276957
0.00011238881
0.00011201896
0.00011166492
0.00011133143
0.00011102299
0.00011074402
0.00011049841
0.00011028984
0.0001101216
0.00010999656
0.00010991713
0.00010988524
0.00010990241
0.00010996948
0.00011008685
0.00011025439
0.00011047139
0.00011073658
0.00011104806
0.00011125271
0.00011087647
0.00011053206
0.00011022308
0.00010995259
0.0001097233
0.00010953718
0.00010939592
0.00010930063
0.00010925196
0.00010925007
0.00010929462
0.00010938481
0.00010951935
0.00010969649
0.00010991408
0.00011016953
0.00011046004
0.00011078235
0.00011113311
0.00011150876
0.00011190569
0.00011232024
0.00011274877
0.00011318786
0.00011363403
0.00011408413
0.00011453515
0.00011498435
0.00011542918
0.00011586748
0.00011629713
0.00011671644
0.00011712387
0.00011751816
0.00011789821
0.00011826327
0.00011861257
0.00011894566
0.00011926219
0.00011956198