/*--------------------------------*- C++ -*----------------------------------*\
| =========                 |                                                 |
| \\      /  F ield         | foam-extend: Open Source CFD                    |
|  \\    /   O peration     | Version:     4.1                                |
|   \\  /    A nd           | Web:         http://www.foam-extend.org         |
|    \\/     M anipulation  |                                                 |
\*---------------------------------------------------------------------------*/
FoamFile
{
    version     2.0;
    format      ascii;
    class       volVectorField;
    location    "0.85";
    object      U;
}
// * * * * * * * * * * * * * * * * * * * * * * * * * * * * * * * * * * * * * //

dimensions      [0 1 -1 0 0 0 0];

internalField   nonuniform List<vector> 
16796
(
(138.22574 -0.14192818 0)
(138.62714 -0.15412129 0)
(138.95872 -0.15751993 0)
(139.30233 -0.15904096 0)
(139.64958 -0.15947788 0)
(139.99816 -0.15910579 0)
(140.34593 -0.15801128 0)
(140.69086 -0.1562326 0)
(141.03099 -0.15379663 0)
(141.3644 -0.15073121 0)
(141.68926 -0.14706957 0)
(142.0038 -0.1428521 0)
(142.3064 -0.13812677 0)
(142.59553 -0.13294921 0)
(142.86985 -0.12738213 0)
(143.12818 -0.12149497 0)
(143.36957 -0.11536285 0)
(143.59326 -0.10906602 0)
(143.79873 -0.10268853 0)
(143.98573 -0.096317526 0)
(144.15426 -0.090041767 0)
(144.30458 -0.083950837 0)
(144.43721 -0.078133713 0)
(144.55296 -0.072677707 0)
(144.6529 -0.067667178 0)
(144.73834 -0.063182956 0)
(144.81085 -0.059301532 0)
(144.87221 -0.05609382 0)
(144.92443 -0.053623045 0)
(144.96967 -0.051942895 0)
(145.01029 -0.051095133 0)
(145.04875 -0.051108223 0)
(145.0876 -0.052000775 0)
(145.12948 -0.053780723 0)
(145.17702 -0.056444072 0)
(145.23286 -0.059976085 0)
(145.29958 -0.064351801 0)
(145.37966 -0.069535724 0)
(145.47547 -0.075480847 0)
(145.5892 -0.082128446 0)
(145.72285 -0.089405259 0)
(145.87819 -0.097226737 0)
(146.05672 -0.10549923 0)
(146.25965 -0.11412038 0)
(146.48786 -0.1229807 0)
(146.74191 -0.1319648 0)
(147.02199 -0.14095289 0)
(147.32795 -0.14982221 0)
(147.65925 -0.15844876 0)
(148.01497 -0.16670884 0)
(148.39385 -0.17448091 0)
(148.79425 -0.18164733 0)
(149.21419 -0.18809613 0)
(149.65136 -0.19372276 0)
(150.10316 -0.19843174 0)
(150.56671 -0.20213819 0)
(151.03891 -0.20476931 0)
(151.51643 -0.20626554 0)
(151.9958 -0.20658169 0)
(152.47344 -0.20568772 0)
(152.9457 -0.20356931 0)
(153.40888 -0.20022815 0)
(153.85936 -0.195682 0)
(154.29354 -0.18996435 0)
(154.70798 -0.18312392 0)
(155.09939 -0.1752238 0)
(155.46469 -0.16634033 0)
(155.80106 -0.15656178 0)
(156.10596 -0.14598682 0)
(156.37717 -0.13472259 0)
(156.6128 -0.12288333 0)
(156.81134 -0.1105867 0)
(156.97165 -0.097950129 0)
(157.09297 -0.085089415 0)
(157.17493 -0.072117975 0)
(157.21754 -0.059117957 0)
(157.2212 -0.046130198 0)
(157.18666 -0.033126926 0)
(157.11489 -0.020047371 0)
(157.00596 -0.0070931827 0)
(156.86128 0.0053728506 0)
(156.68282 0.017095971 0)
(156.47298 0.027922494 0)
(156.23442 0.037751845 0)
(155.97003 0.04651275 0)
(155.68286 0.054154143 0)
(155.3761 0.060642032 0)
(155.05298 0.065958306 0)
(154.71679 0.070099985 0)
(154.37082 0.073078472 0)
(154.01828 0.074918626 0)
(153.66234 0.075657701 0)
(153.30603 0.075344073 0)
(152.95226 0.074035834 0)
(152.60375 0.071799286 0)
(152.26306 0.068707376 0)
(151.93253 0.064838117 0)
(151.61429 0.060273022 0)
(151.31025 0.055095627 0)
(151.02207 0.049390126 0)
(150.75123 0.043240101 0)
(150.49893 0.036727436 0)
(150.26618 0.029931394 0)
(150.05379 0.022927851 0)
(149.86234 0.015788733 0)
(149.69224 0.0085816434 0)
(149.54372 0.0013696388 0)
(149.41685 -0.0057887668 0)
(149.31156 -0.012839419 0)
(149.22763 -0.019731835 0)
(149.16473 -0.026419044 0)
(149.12242 -0.032854729 0)
(149.10017 -0.038992604 0)
(149.09735 -0.044782168 0)
(149.1133 -0.050162158 0)
(149.1471 -0.055091625 0)
(149.19785 -0.059544671 0)
(149.26452 -0.063454647 0)
(149.346 -0.066651573 0)
(149.44151 -0.068794745 0)
(149.55166 -0.069532425 0)
(149.67182 -0.068619864 0)
(149.78508 -0.066549548 0)
(149.87214 -0.052825256 0)
(157.87447 -0.26573398 0)
(158.09106 -0.28634323 0)
(158.26224 -0.29585917 0)
(158.44065 -0.30154744 0)
(158.62246 -0.30460442 0)
(158.80599 -0.30548034 0)
(158.98945 -0.30432654 0)
(159.17108 -0.30120461 0)
(159.34912 -0.29615622 0)
(159.52184 -0.28923002 0)
(159.68754 -0.28049241 0)
(159.84461 -0.27003245 0)
(159.99148 -0.25796328 0)
(160.12672 -0.24442279 0)
(160.249 -0.22957246 0)
(160.35718 -0.21359658 0)
(160.45027 -0.19669984 0)
(160.52748 -0.17910564 0)
(160.58822 -0.1610528 0)
(160.63216 -0.14279326 0)
(160.65917 -0.12458798 0)
(160.6694 -0.10670432 0)
(160.66324 -0.089411867 0)
(160.64133 -0.072979147 0)
(160.60458 -0.057669578 0)
(160.55414 -0.04373807 0)
(160.49139 -0.031424795 0)
(160.41795 -0.020949293 0)
(160.33564 -0.012507926 0)
(160.24647 -0.0062711117 0)
(160.15259 -0.0023847253 0)
(160.05624 -0.00097565556 0)
(159.95983 -0.0021349783 0)
(159.86583 -0.0059164497 0)
(159.77677 -0.01233703 0)
(159.69516 -0.021373723 0)
(159.6235 -0.032962737 0)
(159.56422 -0.046999717 0)
(159.51962 -0.063337876 0)
(159.4919 -0.081788663 0)
(159.48294 -0.10213725 0)
(159.49448 -0.12413812 0)
(159.52799 -0.14751577 0)
(159.58468 -0.17196834 0)
(159.66543 -0.19717052 0)
(159.77083 -0.22277808 0)
(159.9011 -0.24843228 0)
(160.05611 -0.27376487 0)
(160.23539 -0.29840318 0)
(160.43806 -0.32197533 0)
(160.66292 -0.34411562 0)
(160.90839 -0.36446979 0)
(161.17254 -0.38270029 0)
(161.45314 -0.39849142 0)
(161.74762 -0.41155415 0)
(162.05316 -0.42163074 0)
(162.36669 -0.42849894 0)
(162.68493 -0.43197568 0)
(163.00445 -0.43192033 0)
(163.32166 -0.42823725 0)
(163.63293 -0.42087769 0)
(163.93458 -0.40984098 0)
(164.22294 -0.3951749 0)
(164.49442 -0.37697529 0)
(164.74554 -0.3553848 0)
(164.97298 -0.33059089 0)
(165.17361 -0.30282307 0)
(165.34456 -0.2723493 0)
(165.48323 -0.23947207 0)
(165.58735 -0.20452311 0)
(165.65496 -0.16786042 0)
(165.68449 -0.12985715 0)
(165.67475 -0.090891844 0)
(165.6249 -0.051358293 0)
(165.53456 -0.011658961 0)
(165.40372 0.027824089 0)
(165.23276 0.066746415 0)
(165.0224 0.10481814 0)
(164.77399 0.14183294 0)
(164.49047 0.17747414 0)
(164.17401 0.21129241 0)
(163.82677 0.2429134 0)
(163.45104 0.27204837 0)
(163.04927 0.29846929 0)
(162.62407 0.32199667 0)
(162.1782 0.34249464 0)
(161.71453 0.35986885 0)
(161.236 0.37406534 0)
(160.74556 0.38506931 0)
(160.24619 0.39290357 0)
(159.74083 0.39762639 0)
(159.23232 0.39932894 0)
(158.72344 0.3981321 0)
(158.21682 0.39418292 0)
(157.71496 0.38765076 0)
(157.22019 0.37872322 0)
(156.73466 0.367602 0)
(156.26031 0.35449876 0)
(155.7989 0.33963121 0)
(155.35197 0.32321934 0)
(154.92089 0.30548203 0)
(154.50679 0.28663396 0)
(154.11061 0.26688302 0)
(153.73312 0.24642803 0)
(153.37491 0.22545698 0)
(153.03637 0.20414569 0)
(152.71776 0.18265682 0)
(152.41919 0.16113935 0)
(152.14064 0.13972834 0)
(151.88196 0.11854544 0)
(151.64291 0.097698806 0)
(151.42313 0.077285268 0)
(151.22219 0.057392918 0)
(151.03958 0.038107636 0)
(150.87473 0.019520207 0)
(150.72711 0.0017122758 0)
(150.59609 -0.015261588 0)
(150.48074 -0.0313202 0)
(150.38012 -0.04622202 0)
(150.29358 -0.059435939 0)
(150.22133 -0.070569395 0)
(150.15877 -0.079094967 0)
(150.09594 -0.086868107 0)
(150.03158 -0.074239784 0)
(160.42828 -0.36528935 0)
(160.60796 -0.38130375 0)
(160.74257 -0.39224 0)
(160.87719 -0.39911412 0)
(161.00922 -0.40250497 0)
(161.13767 -0.4026994 0)
(161.26128 -0.39982026 0)
(161.37874 -0.39392946 0)
(161.48878 -0.3850814 0)
(161.59015 -0.37334904 0)
(161.68169 -0.35883578 0)
(161.76229 -0.34168169 0)
(161.83098 -0.32206521 0)
(161.88687 -0.30020411 0)
(161.92924 -0.27635363 0)
(161.95751 -0.25080529 0)
(161.97125 -0.22388307 0)
(161.97024 -0.19594077 0)
(161.95443 -0.16735681 0)
(161.92398 -0.13853046 0)
(161.87927 -0.10987531 0)
(161.82086 -0.081815163 0)
(161.74954 -0.054777109 0)
(161.66631 -0.029187447 0)
(161.57236 -0.0054635053 0)
(161.46909 0.015995491 0)
(161.35806 0.03481716 0)
(161.24101 0.05064674 0)
(161.11981 0.063161828 0)
(160.99646 0.072087825 0)
(160.87309 0.077194334 0)
(160.75194 0.078299141 0)
(160.63522 0.075267498 0)
(160.52517 0.06802378 0)
(160.42403 0.056551278 0)
(160.33396 0.040893956 0)
(160.25703 0.021159081 0)
(160.19522 -0.0024833926 0)
(160.15035 -0.029798705 0)
(160.12408 -0.060487561 0)
(160.11796 -0.094195635 0)
(160.13326 -0.13052648 0)
(160.17102 -0.1690296 0)
(160.23201 -0.20921342 0)
(160.31672 -0.25054844 0)
(160.42533 -0.29247438 0)
(160.55772 -0.33440753 0)
(160.71345 -0.37574847 0)
(160.89176 -0.41589037 0)
(161.09158 -0.45422735 0)
(161.3115 -0.49016318 0)
(161.54982 -0.52311988 0)
(161.80455 -0.55254634 0)
(162.07341 -0.57792668 0)
(162.35389 -0.59878827 0)
(162.64322 -0.61470928 0)
(162.93844 -0.62532568 0)
(163.23644 -0.63033738 0)
(163.53395 -0.62951362 0)
(163.82763 -0.62269729 0)
(164.11408 -0.60980812 0)
(164.38987 -0.59084472 0)
(164.65163 -0.56588522 0)
(164.89605 -0.53508675 0)
(165.11994 -0.49868336 0)
(165.32027 -0.4569828 0)
(165.4942 -0.41036188 0)
(165.63913 -0.35926074 0)
(165.75272 -0.30417628 0)
(165.83294 -0.2456534 0)
(165.87807 -0.18428208 0)
(165.88673 -0.12067258 0)
(165.85788 -0.055448816 0)
(165.79085 0.010726833 0)
(165.68534 0.077184188 0)
(165.54143 0.14325518 0)
(165.3596 0.20825971 0)
(165.14069 0.27157689 0)
(164.88582 0.33259922 0)
(164.59639 0.39082329 0)
(164.27414 0.4458279 0)
(163.92108 0.49719487 0)
(163.53946 0.54453132 0)
(163.13175 0.58749419 0)
(162.70059 0.62580086 0)
(162.24875 0.65923281 0)
(161.77913 0.68763655 0)
(161.29469 0.71092327 0)
(160.79843 0.72906751 0)
(160.29333 0.74210485 0)
(159.78235 0.75012854 0)
(159.26838 0.7532853 0)
(158.75421 0.75177015 0)
(158.24248 0.74582063 0)
(157.73571 0.73571043 0)
(157.23623 0.72174278 0)
(156.74621 0.70424362 0)
(156.26761 0.68355492 0)
(155.80217 0.66002819 0)
(155.35146 0.63401849 0)
(154.91682 0.60587882 0)
(154.49939 0.57595526 0)
(154.10011 0.5445827 0)
(153.71974 0.51208129 0)
(153.35885 0.4787536 0)
(153.01784 0.44488252 0)
(152.69696 0.41072969 0)
(152.39631 0.37653459 0)
(152.11585 0.34251424 0)
(151.85543 0.30886331 0)
(151.61479 0.27575459 0)
(151.39358 0.24333972 0)
(151.19135 0.21175165 0)
(151.00759 0.18110776 0)
(150.84173 0.15151318 0)
(150.6931 0.1230705 0)
(150.56099 0.095880192 0)
(150.44455 0.070057063 0)
(150.34304 0.04583927 0)
(150.25582 0.023649656 0)
(150.18258 0.0035976164 0)
(150.11902 -0.012860882 0)
(150.0613 -0.028820671 0)
(150.01702 -0.029863778 0)
(160.72774 -0.4580327 0)
(160.90132 -0.46869285 0)
(161.03165 -0.47613336 0)
(161.16065 -0.4796758 0)
(161.28568 -0.4792974 0)
(161.40589 -0.47507106 0)
(161.52018 -0.4670635 0)
(161.6274 -0.45534081 0)
(161.72642 -0.43998769 0)
(161.81614 -0.42112245 0)
(161.89554 -0.39890526 0)
(161.96367 -0.37354342 0)
(162.01968 -0.34529235 0)
(162.06283 -0.31445629 0)
(162.09251 -0.28138567 0)
(162.10826 -0.24647536 0)
(162.10975 -0.21015961 0)
(162.09686 -0.17290857 0)
(162.0696 -0.1352214 0)
(162.02819 -0.097621337 0)
(161.97305 -0.060646798 0)
(161.90478 -0.024845816 0)
(161.82417 0.0092311686 0)
(161.73224 0.041039238 0)
(161.63017 0.070051451 0)
(161.51935 0.095767281 0)
(161.40132 0.11769723 0)
(161.27781 0.13541 0)
(161.15067 0.14852241 0)
(161.02189 0.15669649 0)
(160.89355 0.15965908 0)
(160.76781 0.15720525 0)
(160.64688 0.14920166 0)
(160.53299 0.13558955 0)
(160.42836 0.11638914 0)
(160.33516 0.091700509 0)
(160.2555 0.061703884 0)
(160.19136 0.026658552 0)
(160.1446 -0.013098316 0)
(160.11692 -0.057154979 0)
(160.1098 -0.10502324 0)
(160.1245 -0.15614737 0)
(160.16204 -0.2099164 0)
(160.22317 -0.26566239 0)
(160.30835 -0.3226717 0)
(160.41775 -0.38019332 0)
(160.55123 -0.4374482 0)
(160.7083 -0.4936394 0)
(160.88819 -0.54796242 0)
(161.08979 -0.59961595 0)
(161.31166 -0.64781298 0)
(161.5521 -0.69179188 0)
(161.80907 -0.7308275 0)
(162.08028 -0.76424201 0)
(162.36318 -0.79141534 0)
(162.65502 -0.81179507 0)
(162.9528 -0.82490555 0)
(163.2534 -0.83035618 0)
(163.55355 -0.82784848 0)
(163.84988 -0.817182 0)
(164.13897 -0.79825862 0)
(164.41741 -0.77108545 0)
(164.68177 -0.73577589 0)
(164.92874 -0.69254893 0)
(165.15511 -0.64172666 0)
(165.3578 -0.58372998 0)
(165.53396 -0.51907247 0)
(165.68095 -0.44835275 0)
(165.79641 -0.37224553 0)
(165.87826 -0.29148968 0)
(165.92475 -0.20688576 0)
(165.93448 -0.11925508 0)
(165.90637 -0.029443854 0)
(165.83975 0.0616511 0)
(165.73432 0.15314661 0)
(165.59011 0.24415446 0)
(165.40757 0.33382722 0)
(165.18746 0.42131914 0)
(164.93093 0.50580432 0)
(164.63942 0.58652177 0)
(164.31469 0.66278782 0)
(163.9588 0.73397677 0)
(163.57404 0.79953156 0)
(163.16293 0.85897531 0)
(162.72815 0.91191682 0)
(162.27254 0.95805337 0)
(161.79903 0.99717199 0)
(161.31064 1.0291494 0)
(160.81041 1.0539504 0)
(160.30137 1.0716247 0)
(159.78653 1.0823029 0)
(159.26882 1.0861898 0)
(158.75104 1.083558 0)
(158.2359 1.0747396 0)
(157.72593 1.060117 0)
(157.22348 1.040114 0)
(156.73073 1.0151864 0)
(156.24965 0.98581208 0)
(155.782 0.95248253 0)
(155.32934 0.9156941 0)
(154.893 0.87594043 0)
(154.47413 0.83370556 0)
(154.07365 0.78945812 0)
(153.69231 0.74364645 0)
(153.33066 0.69669472 0)
(152.9891 0.64900018 0)
(152.66784 0.60093116 0)
(152.36699 0.55282614 0)
(152.08647 0.50499361 0)
(151.82613 0.45771282 0)
(151.5857 0.41123524 0)
(151.36479 0.36578757 0)
(151.16297 0.32157459 0)
(150.9797 0.27878266 0)
(150.81441 0.23758529 0)
(150.66644 0.19815212 0)
(150.53508 0.16066101 0)
(150.41955 0.12533698 0)
(150.31919 0.092536578 0)
(150.23329 0.062722766 0)
(150.16124 0.036111144 0)
(150.09927 0.016030406 0)
(150.04661 -0.0013421582 0)
(150.01165 -0.0071741782 0)
(160.76157 -0.55017257 0)
(160.9355 -0.55956759 0)
(161.06739 -0.56565375 0)
(161.19819 -0.56750575 0)
(161.32493 -0.56484875 0)
(161.44673 -0.5576105 0)
(161.56247 -0.54579628 0)
(161.67102 -0.52945801 0)
(161.77124 -0.5086927 0)
(161.86204 -0.48364821 0)
(161.94238 -0.45452741 0)
(162.01131 -0.42159208 0)
(162.06796 -0.38516296 0)
(162.11158 -0.34562045 0)
(162.14155 -0.3034013 0)
(162.15738 -0.25899678 0)
(162.15873 -0.21294671 0)
(162.14544 -0.16583564 0)
(162.11752 -0.11828465 0)
(162.07516 -0.070945838 0)
(162.01877 -0.02448986 0)
(161.94893 0.020397884 0)
(161.86643 0.063026792 0)
(161.77227 0.10271424 0)
(161.66764 0.1387984 0)
(161.55393 0.17062462 0)
(161.4327 0.19760704 0)
(161.30569 0.21919352 0)
(161.17479 0.23489161 0)
(161.042 0.24427904 0)
(160.90945 0.24700831 0)
(160.77936 0.2428186 0)
(160.65398 0.2315409 0)
(160.5356 0.2131019 0)
(160.4265 0.18752936 0)
(160.32892 0.15495404 0)
(160.24502 0.11561173 0)
(160.17686 0.069841822 0)
(160.12637 0.018084458 0)
(160.09528 -0.039123764 0)
(160.08515 -0.10115284 0)
(160.0973 -0.16728866 0)
(160.13277 -0.23674078 0)
(160.19236 -0.308645 0)
(160.27657 -0.38208085 0)
(160.38559 -0.45608188 0)
(160.51928 -0.52964694 0)
(160.67719 -0.60175392 0)
(160.85853 -0.67137277 0)
(161.06218 -0.73747926 0)
(161.28671 -0.79906898 0)
(161.53037 -0.85517132 0)
(161.7911 -0.90486334 0)
(162.06658 -0.94728325 0)
(162.35422 -0.98164354 0)
(162.65119 -1.0072432 0)
(162.95445 -1.0234792 0)
(163.26082 -1.0298568 0)
(163.56695 -1.0259988 0)
(163.8694 -1.0116524 0)
(164.16469 -0.98669553 0)
(164.44931 -0.95114021 0)
(164.71976 -0.90513427 0)
(164.97266 -0.84896077 0)
(165.20469 -0.78303508 0)
(165.41274 -0.7078997 0)
(165.59386 -0.62421676 0)
(165.74535 -0.53275853 0)
(165.8648 -0.43439602 0)
(165.95008 -0.33008486 0)
(165.9994 -0.220859 0)
(166.0113 -0.10778763 0)
(165.98474 0.0080267337 0)
(165.919 0.12542092 0)
(165.81379 0.24324821 0)
(165.66916 0.36035983 0)
(165.48555 0.4756544 0)
(165.26378 0.58806326 0)
(165.005 0.69656427 0)
(164.71071 0.80020531 0)
(164.38272 0.89811346 0)
(164.02311 0.98949438 0)
(163.63424 1.0736414 0)
(163.21866 1.149947 0)
(162.77915 1.2179111 0)
(162.31858 1.2771461 0)
(161.83996 1.3273788 0)
(161.34638 1.3684514 0)
(160.84093 1.4003191 0)
(160.32672 1.4230467 0)
(159.80681 1.4368025 0)
(159.28417 1.4418512 0)
(158.76166 1.4385438 0)
(158.24203 1.4273081 0)
(157.72783 1.4086364 0)
(157.22146 1.3830735 0)
(156.7251 1.3512049 0)
(156.24075 1.3136438 0)
(155.77016 1.2710202 0)
(155.31489 1.2239693 0)
(154.87628 1.1731219 0)
(154.45546 1.1190955 0)
(154.05333 1.0624868 0)
(153.67064 1.0038652 0)
(153.3079 0.9437683 0)
(152.96549 0.88269764 0)
(152.64362 0.82111659 0)
(152.34234 0.75944875 0)
(152.06159 0.6980777 0)
(151.80117 0.63734757 0)
(151.56079 0.57756457 0)
(151.34006 0.51899982 0)
(151.13853 0.46189364 0)
(150.95565 0.40646061 0)
(150.79085 0.35289521 0)
(150.64347 0.30137941 0)
(150.51283 0.25209847 0)
(150.39822 0.20528351 0)
(150.29905 0.16126146 0)
(150.21459 0.12039046 0)
(150.14426 0.082911855 0)
(150.08514 0.053675706 0)
(150.03777 0.027282208 0)
(150.00893 0.0099641987 0)
(160.77656 -0.64119377 0)
(160.95293 -0.64904731 0)
(161.08751 -0.6529125 0)
(161.2214 -0.65198201 0)
(161.35139 -0.64592246 0)
(161.47647 -0.63459539 0)
(161.5955 -0.61797274 0)
(161.70729 -0.59610294 0)
(161.81068 -0.56910111 0)
(161.90454 -0.53714941 0)
(161.98778 -0.50049806 0)
(162.05942 -0.45946786 0)
(162.11854 -0.41444926 0)
(162.16436 -0.36590274 0)
(162.1962 -0.3143547 0)
(162.21354 -0.26039537 0)
(162.21601 -0.20467174 0)
(162.20341 -0.14788309 0)
(162.17573 -0.090771764 0)
(162.13314 -0.034115431 0)
(162.07603 0.021287145 0)
(162.00495 0.074618514 0)
(161.92072 0.12505642 0)
(161.82434 0.17179445 0)
(161.717 0.21402668 0)
(161.6001 0.25100832 0)
(161.47526 0.28202652 0)
(161.34422 0.30642772 0)
(161.20892 0.32363339 0)
(161.07144 0.33314422 0)
(160.93394 0.33455503 0)
(160.7987 0.32756389 0)
(160.66806 0.31197922 0)
(160.54436 0.28772642 0)
(160.42996 0.25485292 0)
(160.32718 0.21353046 0)
(160.23827 0.16405713 0)
(160.16535 0.10685533 0)
(160.11042 0.042470577 0)
(160.0753 -0.028433431 0)
(160.06161 -0.10508145 0)
(160.07072 -0.1865985 0)
(160.10375 -0.27201626 0)
(160.16154 -0.36029336 0)
(160.24463 -0.45031142 0)
(160.35324 -0.54090002 0)
(160.48726 -0.63084755 0)
(160.64626 -0.71891717 0)
(160.82944 -0.80386328 0)
(161.03568 -0.88444759 0)
(161.26355 -0.95945623 0)
(161.51125 -1.0277162 0)
(161.77671 -1.0881124 0)
(162.05754 -1.1396031 0)
(162.35111 -1.1812367 0)
(162.65452 -1.2121655 0)
(162.96466 -1.2316603 0)
(163.27827 -1.2391225 0)
(163.5919 -1.2340952 0)
(163.90204 -1.2162723 0)
(164.2051 -1.1855057 0)
(164.49746 -1.1418098 0)
(164.77555 -1.0853638 0)
(165.03586 -1.0165111 0)
(165.275 -0.93575586 0)
(165.48975 -0.84375708 0)
(165.67708 -0.74131936 0)
(165.83422 -0.62938153 0)
(165.95868 -0.50900238 0)
(166.04827 -0.38134574 0)
(166.10116 -0.24766439 0)
(166.11584 -0.10926984 0)
(166.09126 0.032494656 0)
(166.02669 0.17622512 0)
(165.92183 0.32052285 0)
(165.77672 0.46397149 0)
(165.59183 0.60520075 0)
(165.368 0.74288812 0)
(165.10644 0.87577356 0)
(164.80869 1.0026798 0)
(164.4766 1.1225247 0)
(164.11234 1.234329 0)
(163.71832 1.3372261 0)
(163.29717 1.4304731 0)
(162.85174 1.5134588 0)
(162.38499 1.5857101 0)
(161.90001 1.6468945 0)
(161.39997 1.6968213 0)
(160.88804 1.7354395 0)
(160.36741 1.7628329 0)
(159.84121 1.7792135 0)
(159.31247 1.7849117 0)
(158.78412 1.7803651 0)
(158.25896 1.7661053 0)
(157.73958 1.7427436 0)
(157.22841 1.7109559 0)
(156.72766 1.6714674 0)
(156.23933 1.6250376 0)
(155.7652 1.5724455 0)
(155.30682 1.5144762 0)
(154.86552 1.451909 0)
(154.4424 1.3855059 0)
(154.03838 1.316003 0)
(153.65414 1.2441025 0)
(153.29021 1.1704666 0)
(152.94692 1.0957136 0)
(152.62444 1.0204142 0)
(152.32281 0.94509054 0)
(152.04192 0.87021513 0)
(151.78156 0.79621208 0)
(151.5414 0.72345851 0)
(151.32104 0.65228767 0)
(151.11998 0.58299283 0)
(150.93768 0.51583239 0)
(150.77354 0.45103542 0)
(150.6269 0.38880896 0)
(150.49709 0.32935377 0)
(150.38342 0.2728964 0)
(150.28533 0.21970314 0)
(150.20206 0.17000747 0)
(150.13316 0.12398959 0)
(150.07637 0.087441841 0)
(150.03272 0.052431634 0)
(150.00751 0.023817736 0)
(160.796 -0.73479222 0)
(160.97608 -0.74254705 0)
(161.11414 -0.74541669 0)
(161.2519 -0.74271009 0)
(161.38597 -0.73409648 0)
(161.51524 -0.7194078 0)
(161.63848 -0.69859513 0)
(161.75445 -0.67170389 0)
(161.86194 -0.63886331 0)
(161.95977 -0.60028498 0)
(162.0468 -0.55626192 0)
(162.12197 -0.50717047 0)
(162.18434 -0.45346846 0)
(162.23305 -0.39569545 0)
(162.26738 -0.33446796 0)
(162.28676 -0.27047717 0)
(162.29078 -0.20448093 0)
(162.27919 -0.1372987 0)
(162.25195 -0.069801912 0)
(162.20922 -0.0029018791 0)
(162.15133 0.062462557 0)
(162.07886 0.12532723 0)
(161.99261 0.18472657 0)
(161.89357 0.23969624 0)
(161.78296 0.28930627 0)
(161.66223 0.33266018 0)
(161.53299 0.3689177 0)
(161.39706 0.39730892 0)
(161.25643 0.41714634 0)
(161.11322 0.42784066 0)
(160.96969 0.42891314 0)
(160.82818 0.42000659 0)
(160.69112 0.40089539 0)
(160.56094 0.3714929 0)
(160.44009 0.33185764 0)
(160.33099 0.28219616 0)
(160.23597 0.22286543 0)
(160.15727 0.15436999 0)
(160.09695 0.077361198 0)
(160.05695 -0.0073694917 0)
(160.03895 -0.098897271 0)
(160.0444 -0.19618249 0)
(160.07449 -0.29807221 0)
(160.13012 -0.40332096 0)
(160.21187 -0.51059552 0)
(160.32002 -0.61850163 0)
(160.45447 -0.72559706 0)
(160.61481 -0.83041149 0)
(160.80025 -0.93146549 0)
(161.00967 -1.0272894 0)
(161.2416 -1.1164436 0)
(161.49423 -1.1975375 0)
(161.76542 -1.2692498 0)
(162.05275 -1.3303468 0)
(162.3535 -1.3797011 0)
(162.6647 -1.4163092 0)
(162.98316 -1.4393074 0)
(163.30551 -1.4479871 0)
(163.62821 -1.4418075 0)
(163.94762 -1.4204067 0)
(164.26004 -1.3836101 0)
(164.56174 -1.3314365 0)
(164.84902 -1.2641007 0)
(165.11825 -1.1820132 0)
(165.36593 -1.0857762 0)
(165.58873 -0.97617684 0)
(165.78351 -0.85417647 0)
(165.94741 -0.72089688 0)
(166.07785 -0.57760311 0)
(166.17257 -0.42568781 0)
(166.22969 -0.26664497 0)
(166.24766 -0.10205129 0)
(166.2254 0.066487592 0)
(166.16215 0.23730752 0)
(166.05762 0.40873627 0)
(165.91186 0.57912311 0)
(165.72537 0.74684467 0)
(165.49903 0.91033445 0)
(165.23407 1.0681 0)
(164.9321 1.2187429 0)
(164.59505 1.3609748 0)
(164.22515 1.4936299 0)
(163.82489 1.6156782 0)
(163.397 1.7262369 0)
(162.9444 1.8245802 0)
(162.47018 1.9101465 0)
(161.97751 1.9825423 0)
(161.46965 2.0415431 0)
(160.9499 2.0870914 0)
(160.42151 2.1192909 0)
(159.8877 2.1383984 0)
(159.35161 2.1448124 0)
(158.81621 2.139059 0)
(158.28437 2.1217764 0)
(157.75873 2.0936972 0)
(157.24176 2.0556306 0)
(156.73571 2.0084434 0)
(156.24259 1.9530419 0)
(155.76418 1.8903545 0)
(155.30203 1.8213157 0)
(154.85746 1.7468509 0)
(154.43157 1.6678641 0)
(154.02524 1.5852265 0)
(153.63913 1.499768 0)
(153.27372 1.4122698 0)
(152.92933 1.3234596 0)
(152.60609 1.234008 0)
(152.304 1.1445271 0)
(152.02293 1.0555701 0)
(151.76261 0.96763241 0)
(151.5227 0.88115376 0)
(151.30277 0.79652225 0)
(151.1023 0.71407891 0)
(150.92072 0.63412352 0)
(150.75742 0.55692108 0)
(150.61173 0.4827107 0)
(150.48299 0.41172217 0)
(150.37055 0.34419891 0)
(150.2738 0.28039569 0)
(150.192 0.22052892 0)
(150.12481 0.16481999 0)
(150.07031 0.11994133 0)
(150.02953 0.075491914 0)
(150.00668 0.035878234 0)
(160.82407 -0.82953948 0)
(161.00876 -0.83690673 0)
(161.15085 -0.83847946 0)
(161.29298 -0.83364284 0)
(161.43162 -0.82209121 0)
(161.56557 -0.80365122 0)
(161.69353 -0.77826803 0)
(161.8142 -0.74599164 0)
(161.92628 -0.70696912 0)
(162.02854 -0.66144356 0)
(162.11978 -0.60975239 0)
(162.19889 -0.55232907 0)
(162.26485 -0.4897005 0)
(162.31674 -0.42248725 0)
(162.35379 -0.3513979 0)
(162.37538 -0.27722662 0)
(162.38103 -0.20084393 0)
(162.37046 -0.1231912 0)
(162.3436 -0.045269819 0)
(162.30054 0.031873397 0)
(162.24164 0.10715964 0)
(162.16745 0.17947847 0)
(162.07876 0.24772409 0)
(161.97656 0.31078288 0)
(161.86211 0.36758682 0)
(161.73687 0.41710352 0)
(161.6025 0.45836317 0)
(161.46087 0.49047696 0)
(161.31402 0.51265252 0)
(161.16416 0.5242093 0)
(161.01362 0.52459507 0)
(160.86485 0.51339842 0)
(160.72034 0.49036018 0)
(160.58266 0.45538276 0)
(160.45434 0.40853724 0)
(160.33793 0.35006677 0)
(160.23585 0.28038948 0)
(160.15045 0.20009513 0)
(160.08393 0.10994428 0)
(160.03829 0.0108603 0)
(160.01532 -0.096075579 0)
(160.01656 -0.20965373 0)
(160.04329 -0.32853131 0)
(160.09646 -0.45126447 0)
(160.17673 -0.5763115 0)
(160.28439 -0.70205574 0)
(160.41941 -0.82682712 0)
(160.58137 -0.94892134 0)
(160.76951 -1.0666241 0)
(160.98269 -1.178232 0)
(161.21941 -1.2820761 0)
(161.47783 -1.3765443 0)
(161.75577 -1.4601037 0)
(162.05072 -1.5313229 0)
(162.3599 -1.588893 0)
(162.68025 -1.631648 0)
(163.00848 -1.6585836 0)
(163.34108 -1.6688744 0)
(163.67441 -1.6618897 0)
(164.00471 -1.6372058 0)
(164.32812 -1.5946164 0)
(164.64078 -1.5341398 0)
(164.93885 -1.456022 0)
(165.21856 -1.360737 0)
(165.47628 -1.2489824 0)
(165.70853 -1.1216711 0)
(165.91207 -0.97991948 0)
(166.08392 -0.82503116 0)
(166.22139 -0.65847708 0)
(166.32216 -0.48187784 0)
(166.38426 -0.29697377 0)
(166.4061 -0.1056063 0)
(166.38656 0.090358434 0)
(166.32488 0.28899069 0)
(166.22073 0.48833846 0)
(166.07422 0.68645218 0)
(165.88583 0.88143354 0)
(165.65651 1.0714544 0)
(165.38755 1.2547756 0)
(165.08061 1.4297676 0)
(164.7377 1.5949284 0)
(164.36115 1.7489004 0)
(163.95355 1.8904852 0)
(163.51772 2.0186565 0)
(163.05671 2.1325722 0)
(162.5737 2.2315817 0)
(162.072 2.3152312 0)
(161.55498 2.3832652 0)
(161.02604 2.4356236 0)
(160.48857 2.472436 0)
(159.94587 2.4940114 0)
(159.40118 2.5008247 0)
(158.85756 2.4935008 0)
(158.31794 2.4727952 0)
(157.78503 2.4395737 0)
(157.26134 2.3947904 0)
(156.74915 2.3394658 0)
(156.2505 2.2746656 0)
(155.76717 2.2014792 0)
(155.30071 2.1210013 0)
(154.85242 2.0343145 0)
(154.42338 1.9424741 0)
(154.01444 1.8464954 0)
(153.62624 1.7473435 0)
(153.25921 1.645925 0)
(152.91362 1.5430824 0)
(152.58958 1.43959 0)
(152.28702 1.3361524 0)
(152.00577 1.2334037 0)
(151.74555 1.1319089 0)
(151.50595 1.0321663 0)
(151.28651 0.93461172 0)
(151.08669 0.8396229 0)
(150.90589 0.74752576 0)
(150.74348 0.65860095 0)
(150.59878 0.57309329 0)
(150.47114 0.49122662 0)
(150.35989 0.41321887 0)
(150.26444 0.33927619 0)
(150.18405 0.26957158 0)
(150.11849 0.20431136 0)
(150.06599 0.15098512 0)
(150.02739 0.096958523 0)
(150.00615 0.046824729 0)
(160.85903 -0.92742174 0)
(161.04929 -0.93503906 0)
(161.1961 -0.93591029 0)
(161.3433 -0.92944696 0)
(161.4872 -0.91536194 0)
(161.62653 -0.89348188 0)
(161.7599 -0.86375067 0)
(161.88595 -0.82622466 0)
(162.00332 -0.78106863 0)
(162.11068 -0.72855613 0)
(162.20677 -0.66906801 0)
(162.2904 -0.60309433 0)
(162.36049 -0.53123137 0)
(162.41605 -0.45418199 0)
(162.45624 -0.37274929 0)
(162.48036 -0.2878341 0)
(162.4879 -0.20042457 0)
(162.47852 -0.11159101 0)
(162.45209 -0.022471404 0)
(162.40868 0.065740718 0)
(162.34861 0.15181572 0)
(162.27242 0.23448811 0)
(162.1809 0.3124942 0)
(162.07505 0.38456274 0)
(161.95615 0.44946779 0)
(161.82568 0.50602848 0)
(161.68536 0.553135 0)
(161.53712 0.58976697 0)
(161.38308 0.6150153 0)
(161.22551 0.62809856 0)
(161.06686 0.62838149 0)
(160.90966 0.61539028 0)
(160.75653 0.58882555 0)
(160.61015 0.5485731 0)
(160.47319 0.49471239 0)
(160.3483 0.42752036 0)
(160.23806 0.34747478 0)
(160.14492 0.25525051 0)
(160.07121 0.15171811 0)
(160.01905 0.037934732 0)
(159.99035 -0.084857378 0)
(159.98674 -0.21527417 0)
(160.00959 -0.3517784 0)
(160.05993 -0.49271286 0)
(160.13848 -0.63630562 0)
(160.2456 -0.78070129 0)
(160.38128 -0.92398418 0)
(160.54513 -1.0642004 0)
(160.73639 -1.1993851 0)
(160.95392 -1.3275867 0)
(161.19618 -1.4468931 0)
(161.46129 -1.5554575 0)
(161.74702 -1.6515238 0)
(162.05078 -1.7334515 0)
(162.3697 -1.7997403 0)
(162.7006 -1.8490526 0)
(163.04009 -1.880236 0)
(163.38453 -1.8923421 0)
(163.73013 -1.8846455 0)
(164.07297 -1.8566578 0)
(164.40906 -1.8081401 0)
(164.73436 -1.7391111 0)
(165.04488 -1.6498519 0)
(165.33667 -1.5409056 0)
(165.60596 -1.4130732 0)
(165.8491 -1.2674042 0)
(166.06273 -1.1051826 0)
(166.24372 -0.92790881 0)
(166.38929 -0.7372759 0)
(166.497 -0.53514905 0)
(166.56482 -0.32353643 0)
(166.59109 -0.10456174 0)
(166.57466 0.11963523 0)
(166.51473 0.34684162 0)
(166.41101 0.57482161 0)
(166.26358 0.80135742 0)
(166.07298 1.0242778 0)
(165.84018 1.241488 0)
(165.56656 1.4509943 0)
(165.25385 1.6509277 0)
(164.90416 1.8395656 0)
(164.5199 2.0153511 0)
(164.10379 2.1769102 0)
(163.65877 2.3230677 0)
(163.18801 2.4528596 0)
(162.69484 2.5655427 0)
(162.18268 2.6606009 0)
(161.65507 2.7377464 0)
(161.11552 2.7969178 0)
(160.56754 2.8382721 0)
(160.01459 2.8621742 0)
(159.45997 2.8691803 0)
(158.90687 2.8600193 0)
(158.35829 2.8355704 0)
(157.81702 2.7968388 0)
(157.28561 2.7449304 0)
(156.76638 2.6810258 0)
(156.26139 2.6063555 0)
(155.77243 2.5221753 0)
(155.30105 2.4297448 0)
(154.84853 2.330307 0)
(154.41592 2.2250716 0)
(154.00404 2.1152001 0)
(153.61348 2.0017945 0)
(153.24464 1.8858879 0)
(152.89774 1.7684386 0)
(152.57281 1.6503258 0)
(152.26978 1.5323477 0)
(151.9884 1.4152215 0)
(151.72835 1.299585 0)
(151.48918 1.1859991 0)
(151.27038 1.0749524 0)
(151.07137 0.96686651 0)
(150.89153 0.86210161 0)
(150.7302 0.76096354 0)
(150.58667 0.66371267 0)
(150.46029 0.5705755 0)
(150.35039 0.48175304 0)
(150.25635 0.39741468 0)
(150.17742 0.31769213 0)
(150.11346 0.24273757 0)
(150.06273 0.18082868 0)
(150.02585 0.11724317 0)
(150.00577 0.057024203 0)
(160.90114 -1.0280887 0)
(161.09779 -1.0359193 0)
(161.24994 -1.0360653 0)
(161.40281 -1.0279331 0)
(161.55258 -1.0112459 0)
(161.6979 -0.9858311 0)
(161.83731 -0.95163393 0)
(161.96935 -0.90871888 0)
(162.09259 -0.85726921 0)
(162.20562 -0.79758923 0)
(162.30711 -0.73010336 0)
(162.39578 -0.65535863 0)
(162.47045 -0.57402149 0)
(162.53008 -0.48687828 0)
(162.57374 -0.39482834 0)
(162.60067 -0.29888128 0)
(162.61027 -0.20014531 0)
(162.60217 -0.099822915 0)
(162.57617 0.00080816714 0)
(162.53232 0.10040613 0)
(162.47089 0.19758576 0)
(162.39242 0.29092484 0)
(162.29766 0.37898773 0)
(162.18766 0.46035345 0)
(162.0637 0.53362935 0)
(161.9273 0.59747832 0)
(161.78023 0.65064354 0)
(161.6245 0.69196686 0)
(161.46228 0.72041518 0)
(161.29598 0.73509953 0)
(161.12812 0.73529585 0)
(160.96136 0.72046262 0)
(160.79846 0.69025602 0)
(160.64221 0.64454229 0)
(160.49544 0.58340757 0)
(160.36094 0.5071624 0)
(160.24142 0.41634566 0)