/*--------------------------------*- C++ -*----------------------------------*\
| =========                 |                                                 |
| \\      /  F ield         | foam-extend: Open Source CFD                    |
|  \\    /   O peration     | Version:     4.1                                |
|   \\  /    A nd           | Web:         http://www.foam-extend.org         |
|    \\/     M anipulation  |                                                 |
\*---------------------------------------------------------------------------*/
FoamFile
{
    version     2.0;
    format      ascii;
    class       volScalarField;
    location    "0.4";
    object      p;
}
// * * * * * * * * * * * * * * * * * * * * * * * * * * * * * * * * * * * * * //

dimensions      [0 2 -2 0 0 0 0];

internalField   nonuniform List<scalar> 
16796
(
-4.6200271
-11.038039
-17.930067
-25.036889
-32.322851
-39.804378
-47.507991
-55.461627
-63.691407
-72.220432
-81.068144
-90.249962
-99.777177
-109.65683
-119.89177
-130.48069
-141.41832
-152.69557
-164.29988
-176.21549
-188.42391
-200.90439
-213.63454
-226.59094
-239.74994
-253.08841
-266.58467
-280.21941
-293.97662
-307.84459
-321.81683
-335.89311
-350.08
-364.39179
-378.85098
-393.48854
-408.34414
-423.46583
-438.90978
-454.73935
-471.02416
-487.83855
-505.25998
-523.36699
-542.23684
-561.94306
-582.55269
-604.12358
-626.70162
-650.31791
-674.98611
-700.69991
-727.43072
-755.12563
-783.70563
-813.06423
-843.06648
-873.5484
-904.317
-935.15058
-965.79967
-995.98841
-1025.4167
-1053.7626
-1080.6861
-1105.8323
-1128.8364
-1149.3284
-1166.9383
-1181.3026
-1192.0695
-1198.9062
-1201.5046
-1199.5879
-1192.9166
-1181.2939
-1164.5706
-1142.6488
-1115.4852
-1083.0895
-1045.5282
-1002.938
-955.52152
-903.5156
-847.1949
-786.88458
-722.94906
-655.78432
-585.8106
-513.46518
-439.19519
-363.45061
-286.67782
-209.31352
-131.77946
-54.47789
22.212203
97.938003
172.37496
245.22809
316.23264
385.15403
451.78729
515.95605
577.51108
636.32861
692.30847
745.37204
795.46024
842.53151
886.55985
927.53318
965.45186
1000.3273
1032.1808
1061.0429
1086.9615
1110.0201
1130.3075
1147.784
1162.3147
1174.8486
1189.1776
1207.4141
-3.1096491
-10.795143
-17.842266
-24.977091
-32.259334
-39.729663
-47.421246
-55.363958
-63.58446
-72.106165
-80.948613
-90.127242
-99.653318
-109.5338
-119.77144
-130.36477
-141.30834
-152.59281
-164.20537
-176.12996
-188.34778
-200.83773
-213.57705
-226.54196
-239.70842
-253.05292
-266.5534
-280.1902
-293.94695
-307.81165
-321.77754
-335.84415
-350.01792
-364.31305
-378.75202
-393.3659
-408.19453
-423.28627
-438.69767
-454.49262
-470.74135
-487.51897
-504.9038
-522.97532
-541.81184
-561.48797
-582.0719
-603.62269
-626.18743
-649.79838
-674.47025
-700.19776
-726.95324
-754.68457
-783.3134
-812.73369
-842.81078
-873.38077
-904.25049
-935.19788
-965.9728
-996.29844
-1025.8734
-1054.3744
-1081.4594
-1106.7716
-1129.944
-1150.6039
-1168.3789
-1182.9027
-1193.8209
-1200.7978
-1203.5229
-1201.7169
-1195.138
-1183.588
-1166.9165
-1145.0254
-1117.8721
-1085.4713
-1047.8956
-1005.2702
-957.77232
-905.64281
-849.17472
-788.69898
-724.58362
-657.22783
-587.05507
-514.50577
-440.03008
-364.08088
-287.10719
-209.54811
-131.82746
-54.349243
22.506145
98.384809
172.96144
245.9406
317.05736
386.07719
452.79538
517.03597
578.65027
637.51514
693.53105
746.62005
796.72367
843.80083
887.82587
928.78678
966.68359
1001.5266
1033.3347
1062.1359
1087.9778
1110.93
1131.0446
1148.278
1162.6098
1174.8677
1186.8855
1197.3245
-2.7665482
-10.208472
-17.245033
-24.356999
-31.600714
-39.031481
-46.688013
-54.603275
-62.805926
-71.320101
-80.165775
-89.358495
-98.909355
-108.82493
-119.10737
-129.75443
-140.75967
-152.11267
-163.79934
-175.80227
-188.10118
-200.67346
-213.49475
-226.53969
-239.78261
-253.19848
-266.76371
-280.45722
-294.26134
-308.1629
-322.15414
-336.23373
-350.40754
-364.68936
-379.10157
-393.67537
-408.45101
-423.47761
-438.81273
-454.52163
-470.67617
-487.35344
-504.63398
-522.59982
-541.33196
-560.90797
-581.39935
-602.86843
-625.36519
-648.92472
-673.56471
-699.28268
-726.05354
-753.82745
-782.52792
-812.05037
-842.26099
-872.99609
-904.06216
-935.23623
-966.26659
-996.87414
-1026.7545
-1055.5807
-1083.0065
-1108.6703
-1132.1995
-1153.216
-1171.3411
-1186.2022
-1197.4387
-1204.7087
-1207.6957
-1206.1147
-1199.7188
-1188.3054
-1171.7211
-1149.8661
-1122.6964
-1090.2267
-1052.5321
-1009.7436
-962.04426
-909.6743
-852.92667
-792.13736
-727.6801
-659.96001
-589.40655
-516.46613
-441.5947
-365.25066
-287.88809
-209.95067
-131.86617
-54.041931
23.13899
99.320692
174.1765
247.41021
318.75666
387.98159
454.88097
519.27989
581.03097
640.01262
696.127
749.29799
799.46898
846.60076
890.66955
931.6651
969.58903
1004.4529
1036.2766
1065.0897
1090.9379
1113.8777
1133.9382
1151.1056
1165.4994
1177.7402
1188.0325
1194.0209
-2.7414024
-9.995545
-16.942177
-23.984934
-31.164083
-38.533029
-46.133424
-54.000161
-62.163086
-70.647297
-79.473285
-88.65686
-98.209147
-108.13653
-118.44074
-129.11892
-140.16381
-151.56398
-163.30415
-175.36556
-187.72647
-200.36266
-213.24814
-226.35579
-239.65826
-253.12877
-266.74209
-280.47556
-294.31005
-308.23109
-322.22981
-336.30396
-350.45877
-364.70768
-379.07295
-393.58604
-408.2878
-423.22826
-438.46631
-454.06887
-470.10985
-486.66874
-503.82885
-521.67523
-540.29245
-559.76222
-580.15968
-601.55034
-623.98783
-647.51106
-672.14138
-697.87981
-724.70455
-752.56865
-781.39811
-811.0902
-841.51242
-872.50161
-903.86388
-935.3751
-966.78156
-997.80126
-1028.1259
-1057.4238
-1085.3428
-1111.5149
-1135.5604
-1157.0931
-1175.7263
-1191.0786
-1202.7808
-1210.4821
-1213.8576
-1212.6146
-1206.4987
-1195.3012
-1178.8645
-1157.0853
-1129.9165
-1097.371
-1059.523
-1016.5059
-968.50992
-915.78125
-858.61803
-797.36343
-732.39935
-664.13964
-593.0227
-519.5039
-444.0479
-367.12136
-289.18599
-210.69232
-132.0741
-53.743676
23.911857
100.53355
175.7926
249.3916
321.06492
390.57859
457.72946
522.34395
584.27645
643.40736
699.64107
752.90372
803.14096
850.31578
894.40639
935.40428
973.31234
1008.1429
1039.9165
1068.6632
1094.4248
1117.2439
1137.1363
1154.1225
1168.3842
1180.3113
1189.4283
1193.8129
-2.4764052
-9.5524821
-16.370831
-23.312876
-30.405431
-37.698717
-45.234739
-53.049594
-61.174139
-69.634195
-78.450666
-87.63947
-97.211537
-107.17277
-117.52414
-128.26176
-139.3771
-150.85724
-162.68518
-174.84028
-187.29876
-200.03422
-213.01843
-226.22196
-239.61513
-253.16886
-266.85569
-280.65083
-294.53319
-308.48651
-322.50038
-336.57131
-350.70358
-364.91004
-379.21281
-393.64362
-408.24405
-423.06536
-438.16819
-453.62173
-469.50269
-485.89383
-502.88228
-520.55756
-539.00976
-558.32556
-578.58429
-599.85649
-622.20139
-645.66335
-670.26888
-696.02393
-722.9112
-750.88768
-779.88263
-809.79582
-840.49631
-871.82151
-903.57696
-935.53676
-967.44452
-999.01414
-1029.9319
-1059.8595
-1088.4371
-1115.2876
-1140.0216
-1162.2421
-1181.5513
-1197.5562
-1209.8756
-1218.1471
-1222.0349
-1221.2353
-1215.4842
-1204.5653
-1188.3153
-1166.6265
-1139.4486
-1106.7936
-1068.7362
-1025.4125
-977.01839
-923.80721
-866.08518
-804.20512
-738.55981
-669.57469
-597.70012
-523.40343
-447.16093
-369.45032
-290.7435
-211.50012
-132.16187
-53.147724
25.14992
102.36813
178.1754
252.27279
324.39426
394.30633
461.80716
526.72515
588.9172
648.26658
704.68079
758.08917
808.44061
855.70114
899.85178
940.88635
978.80945
1013.6343
1045.3817
1074.0805
1099.7661
1122.4672
1142.1914
1158.9742
1172.971
1184.3485
1192.454
1196.0292
-2.3269175
-9.260185
-15.935161
-22.752437
-29.733939
-36.92856
-44.378517
-52.120783
-60.187191
-68.604345
-77.393659
-86.571253
-96.147957
-106.12927
-116.51545
-127.30162
-138.47798
-150.03007
-161.93913
-174.18252
-186.73427
-199.56568
-212.64602
-225.94337
-239.42542
-253.06055
-266.81874
-280.67279
-294.5993
-308.57994
-322.60247
-336.66186
-350.76123
-364.91268
-379.13805
-393.46926
-407.94867
-422.62891
-437.57256
-452.85144
-468.54547
-484.7412
-501.53039
-519.00846
-537.27161
-556.41098
-576.51184
-597.65162
-619.89593
-643.29552
-667.88332
-693.6713
-720.64765
-748.77428
-777.98452
-808.18131
-839.23583
-870.98624
-903.23758
-935.762
-968.29982
-1000.5601
-1032.2226
-1062.9409
-1092.3455
-1120.0486
-1145.6484
-1168.7349
-1188.896
-1205.7243
-1218.8239
-1227.8175
-1232.3552
-1232.1196
-1226.8345
-1216.2734
-1200.2654
-1178.6963
-1151.5121
-1118.7237
-1080.4068
-1036.7015
-987.8106
-933.99612
-875.5749
-812.91211
-746.41429
-676.52159
-603.69949
-528.43049
-451.20564
-372.51661
-292.84818
-212.67153
-132.43831
-52.575849
26.516824
104.47182
180.95431
255.66351
328.3329
398.72975
466.65395
531.93651
594.43755
654.04409
710.6677
764.24197
814.72005
862.07221
906.28345
947.35127
985.28341
1020.0957
1051.8112
1080.4591
1106.0714
1128.6707
1148.2661
1164.9012
1178.6826
1189.6273
1197.0836
1200.2397
-2.0425849
-8.8078372
-15.317655
-21.99029
-28.843768
-35.926335
-43.280776
-50.944844
-58.951192
-67.327087
-76.094311
-85.269026
-94.861767
-104.87739
-115.31518
-126.16895
-137.42731
-149.07388
-161.08775
-173.44388
-186.11368
-199.06568
-212.26623
-225.68036
-239.27275
-253.00866
-266.85509
-280.7819
-294.76297
-308.77743
-322.81081
-336.85622
-350.91534
-364.9993
-379.12952
-393.33816
-407.66844
-422.17457
-436.92149
-451.98418
-467.4463
-483.39914
-499.94047
-517.17293
-535.19862
-554.11509
-574.01573
-594.98578
-617.09875
-640.41339
-664.97038
-690.78903
-717.86429
-746.16408
-775.62679
-806.15909
-837.63487
-869.89328
-902.73875
-935.94108
-969.2362
-1002.3277
-1034.8874
-1066.559
-1096.9616
-1125.6938
-1152.3394
-1176.4722
-1197.6633
-1215.4874
-1229.5306
-1239.398
-1244.7224
-1245.1698
-1240.4491
-1230.3214
-1214.6062
-1193.1814
-1165.9886
-1133.0368
-1094.4033
-1050.233
-1000.7365
-946.18665
-886.91334
-823.29693
-755.7608
-684.76306
-610.78772
-534.33578
-455.91631
-376.03801
-295.20133
-213.89141
-132.57203
-51.680543
28.376042
107.22394
184.52437
259.97445
333.3072
404.29085
472.72751
538.45135
601.32644
661.24427
718.12123
771.89593
822.52648
869.98797
914.26991
955.37383
993.31089
1028.0998
1059.7656
1088.3379
1113.8464
1136.3111
1155.7452
1172.1946
1185.7276
1196.2945
1203.3108
1206.2241
-1.8104504
-8.4074487
-14.733845
-21.239198
-27.941417
-34.889667
-42.127802
-49.694686
-57.623987
-65.943777
-74.676308
-83.837866
-93.438726
-103.4831
-113.96927
-124.88967
-136.23116
-147.97533
-160.09889
-172.57416
-185.36968
-198.45087
-211.78084
-225.32124
-239.03326
-252.87871
-266.82113
-280.82704
-294.86715
-308.91765
-322.96145
-336.98943
-351.0015
-365.0076
-379.02857
-393.09666
-407.25602
-421.56255
-436.08379
-450.89827
-466.09383
-481.7674
-498.02398
-514.97382
-532.72529
-551.38459
-571.05406
-591.82804
-613.78936
-637.00616
-661.52825
-687.3836
-714.57523
-743.07821
-772.83695
-803.76281
-835.73283
-868.58763
-902.13101
-936.13028
-970.31654
-1004.3868
-1038.0038
-1070.7997
-1102.3802
-1132.3285
-1160.2107
-1185.5819
-1207.9929
-1226.9978
-1242.1611
-1253.0668
-1259.327
-1260.5883
-1256.5414
-1246.9325
-1231.5693
-1210.3207
-1183.1227
-1149.9822
-1110.9782
-1066.2614
-1016.0517
-960.63469
-900.35592
-835.614
-766.85245
-694.55087
-619.21541
-541.36916
-461.54266
-380.26488
-298.05486
-215.4143
-132.82121
-50.724711
30.458913
110.3491
188.60265
264.91445
339.01725
410.68071
479.70982
545.9428
609.24865
669.52447
726.69265
780.69799
831.50481
879.09424
923.46146
964.61319
1002.5651
1037.3398
1068.9651
1097.4716
1122.8882
1145.2342
1164.5254
1180.8039
1194.1107
1204.376
1211.0899
1213.8515
-1.4924559
-7.8954274
-14.016683
-20.335163
-26.868475
-33.667363
-40.777031
-48.237738
-56.084241
-64.345406
-73.043903
-82.196036
-91.811682
-101.89424
-112.44076
-123.44204
-134.88294
-146.74268
-158.99527
-171.61003
-184.55223
-197.78376
-211.26404
-224.95087
-238.80152
-252.7738
-266.82733
-280.92479
-295.03319
-309.12536
-323.18111
-337.18872
-351.14598
-365.06136
-378.95495
-392.85905
-406.81873
-420.89175
-435.14868
-449.67189
-464.55414
-479.89908
-495.82004
-512.43508
-529.86076
-548.21341
-567.60568
-588.14244
-609.91748
-633.0099
-657.48015
-683.36644
-710.68122
-739.40797
-769.49825
-800.86898
-833.40094
-866.93671
-901.27946
-936.19376
-971.40538
-1006.6034
-1041.4403
-1075.5353
-1108.4782
-1139.8343
-1169.1497
-1195.9575
-1219.7851
-1240.1622
-1256.6285
-1268.7429
-1276.0937
-1278.3045
-1275.0448
-1266.0428
-1251.092
-1230.0511
-1202.8492
-1169.4906
-1130.0566
-1084.7041
-1033.6643
-977.23753
-915.78787
-849.73538
-779.54738
-705.72876
-628.81169
-549.34528
-467.88526
-384.98432
-301.18322
-217.00294
-132.938
-49.451123
33.030807
114.11953
193.46694
270.76554
345.748
418.18586
487.88762
554.69637
618.48697
679.16312
736.65424
790.91237
841.90911
889.63263
934.08484
975.27865
1013.2354
1047.9826
1079.552
1107.977
1133.2877
1155.5059
1174.6502
1190.7593
1203.8591
1213.8822
1220.3793
1223.0387
-1.1833501
-7.3791864
-13.272598
-19.380373
-25.721472
-32.349143
-39.310552
-46.647726
-54.396781
-62.587548
-71.243224
-80.380181
-90.007893
-100.12888
-110.73887
-121.82687
-133.37554
-145.36149
-157.75575
-170.52431
-183.62881
-197.02724
-210.67489
-224.52526
-238.53119
-252.64604
-266.82496
-281.02627
-295.2128
-309.35345
-323.42451
-337.41117
-351.30873
-365.12388
-378.87567
-392.59632
-406.33184
-420.14187
-434.10033
-448.2937
-462.82042
-477.79171
-493.32993
-509.56183
-526.6138
-544.61337
-563.68483
-583.94522
-605.50096
-628.44372
-652.84627
-678.75861
-706.20418
-735.17625
-765.63476
-797.50325
-830.66699
-864.97107
-900.21818
-936.17006
-972.54661
-1009.0281
-1045.2555
-1080.8331
-1115.3332
-1148.3003
-1179.2577
-1207.7132
-1233.1675
-1255.1221
-1273.0879
-1286.5952
-1295.2045
-1298.5126
-1296.1646
-1287.8667
-1273.3965
-1252.6007
-1225.4001
-1191.7962
-1151.8724
-1105.7934
-1053.8027
-996.2182
-933.42547
-865.86958
-794.04552
-718.48764
-639.75841
-558.43711
-475.10865
-390.35317
-304.73645
-218.80156
-133.06187
-47.99549
35.958807
118.40428
198.98756
277.39884
353.37108
426.6784
497.13371
564.58599
628.91714
690.03866
747.88826
802.42644
853.63325
901.50502
946.05142
987.29253
1025.2562
1059.9755
1091.4872
1119.8282
1145.0315
1167.1223
1186.1223
1202.0689
1214.983
1224.8089
1231.1433
1233.7293
-0.81068442
-6.7734558
-12.414322
-18.288922
-24.417328
-30.855768
-37.65372
-44.855285
-52.498105
-60.613042
-69.223834
-78.346865
-87.991109
-98.158068
-108.84193
-120.02972
-131.70161
-143.83131
-156.38652
-169.32955
-182.61798
-196.20549
-210.04275
-224.07849
-238.26058
-252.5374
-266.85905
-281.17894
-295.45516
-309.65213
-323.74207
-337.70662
-351.53816
-365.2412
-378.83354
-392.34714
-405.82886
-419.34039
-432.95925
-446.77634
-460.89657
-475.43984
-490.53847
-506.32883
-522.94851
-540.53773
-559.23405
-579.16845
-600.46166
-623.21971
-647.52948
-673.45454
-701.03092
-730.26323
-761.12115
-793.53598
-827.39833
-862.55641
-898.81272
-935.92601
-973.60983
-1011.5346
-1049.3285
-1086.5792
-1122.839
-1157.6293
-1190.4474
-1220.7726
-1248.0749
-1271.8238
-1291.4974
-1306.593
-1316.6391
-1321.2022
-1319.8988
-1312.4097
-1298.4936
-1277.9831
-1250.7899
-1216.9118
-1176.4347
-1129.5318
-1076.4613
-1017.5609
-953.2411
-883.97584
-810.29215
-732.75839
-651.97201
-568.54705
-483.10201
-396.24847
-308.5808
-220.66721
-133.04237
-46.201666
39.402937
123.36544
205.32693
284.97541
362.04467
436.31213
507.59615
575.75278
640.67223
702.27517
760.50893
815.3439
866.76986
914.79266
959.43097
1000.7133
1038.675
1073.3564
1104.7997
1133.0469
1158.1353
1180.0944
1198.9497
1214.7395
1227.4854
1237.1464
1243.3527
1245.8826
-0.42127498
-6.1300862
-11.491457
-17.10659
-22.997522
-29.224148
-35.838742
-42.887841
-50.410876
-58.439927
-66.999363
-76.10561
-85.7671
-95.984217
-106.74948
-118.0477
-129.85634
-142.14589
-154.88043
-168.01817
-181.51225
-195.31156
-209.36169
-223.60602
-237.98698
-252.44731
-266.93152
-281.38747
-295.76788
-310.03212
-324.14774
-338.09225
-351.85463
-365.43679
-378.8549
-392.14044
-405.341
-418.52042
-431.75991
-445.15508
-458.81819
-472.87914
-487.48034
-502.76873
-518.89516
-536.01387
-554.27733
-573.83222
-594.81552
-617.34953
-641.53721
-667.4576
-695.16117
-724.6656
-755.95176
-788.9601
-823.58756
-859.6862
-897.05875
-935.46093
-974.59954
-1014.1342
-1053.679
-1092.8033
-1131.0369
-1167.8756
-1202.7872
-1235.2191
-1264.6066
-1290.3827
-1311.9886
-1328.8836
-1340.5602
-1346.5496
-1346.4361
-1339.8709
-1326.5902
-1306.4107
-1279.2336
-1245.0525
-1203.9556
-1156.1261
-1101.8386
-1041.4537
-975.4104
-904.2159
-828.434
-748.67214
-665.56787
-579.77503
-491.95048
-402.74159
-312.77514
-222.64767
-132.9177
-44.09979
43.339649
128.9847
212.47078
293.48403
371.75971
447.07959
519.26863
588.19133
653.74764
715.86883
774.51336
829.66286
881.31827
929.49619
974.22552
1015.5443
1053.4967
1088.1307
1119.4957
1147.6396
1172.6054
1194.4278
1213.1367
1228.7737
1241.3645
1250.8825
1256.9825
1259.4669
0.023738055
-5.4026099
-10.455427
-15.784492
-21.413724
-27.407172
-33.820222
-40.70216
-48.094414
-56.030385
-64.535118
-73.625048
-83.307978
-93.583032
-104.44087
-115.86385
-127.82646
-140.29566
-153.23151
-166.58775
-180.31265
-194.3498
-208.6392
-223.11838
-237.72365
-252.39156
-267.06037
-281.67174
-296.17235
-310.51584
-324.66445
-338.591
-352.28046
-365.73167
-378.95879
-391.99255
-404.88108
-417.6905
-430.50575
-443.42763
-456.57659
-470.09335
-484.13103
-498.84885
-514.41236
-530.99138
-548.75508
-567.86778
-588.48471
-610.74656
-634.77447
-660.66503
-688.48515
-718.26742
-750.00568
-783.6509
-819.10757
-856.23253
-894.82913
-934.65025
-975.39553
-1016.7129
-1058.201
-1099.4089
-1139.8418
-1178.9668
-1216.219
-1251.0098
-1282.7357
-1310.7887
-1334.5679
-1353.4902
-1367.0066
-1374.6084
-1375.843
-1370.3286
-1357.7737
-1337.9766
-1310.8274
-1276.314
-1234.5278
-1185.6626
-1130.0117
-1067.9619
-999.98485
-926.62566
-848.49025
-766.23078
-680.53061
-592.089
-501.60638
-409.7707
-317.24528
-224.65843
-132.59521
-41.591251
47.871346
135.3662
220.52305
303.02671
382.61484
459.07473
532.23942
601.98341
668.21804
730.8869
789.96121
845.43548
897.32331
945.65351
990.46655
1031.8112
1069.7416
1104.3147
1135.5878
1163.616
1188.4487
1210.1268
1228.6855
1244.1712
1256.6152
1266.0042
1272.0115
1274.4569
0.50163034
-4.614969
-9.3275079
-14.340595
-19.680542
-25.41619
-31.606442
-38.303707
-45.55164
-53.385126
-61.829963
-70.902598
-80.610137
-90.950318
-101.91175
-113.47413
-125.60864
-138.27841
-151.4391
-165.03957
-179.02273
-193.3264
-207.88443
-222.62787
-237.48635
-252.38952
-267.26871
-282.05864
-296.69925
-311.1377
-325.33023
-339.24422
-352.86004
-366.17286
-379.19437
-391.95416
-404.50063
-416.90223
-429.24766
-441.64332
-454.21849
-467.12531
-480.52909
-494.60267
-509.52756
-525.49097
-542.68064
-561.28071
-581.46685
-603.40046
-627.22318
-653.05143
-680.97082
-711.03093
-743.24044
-777.56257
-813.9107
-852.14744
-892.07747
-933.45101
-975.96026
-1019.2406
-1062.8739
-1106.387
-1149.2582
-1190.9225
-1230.7792
-1268.1993
-1302.5359
-1333.1352
-1359.3488
-1380.5456
-1396.1294
-1405.5468
-1408.3031
-1403.9785
-1392.2494
-1372.8928
-1345.7859
-1310.9106
-1268.3608
-1218.3426
-1161.1705
-1097.261
-1027.1227
-951.34423
-870.57951
-785.53171
-696.93637
-605.54436
-512.10551
-417.35356
-321.99283
-226.68708
-132.0507
-38.642361
53.03902
142.55617
229.53338
313.65485
394.6618
472.3485
546.55773
617.1758
684.1273
747.36995
806.88956
862.69523
914.81482
963.29088
1008.1768
1049.5335
1087.4261
1121.9216
1153.0864
1180.9837
1205.6703
1227.194
1245.5961
1260.9288
1273.2298
1282.4978
1288.4202
1290.8304
1.0349985
-3.7390022
-8.0768578
-12.74247
-17.764541
-23.217266
-29.163534
-35.659075
-42.749976
-50.472737
-58.853953
-67.910054
-77.64735
-88.062036
-99.14047
-110.8594
-123.18643
-136.08049
-149.49246
-163.36588
-177.63781
-192.23976
-207.09886
-222.13909
-237.28268
-252.45171
-267.56981
-282.56401
-297.36672
-311.91781
-326.16671
-340.07465
-353.61662
-366.78352
-379.58398
-392.04605
-404.21808
-416.17082
-427.99674
-439.8082
-451.744
-463.96851
-476.66075
-490.00824
-504.21008
-519.4726
-536.00427
-554.01137
-573.69237
-595.23185
-618.79449
-644.51908
-672.51234
-702.84317
-735.53723
-770.57184
-807.87088
-847.30398
-888.67788
-931.7406
-976.17669
-1021.6081
-1067.5986
-1113.6509
-1159.2138
-1203.6874
-1246.4308
-1286.7706
-1324.0115
-1357.4483
-1386.3794
-1410.1199
-1428.02
-1439.4762
-1443.9458
-1440.9651
-1430.1736
-1411.324
-1384.2787
-1349.0119
-1305.6205
-1254.3241
-1195.4612
-1129.4817
-1056.9366
-978.46391
-894.77217
-806.62268
-714.81032
-620.1445
-523.43092
-425.45482
-326.96643
-228.66887
-131.20878
-35.169845
58.931176
150.64588
239.59357
325.45887
407.98799
486.98398
562.30134
633.84024
701.54066
765.37653
825.35024
881.48733
933.83171
982.44125
1027.3838
1068.7335
1106.5679
1140.9652
1172.0017
1199.7497
1224.2742
1245.6304
1263.8667
1279.0416
1291.1993
1300.3494
1306.1906
1308.5674
1.613345
-2.7843073
-6.7100392
-10.993446
-15.666004
-20.807924
-26.486708
-32.761503
-39.681089
-47.283738
-55.596903
-64.636966
-74.409347
-84.908532
-96.118405
-108.0125
-120.55453
-133.69885
-147.39114
-161.56917
-176.16363
-191.09918
-206.29562
-221.66917
-237.13399
-252.60381
-267.99375
-283.22234
-298.21353
-312.89909
-327.22071
-341.1326
-354.6036
-367.61952
-380.18529
-392.3269
-404.09219
-415.55409
-426.80877
-437.97489
-449.20137
-460.66573
-472.56202
-485.09371
-498.47919
-512.94596
-528.72551
-546.04865
-565.13931
-586.20795
-609.4451
-635.01468
-663.04726
-693.63367
-726.81889
-762.5965
-800.90265
-841.61547
-884.54472
-929.43675
-975.9684
-1023.7474
-1072.318
-1121.1572
-1169.6813
-1217.2523
-1263.1852
-1306.7573
-1347.2197
-1383.8097
-1415.7664
-1442.3443
-1462.8333
-1476.5731
-1482.9672
-1481.5015
-1471.7723
-1453.5048
-1426.5442
-1390.8557
-1346.5392
-1293.8292
-1233.0911
-1164.8129
-1089.5934
-1008.1267
-921.18384
-829.59211
-734.21377
-635.92458
-535.59326
-434.06294
-332.13506
-230.5563
-130.00863
-31.102639
65.626127
159.71814
250.78846
338.52349
422.67624
503.06065
579.54524
652.04644
720.52197
784.96431
845.39458
901.85685
954.41295
1003.1377
1048.115
1089.4337
1127.1849
1161.459
1192.3432
1219.9198
1244.2628
1265.4354
1283.4936
1298.5025
1310.5131
1319.5446
1325.3052
1327.649
2.2513836
-1.7312804
-5.2041461
-9.0680768
-13.357508
-18.159312
-23.546107
-29.580653
-36.314634
-43.788219
-52.029741
-61.055467
-70.869801
-81.465332
-92.823226
-104.91352
-117.69568
-131.11911
-145.12387
-159.64146
-174.59569
-189.90378
-205.47756
-221.2248
-237.05081
-252.86019
-268.55869
-284.0554
-299.26493
-314.1099
-328.52336
-342.45152
-355.85611
-368.71704
-381.03477
-392.83255
-404.15726
-415.08376
-425.71176
-436.16655
-446.60787
-457.22734
-468.23523
-479.85234
-492.3182
-505.88365
-520.80557
-537.34195
-555.74499
-576.25408
-599.08865
-624.44082
-652.468
-683.28579
-716.96123
-753.50652
-792.87217
-834.94647
-879.54342
-926.40846
-975.21078
-1025.543
-1076.929
-1128.8176
-1180.5904
-1231.5674
-1281.0154
-1328.1575
-1372.1851
-1412.272
-1447.5905
-1477.3277
-1500.7051
-1516.9989
-1525.5513
-1525.7918
-1517.2657
-1499.6666
-1472.8196
-1436.6797
-1391.3494
-1337.08
-1274.2668
-1203.4407
-1125.2551
-1040.4678
-949.92073
-854.51631
-755.19334
-652.90269
-548.58415
-443.14575
-337.44601
-232.27964
-128.3671
-26.347793
73.22325
169.87565
263.22135
352.95027
438.82447
520.67128
598.37593
671.87385
741.14319
806.19753
867.07916
923.85288
976.60041
1025.4155
1070.3993
1111.6572
1149.2948
1183.4158
1214.1194
1241.4987
1265.6372
1286.6068
1304.4713
1319.303
1331.1592
1340.0681
1345.7462
1348.0565
2.945296
-0.58141343
-3.557088
-6.9607938
-10.830353
-15.260004
-20.328036
-26.10111
-32.633982
-39.96886
-48.134951
-57.148326
-67.01224
-77.717178
-89.24133
-101.55092
-114.60082
-128.33507
-142.68768
-157.58336
-172.9385
-188.66227
-204.65785
-220.82383
-237.05589
-253.2486
-269.29744
-285.10108
-300.56372
-315.59782
-330.12667
-344.08741
-357.43363
-370.13832
-382.19657
-393.62812
-404.47829
-414.82344
-424.76655
-434.43983
-444.01455
-453.69755
-463.71609
-474.31001
-485.74197
-498.28848
-512.23437
-527.86775
-545.47224
-565.3194
-587.66092
-612.72054
-640.6858
-671.70032
-705.85615
-743.18683
-783.65959
-827.17484
-873.55224
-922.53732
-973.79183
-1026.8927
-1081.3419
-1136.5586
-1191.8866
-1246.6005
-1299.9144
-1350.9914
-1398.9574
-1442.9155
-1481.9636
-1515.213
-1541.8089
-1560.9551
-1571.9253
-1574.0847
-1566.9209
-1550.0886
-1523.3897
-1486.7682
-1440.3292
-1384.3419
-1319.2351
-1245.5885
-1164.1168
-1075.6506
-981.11232
-881.48998
-777.80928
-671.10605
-562.40026
-452.67264
-342.84515
-233.76536
-126.19549
-20.805526
81.829523
181.22909
277.00354
368.84854
456.5379
539.91536
618.88596
693.40727
763.48087
829.14431
890.46368
947.52692
1000.4378
1049.3107
1094.2662
1135.4271
1172.9149
1206.8479
1237.338
1264.4897
1288.3969
1309.1405
1326.7926
1341.4327
1353.1241
1361.9036
1367.4954
1369.7708
3.7058287
0.68091091
-1.7492564
-4.6486538
-8.0588128
-12.082065
-16.802999
-22.292424
-28.608309
-35.794986
-43.882494
-52.886617
-62.809276
-73.638616
-85.349564
-97.9042
-111.25242
-125.33251
-140.07193
-155.3881
-171.18943
-187.37638
-203.84278
-220.47729
-237.16511
-253.78987
-270.23577
-286.39
-302.14525
-317.40264
-332.07451
-346.08773
-359.38656
-371.93597
-383.72461
-394.76782
-405.10861
-414.82433
-424.02067
-432.83711
-441.45778
-450.10543
-459.02423
-468.47568
-478.74757
-490.14454
-502.98218
-517.58185
-534.26197
-553.32987
-575.07325
-599.75115
-627.58501
-658.74996
-693.36643
-731.49237
-773.11438
-818.14729
-866.41811
-917.67374
-971.56888
-1027.6641
-1085.4385
-1144.2796
-1203.4906
-1262.2971
-1319.8553
-1375.263
-1427.5735
-1475.8116
-1518.9923
-1556.1425
-1586.3213
-1608.6506
-1622.3266
-1626.6432
-1621.0236
-1605.0719
-1578.5623
-1541.4299
-1493.7808
-1435.9034
-1368.2644
-1291.4978
-1206.3885
-1113.8494
-1014.895
-910.61045
-802.12022
-690.55647
-577.02947
-462.60142
-348.26467
-234.92483
-123.38917
-14.359956
91.567732
193.90422
292.26039
386.34046
475.93326
560.90246
641.17654
716.73876
787.61754
853.87755
915.61157
972.93325
1025.9707
1074.861
1119.7457
1160.7665
1198.0623
1231.7666
1262.0053
1288.8948
1312.5397
1333.0308
1350.4482
1364.8792
1376.3927
1385.0338
1390.5337
1392.7719
4.5331913
2.0594437
0.22739339
-2.119608
-5.0273106
-8.6069129
-12.950045
-18.131927
-24.213873
-31.242381
-39.248268
-48.246878
-58.238602
-69.208983
-81.129374
-93.957364
-107.63749
-122.10182
-137.27079
-153.05403
-169.35133
-186.05382
-203.04526
-220.20356
-237.40252
-254.51388
-271.4095
-287.96394
-304.05716
-319.57767
-334.42552
-348.51598
-361.78267
-374.18119
-385.69262
-396.32672
-406.12344
-415.1602
-423.54492
-431.42482
-438.99848
-446.50307
-454.20105
-462.37895
-471.35141
-481.4537
-493.03524
-506.45407
-522.06715
-540.22153
-561.245
-585.43607
-613.05413
-644.30983
-679.35566
-718.27744
-761.08418
-807.70772
-857.98443
-911.66419
-968.39524
-1027.7212
-1089.0976
-1151.8781
-1215.3228
-1278.604
-1340.8155
-1400.9833
-1458.0808
-1511.0461
-1558.8023
-1600.2813
-1634.4464
-1660.3262
-1677.0292
-1683.7697
-1679.8978
-1664.9569
-1638.6878
-1601.0163
-1552.0483
-1492.0933
-1421.6599
-1341.4437
-1252.3087
-1155.262
-1051.4226
-941.9866
-828.19086
-711.27665
-592.4561
-472.88259
-353.62653
-235.65707
-119.82989
-6.8808825
102.57503
208.04075
309.13042
405.56027
497.13809
583.75165
665.35704
741.96723
813.64131
880.47456
942.58959
1000.1285
1053.2463
1102.1047
1146.868
1187.6983
1224.7532
1258.1823
1288.1262
1314.714
1338.0617
1358.2698
1375.4272
1389.6285
1400.9482
1409.4395
1414.8404
1417.0387
5.4360483
3.5680567
2.3914918
0.64910307
-1.7096074
-4.8054902
-8.738007
-13.587098
-19.417588
-26.27804
-34.199929
-43.19797
-53.270786
-64.401018
-76.556106
-89.688773
-103.73778
-118.62854
-134.27398
-150.57536
-167.42329
-184.69886
-202.27502
-220.01807
-237.78952
-255.44815
-272.85235
-289.86283
-306.34551
-322.17484
-337.23719
-351.43471
-364.68885
-376.94445
-388.1736
-398.37919
-407.59714
-415.90399
-423.40944
-430.2684
-436.69339
-442.93754
-449.28409
-456.04509
-463.56464
-472.21146
-482.37219
-494.44524
-508.83021
-525.91826
-546.08175
-569.66324
-596.96463
-628.23644
-663.66744
-703.37513
-747.39438
-795.67705
-848.0712
-904.33165
-964.10101
-1026.9056
-1092.1765
-1159.2319
-1227.2858
-1295.4536
-1362.7609
-1428.1556
-1490.523
-1548.7056
-1601.5241
-1647.8047
-1686.4033
-1716.2426
-1736.3332
-1745.7985
-1743.9031
-1730.1205
-1704.1556
-1665.9188
-1615.5155
-1553.2781
-1479.7619
-1395.7317
-1302.1417
-1200.1059
-1090.8628
-975.73525
-856.08789
-733.28596
-608.65647
-483.4549
-358.83813
-235.84462
-115.38183
1.7796458
115.00592
223.79486
327.76733
426.6559
520.29201
608.59239
691.54553
769.19874
841.64598
909.01702
971.4677
1029.1716
1082.313
1131.0806
1175.6631
1216.2447
1253.0025
1286.1037
1315.7038
1341.9456
1364.9566
1384.8475
1401.7161
1415.6642
1426.7718
1435.0998
1440.3934
1442.5483
6.4171506
5.2141807
4.7556322
3.6748041
1.9156678
-0.65302607
-4.1392873
-8.6285237
-14.189167
-20.87142
-28.70732
-37.710724
-47.878208
-59.189172
-71.606775
-85.078481
-99.536847
-114.90017
-131.07337
-147.94878
-165.40721
-183.31902
-201.54558
-219.9407
-238.35262
-256.62608
-274.60477
-292.13426
-309.06495
-325.25576
-340.57772
-354.91821
-368.18487
-380.31008
-391.25538
-401.01523
-409.62038
-417.14531
-423.70083
-429.44915
-434.6167
-439.47431
-444.32708
-449.51428
-455.4119
-462.42508
-470.98147
-481.52392
-494.49917
-510.34725
-529.49011
-552.31942
-579.18459
-610.38091
-646.13808
-686.60957
-731.85998
-781.8646
-836.48594
-895.48612
-958.50326
-1025.0462
-1094.5207
-1166.2082
-1239.2738
-1312.7716
-1385.6538
-1456.7829
-1524.9482
-1588.8857
-1647.3032
-1698.908
-1742.4363
-1776.691
-1800.5721
-1813.1004
-1813.4433
-1800.9894
-1775.4044
-1736.5782
-1684.6146
-1619.8708
-1542.9534
-1454.7057
-1356.1838
-1248.6241
-1133.4015
-1011.9838
-885.88159
-756.60093
-625.59863
-494.24445
-363.79094
-235.35204
-109.89011
11.7889
129.03372
241.34042
348.34107
449.78978
545.54725
635.56485
719.86901
798.54651
871.73095
939.59078
1002.3188
1060.1232
1113.2201
1161.8277
1206.1606
1246.4268
1282.824
1315.5377
1344.7393
1370.5856
1393.216
1412.7516
1429.2991
1442.9676
1453.8424
1461.9919
1467.1684
1469.2761
7.4839492
7.0111248
7.3388431