/*--------------------------------*- C++ -*----------------------------------*\
| =========                 |                                                 |
| \\      /  F ield         | foam-extend: Open Source CFD                    |
|  \\    /   O peration     | Version:     4.1                                |
|   \\  /    A nd           | Web:         http://www.foam-extend.org         |
|    \\/     M anipulation  |                                                 |
\*---------------------------------------------------------------------------*/
FoamFile
{
    version     2.0;
    format      ascii;
    class       volScalarField;
    location    "0.4";
    object      p;
}
// * * * * * * * * * * * * * * * * * * * * * * * * * * * * * * * * * * * * * //

dimensions      [0 2 -2 0 0 0 0];

internalField   nonuniform List<scalar> 
16796
(
-5.4432999
43.672085
72.991032
106.41438
137.55953
168.42388
198.46174
227.79172
256.30671
283.94693
310.64641
336.31943
360.7575
383.79337
405.35653
425.34279
443.65196
460.19849
474.91152
487.73682
498.63774
507.5953
514.60788
519.69072
522.87484
524.20642
523.74573
521.56726
517.771
512.50768
505.79725
497.55466
487.84047
476.75939
464.37302
450.74428
435.93506
420.00631
403.02002
385.03956
366.13127
346.36527
325.8163
304.56493
282.69775
260.30787
237.49478
214.36419
191.02741
167.6005
144.20335
120.95859
97.990441
75.42371
53.382921
31.991578
11.371858
-8.3554529
-27.070689
-44.654639
-60.987633
-75.948492
-89.413295
-101.25425
-111.33869
-119.52849
-125.67954
-129.6415
-131.25888
-130.36721
-126.79223
-120.43217
-111.17431
-98.85215
-83.340824
-64.538154
-42.367652
-16.782381
12.232316
44.656247
80.43267
119.46749
161.62945
206.75138
254.63236
305.04077
357.71822
412.38391
468.73957
526.47463
585.2714
644.8102
704.77423
764.85403
824.75148
884.18321
942.88341
1000.606
1057.1263
1112.2419
1165.773
1217.5626
1267.4759
1315.3997
1361.2409
1404.9254
1446.3969
1485.6151
1522.5541
1557.2017
1589.5587
1619.6283
1647.4247
1672.9784
1696.3244
1717.5067
1736.5796
1753.6068
1768.6748
1781.9786
1793.6986
1803.2542
1812.6995
1835.3141
-0.76493819
43.980576
73.790541
106.83557
137.99806
168.8405
198.8956
228.2434
256.77652
284.40557
310.99962
336.46439
360.77289
383.82816
405.45966
425.53637
443.94933
460.60618
475.43239
488.37138
499.38473
508.45197
515.56993
520.75191
524.0261
525.43403
525.02801
522.86823
519.0136
513.50732
506.48336
498.09123
488.33662
477.22389
464.8107
451.15502
436.31728
420.35851
403.34073
385.32739
366.38487
346.5833
325.99753
304.70822
282.80211
260.37253
237.51919
214.34806
190.97068
167.50334
144.06614
120.78182
97.774627
75.169322
53.090247
31.660616
11.002194
-8.7647558
-27.521173
-45.148519
-61.527826
-76.538598
-90.057551
-101.95745
-112.10614
-120.36592
-126.5933
-130.63954
-132.35652
-131.59444
-128.20363
-121.99602
-112.81014
-100.53771
-85.061831
-66.282119
-44.122061
-18.533471
10.499534
42.957773
78.78512
117.88762
160.13368
205.35529
253.35022
303.88521
356.69981
411.51098
468.01801
525.90783
584.86027
644.55326
704.66778
764.89236
824.92715
884.48731
943.30592
1001.1361
1057.7525
1112.9526
1166.5565
1218.4076
1268.3713
1316.3349
1362.206
1405.9112
1447.3947
1486.6168
1523.5518
1558.1868
1590.5193
1620.5625
1648.3359
1673.8616
1697.1719
1718.3071
1737.316
1754.2537
1769.1922
1782.2646
1793.5481
1802.8311
1811.3901
1821.3814
4.9079303
44.072379
73.823261
106.29276
137.34613
168.14164
198.2373
227.6678
256.30849
284.08339
310.90242
336.65514
361.21768
384.45346
406.22925
426.43466
444.96876
461.74307
476.68471
489.73751
500.86277
510.03967
517.26474
522.55127
525.92784
527.43712
527.13379
525.08308
521.35393
516.00365
509.09227
500.6825
490.83224
479.60253
467.05221
453.24189
438.23333
422.08862
404.87132
386.64687
367.48401
347.45552
326.63899
305.11792
282.98182
260.32667
237.25469
213.87405
190.29824
166.64511
143.03593
119.59417
96.444369
73.71109
51.518015
29.987253
9.2390519
-10.608196
-29.437569
-47.132841
-63.577411
-78.653057
-92.238525
-104.20822
-114.43101
-122.76945
-129.08022
-133.21614
-135.02018
-134.33245
-131.00206
-124.87384
-115.79645
-103.63026
-88.246976
-69.540133
-47.428366
-21.859815
7.184252
39.686652
75.592363
114.80759
157.19997
202.59978
250.80226
301.57086
354.64124
409.726
466.5198
524.7048
583.95609
643.94703
704.35436
764.86279
825.1691
884.98569
944.04339
1002.0937
1058.9102
1114.2897
1168.0525
1220.042
1270.1246
1318.1887
1364.1429
1407.9156
1449.4524
1488.7155
1525.6811
1560.3383
1592.6866
1622.7363
1650.5072
1676.0266
1699.3286
1720.4548
1739.4541
1756.3821
1771.3111
1784.3406
1795.5012
1804.858
1813.2494
1819.0398
8.1439391
44.728804
74.615258
106.76359
137.79547
168.60215
198.76427
228.279
257.02174
284.90385
311.81555
337.64627
362.28953
385.62876
407.53584
427.88992
446.58194
463.51713
478.61737
491.82225
503.0896
512.39557
519.73385
525.11486
528.56394
530.11977
529.83195
527.75926
523.9661
518.52056
511.50053
502.98775
493.04242
481.71179
469.05091
455.11859
439.9754
423.68343
406.30687
387.91231
368.57001
348.35455
327.34561
305.62886
283.29611
260.44557
237.18162
213.61438
189.859
166.03465
142.26349
118.66944
95.376933
72.509925
50.190953
28.540475
7.6766251
-12.2847
-31.22936
-49.044069
-65.615182
-80.827277
-94.561585
-106.69448
-117.0961
-125.6297
-132.1543
-136.52195
-138.57092
-138.13776
-135.05715
-129.16046
-120.28928
-108.30135
-93.066757
-74.474646
-52.438974
-26.903282
2.1550695
34.72176
70.743368
110.12631
152.73698
198.40306
246.91591
298.03391
351.4868
406.98053
464.20266
522.82808
582.52467
642.95885
703.80091
764.7297
825.43695
885.6308
945.0387
1003.4096
1060.5155
1116.1522
1170.1398
1222.3222
1272.5668
1320.7631
1366.8217
1410.6725
1452.2633
1491.5581
1528.5351
1563.1854
1595.5109
1625.5235
1653.2428
1678.6947
1701.9114
1722.9308
1741.7954
1758.5516
1773.2564
1785.9687
1796.6871
1805.5311
1812.9192
1816.938
9.3838624
44.798791
74.687913
106.62662
137.6482
168.49358
198.75321
228.41236
257.34502
285.44954
312.61031
338.7081
363.61869
387.21274
409.36037
429.94184
448.84949
465.98904
481.28204
494.66729
506.10162
515.56019
523.03589
528.53857
532.09314
533.73802
533.52232
531.50337
527.74237
522.30164
515.24581
506.64512
496.56468
485.06426
472.20558
458.05107
442.66413
426.10926
408.45312
389.76498
370.11802
349.58997
328.26376
306.22844
283.57913
260.41728
236.85027
212.99095
188.9568
164.86887
140.85061
117.02664
93.521429
70.45827
47.958329
26.140015
5.1187876
-14.992669
-34.083829
-52.045255
-68.767186
-84.137888
-98.041826
-110.35781
-120.95742
-129.70529
-136.46192
-141.07427
-143.37839
-143.20805
-140.39386
-134.76441
-126.15318
-114.40453
-99.376851
-80.949355
-59.027332
-33.547045
-4.4800924
28.16329
64.331924
103.93253
146.82989
192.84814
241.77339
293.35727
347.32148
403.36303
461.15998
520.37744
580.6736
641.7056
703.13505
764.63306
825.88456
886.59204
946.47848
1005.2895
1062.795
1118.7896
1173.0933
1225.5507
1276.0306
1324.4245
1370.6455
1414.6264
1456.3179
1495.687
1532.7152
1567.3963
1599.7348
1629.745
1657.449
1682.8747
1706.0553
1727.0281
1745.8325
1762.5092
1777.1015
1789.6378
1800.0984
1808.5724
1815.0963
1817.9003
10.035262
45.288456
75.282798
107.20446
138.29117
169.22725
199.61512
229.43153
258.53966
286.83259
314.19077
340.49279
365.61372
389.42563
411.79957
432.61241
451.75127
469.11642
484.62412
498.20838
509.82179
519.43589
527.04044
532.64261
536.26502
537.94415
537.72769
535.67251
531.84146
526.30133
519.12133
510.37523
500.13144
488.45047
475.39329
461.02236
445.40146
428.59594
410.67382
391.70612
371.76811
350.93995
329.30726
306.96193
284.00202
260.53192
236.66182
212.50718
188.18777
163.82645
139.54799
115.47764
91.739846
68.457045
45.748774
23.731015
2.5160495
-17.787262
-37.07272
-55.235519
-72.170584
-87.770657
-101.92413
-114.51269
-125.40953
-134.48184
-141.58938
-146.57349
-149.265
-149.4888
-147.06467
-141.81094
-133.5509
-122.11831
-107.3614
-89.149043
-67.376741
-41.97208
-12.899566
19.835654
56.185209
96.056181
139.31121
185.76991
235.21162
287.37928
341.9843
398.71224
457.22896
517.18709
578.23246
640.01036
702.17142
764.37685
826.303
887.64522
948.12084
1007.4714
1065.4638
1121.8916
1176.5745
1229.3579
1280.1123
1328.7318
1375.1324
1419.2502
1461.0397
1500.4716
1537.531
1572.2152
1604.5322
1634.4986
1662.1385
1687.4811
1710.5603
1731.4128
1750.0762
1766.5882
1780.9855
1793.2847
1803.4722
1811.6313
1817.6644
1820.0637
9.7762029
45.285501
75.321354
107.31427
138.50166
169.57398
200.1433
230.17982
259.5423
288.11915
315.78426
342.40885
367.85961
392.00124
414.6997
435.82767
455.26865
472.91966
488.69387
502.52238
514.35519
524.16159
531.92949
537.66457
541.38822
543.13578
542.95363
540.89701
537.02676
531.40736
524.10539
515.19412
504.74505
492.82347
479.49443
464.82397
448.87902
431.72788
413.44157
394.09419
373.76428
352.53544
330.49683
307.74402
284.37874
260.50898
236.24841
211.71566
187.03327
162.32639
137.72143
113.34453
89.320156
65.769861
42.811308
20.55762
-0.88270844
-21.405431
-40.909621
-59.296162
-76.465795
-92.316872
-106.74281
-119.62914
-130.85157
-140.28052
-147.77468
-153.17156
-156.29741
-156.96972
-154.99845
-150.19047
-142.35525
-131.31109
-116.89098
-98.94933
-77.368512
-52.064758
-22.993469
9.8466904
46.410923
86.606813
130.29441
177.28774
227.35781
280.23683
335.62355
393.18942
452.5853
513.44847
575.40964
638.09958
701.15551
764.22659
826.9788
889.09886
950.29732
1010.3108
1068.9031
1125.8661
1181.0195
1234.21
1285.3104
1334.2179
1380.8523
1425.154
1467.0821
1506.6118
1543.7328
1578.447
1610.7663
1640.7111
1668.3082
1693.5892
1716.5887
1737.3425
1755.8855
1772.2501
1786.4631
1798.5281
1808.4266
1816.2193
1821.7585
1823.8105
9.4892715
45.59222
75.738162
107.91283
139.25989
170.51775
201.29618
231.5668
261.18664
290.04178
318.0029
344.93779
370.70936
395.1785
418.20724
439.6632
459.42396
477.38038
493.43961
507.52723
519.58835
529.5882
537.51146
543.36136
547.15767
548.93488
548.73929
546.62688
542.66016
536.9059
529.433
520.31772
509.63505
497.45244
483.83631
468.85419
452.57464
435.06783
416.40692
396.66851
375.93395
354.28994
331.82901
308.65028
284.85916
260.56735
235.8921
210.95544
185.88293
160.80221
135.84152
111.12803
86.786249
62.936735
39.695014
17.170922
-4.5314521
-25.313264
-45.079789
-63.738639
-81.197443
-97.361202
-112.12926
-125.39167
-137.02691
-146.90835
-154.89298
-160.81232
-164.48507
-165.71818
-164.3088
-160.04947
-152.73393
-142.16375
-128.15499
-110.54557
-89.202522
-64.028643
-34.968457
-2.0128403
34.79771
75.371381
119.56507
167.18605
217.99522
271.71183
328.01933
386.57212
447.003
508.93081
571.96805
635.72818
699.83235
763.91543
827.63107
890.65583
952.69237
1013.4715
1072.7536
1130.3288
1186.0168
1239.6661
1291.1522
1340.3762
1387.2626
1431.7571
1473.824
1513.4444
1550.6135
1585.3386
1617.6366
1647.5325
1675.0573
1700.2459
1723.1357
1743.7644
1762.1678
1778.3781
1792.4199
1804.2948
1813.9872
1821.546
1826.812
1828.7257
8.7050866
45.540884
75.756122
108.16365
139.70674
171.19695
202.23569
232.80092
262.74795
291.96034
320.304
347.64068
373.82627
398.71443
422.16018
444.02429
464.17773
482.50515
498.908
513.30677
525.6422
535.87594
543.98982
549.985
553.87975
555.70755
555.51406
553.35489
549.29246
543.39377
535.7283
526.37462
515.41174
502.91095
488.94204
473.57602
456.8848
438.94183
419.82362
399.61022
378.38664
356.24339
333.27703
309.59083
285.29448
260.50392
235.34057
209.93036
184.40238
158.88724
133.51537
108.41524
83.711551
59.523819
35.965193
13.141746
-8.8475444
-29.910187
-49.958833
-68.909175
-86.677225
-103.17619
-118.31289
-131.9834
-144.0703
-154.45086
-162.9813
-169.48754
-173.78076
-175.65652
-174.89739
-171.27862
-164.57452
-154.56581
-141.04749
-123.8371
-102.7829
-77.771328
-48.733708
-15.651484
21.440078
62.449946
107.23131
155.5834
207.25514
261.95033
319.33422
379.04102
440.68209
503.85446
568.14915
633.15921
698.487
763.75066
828.58952
892.66842
955.68092
1017.3514
1077.4363
1135.724
1192.0346
1246.2186
1298.1551
1347.7498
1394.9329
1439.6559
1481.8898
1521.6221
1558.8545
1593.6003
1625.8823
1655.7307
1683.1806
1708.2706
1731.0407
1751.5298
1769.7742
1785.8055
1799.6465
1811.2987
1820.7516
1828.0532
1833.0614
1834.8507
7.963263
45.706267
76.033158
108.73863
140.51986
172.27791
203.60232
234.48135
264.77052
294.3531
323.09219
350.84524
377.46257
402.79125
426.67912
448.9791
469.554
488.28038
505.05204
519.78257
532.40684
542.88172
551.1855
557.31691
561.29294
563.14677
562.92461
560.68342
556.48759
550.40646
542.51199
532.8865
521.61334
508.76679
494.41884
478.64299
461.51368
443.107
423.50239
402.7831
381.03761
358.36027
334.85174
310.61968
285.77831
260.44821
234.75537
208.83011
182.80552
156.8156
130.9934
105.46898
80.367381
55.807063
31.898559
8.7437047
-13.564366
-34.940491
-55.305896
-74.585726
-92.705836
-109.58908
-125.15108
-139.29504
-151.90856
-162.87304
-172.043
-179.23759
-184.25871
-186.8884
-186.89221
-184.02546
-178.04013
-168.69312
-155.75515
-139.02013
-118.31433
-93.504985
-64.507857
-31.293235
6.1098195
47.611221
93.059799
142.24533
194.90258
250.7172
309.333
370.36045
433.38579
497.98053
563.71064
630.14543
696.86549
763.4697
829.58101
894.85091
958.96279
1021.6339
1082.6165
1141.6973
1198.6973
1253.4696
1305.898
1355.8937
1403.3935
1448.3565
1490.7611
1530.6029
1567.891
1602.6464
1634.8988
1664.6849
1692.0458
1717.0251
1739.667
1760.0141
1778.1051
1793.9731
1807.6422
1819.1156
1828.3866
1835.5037
1840.3422
1842.0638
6.8745705
45.609749
76.014318
109.04887
141.09639
173.16164
204.81695
236.06311
266.75552
296.77679
325.98611
354.2351
381.36651
407.21873
431.63028
454.44448
475.51458
494.70805
511.91034
527.02769
539.9888
550.74563
559.27281
565.56666
569.6428
571.53396
571.28669
568.95891
564.6165
558.3307
550.17572
540.23778
528.60558
515.35768
500.56941
484.31797
466.68138
447.73931
427.57486
406.27511
383.93264
360.64615
336.52088
311.6694
286.21098
260.27141
233.98186
207.47764
180.89644
154.37628
128.05334
102.05965
76.52089
51.554492
27.268163
3.7589939
-18.886558
-40.591823
-61.288085
-80.911711
-99.400375
-116.68867
-132.70305
-147.35586
-160.54209
-172.14817
-182.02713
-189.99188
-195.83423
-199.32083
-200.19754
-198.19618
-193.04232
-184.46461
-172.20498
-156.0293
-135.73783
-111.17507
-82.238354
-48.884767
-11.136
30.919045
77.124141
127.258
181.03886
238.13111
298.15355
360.68895
425.2943
491.51145
558.87742
626.93408
695.23706
763.36322
830.91685
897.53449
962.88815
1026.6874
1088.6798
1148.6509
1206.4228
1261.8523
1314.8281
1365.2685
1413.1179
1458.3438
1500.9334
1540.8911
1578.2347
1612.9936
1645.2053
1674.9135
1702.1657
1727.0113
1749.4993
1769.6761
1787.5842
1803.2595
1816.7293
1828.0016
1837.0765
1844.0081
1848.6918
1850.3521
5.7830428
45.64392
76.144157
109.54696
141.88635
174.28363
206.29134
237.92586
269.04378
299.52857
329.23655
358.01402
385.69619
412.11225
437.09031
460.46262
482.07121
501.77261
519.44224
534.97744
548.29952
559.35469
568.11348
574.56972
578.73799
580.65132
580.35755
577.91679
573.39772
566.87475
558.42543
548.14083
536.11538
522.43155
507.16747
490.40354
472.22097
452.70268
431.93528
410.00966
387.02254
363.07712
338.28359
312.75976
286.6305
260.02736
233.08734
205.95144
178.76269
151.66381
124.79473
98.290029
72.276332
46.870179
22.176297
-1.7134571
-24.720141
-46.776783
-67.826275
-87.818037
-106.70361
-124.43141
-140.94069
-156.15469
-169.97875
-182.30386
-192.98086
-201.81716
-208.59279
-213.05699
-214.93313
-213.92616
-209.73131
-202.04467
-190.57485
-175.0551
-155.25542
-130.99372
-102.14578
-68.653194
-30.528989
12.139378
59.189822
110.38819
165.43349
223.96535
285.57353
349.80864
416.19387
484.23683
553.4412
623.31753
693.39296
763.21942
832.38034
900.49557
967.22476
1032.2691
1095.3719
1156.3177
1214.9304
1271.0715
1324.6363
1375.5511
1423.7695
1469.2689
1512.0469
1552.1181
1589.5106
1624.2632
1656.4227
1686.0412
1713.1739
1737.8769
1760.2049
1780.2097
1797.9379
1813.4294
1826.7148
1837.8069
1846.7118
1853.4889
1858.0502
1859.666
4.4015919
45.470658
76.02988
109.81881
142.46699
175.2251
207.62126
239.68894
271.28578
302.29579
332.57151
361.95264
390.26518
417.32714
442.95419
466.96548
489.18997
509.47168
527.6746
543.68618
557.41957
568.8147
577.83773
584.47991
588.75481
590.69583
590.3523
587.78667
583.07061
576.28193
567.50183
556.82675
544.35806
530.18334
514.38429
497.04527
478.25136
458.08927
436.64962
414.02749
390.32412
365.64767
340.11363
313.84561
286.97462
259.63863
231.98121
204.14984
176.29372
148.5611
121.09646
94.037554
67.512446
41.636997
16.512837
-7.7739154
-31.152786
-53.567919
-74.975689
-95.34087
-114.6315
-132.81267
-149.83929
-165.64837
-180.1575
-193.26454
-204.81951
-214.62332
-222.44335
-228.00912
-231.01825
-231.14459
-228.04815
-221.3871
-210.83116
-196.07556
-176.85487
-152.95592
-124.22928
-90.598397
-52.066083
-8.7180439
39.276879
91.669622
148.13683
208.28949
271.68364
337.83275
406.22095
476.31653
547.58494
619.50098
691.55946
763.28426
834.23543
904.0144
972.26733
1038.6867
1103.0113
1165.0252
1224.5554
1281.4686
1335.6683
1387.09
1435.6981
1481.4814
1524.449
1564.6272
1602.0554
1636.7834
1668.8679
1698.3707
1725.3553
1749.8857
1772.0235
1791.8266
1809.3471
1824.6301
1837.7117
1848.6103
1857.3393
1863.9641
1868.4109
1869.9851
2.9475671
45.346716
75.957941
110.15297
143.11977
176.25259
209.05269
241.57364
273.6753
305.24321
336.12653
366.15811
395.15385
422.91921
449.25559
473.96699
496.86707
517.78525
536.5722
553.10383
567.28392
579.04535
588.34954
595.18521
599.56536
601.52449
601.11432
598.40075
593.4595
586.37286
577.22652
566.12324
553.17189
538.46511
522.08778
504.12805
484.67462
463.8179
441.65242
418.27754
393.79918
368.33071
341.99337
314.91705
287.23955
259.10603
230.66748
202.07884
173.49646
145.07514
116.96487
89.307445
62.233001
35.857094
10.278261
-14.423557
-38.18729
-60.969662
-82.742522
-103.48847
-123.19487
-141.84659
-159.41727
-175.86046
-191.10884
-205.06924
-217.59133
-228.46953
-237.45734
-244.26233
-248.55298
-249.96766
-248.12592
-242.64221
-233.14128
-219.27423
-200.73447
-177.27266
-148.70998
-114.94867
-75.979588
-31.886319
17.154524
70.876615
128.93074
190.89468
256.28555
324.574
395.19922
467.5844
541.15144
615.3345
689.59197
763.41628
836.34163
907.94932
977.8711
1045.7904
1111.4422
1174.6106
1235.1267
1292.8646
1347.7369
1399.6907
1448.7027
1494.7748
1537.9297
1578.2067
1615.6582
1650.3461
1682.3387
1711.7082
1738.5279
1762.87
1784.8041
1804.3947
1821.7
1836.7708
1849.6483
1860.3572
1868.9173
1875.3998
1879.7428
1881.2803
1.216323
45.034753
75.649878
110.25488
143.54271
177.06563
210.29394
243.30334
275.95604
308.13898
339.69709
370.45496
400.21651
428.77237
455.90721
481.40729
505.06858
526.70365
546.14792
563.26428
577.94602
590.11826
599.73734
606.78946
611.28724
613.26671
612.78251
609.90455
604.71327
597.29597
587.74349
576.16564
562.68023
547.38594
530.37142
511.72907
491.55161
469.93343
446.97325
422.77489
397.44927
371.11525
343.90023
315.94092
287.38257
258.37835
229.08759
199.67375
170.30152
141.1334
112.32607
84.026372
56.36737
29.464829
3.4142862
-21.710922
-45.860161
-69.004426
-91.133399
-112.25047
-132.36588
-151.4881
-169.61337
-186.71562
-202.74703
-217.62539
-231.20086
-243.26216
-253.54742
-261.7396
-267.47406
-270.3485
-269.93581
-265.79993
-257.51347
-244.67628
-226.93395
-203.99504
-175.64647
-141.76574
-102.32974
-57.419482
-7.2205339
47.980822
107.80544
171.7927
239.41481
310.09298
383.21485
458.15198
534.27657
610.97676
687.6699
763.81334
838.91267
912.52732
984.27369
1053.8261
1120.9158
1185.3284
1246.9004
1305.5146
1361.095
1413.6018
1463.0261
1509.3847
1552.7155
1593.0727
1630.5232
1665.1424
1697.0115
1726.2143
1752.8347
1776.9549
1798.6529
1818.001
1835.0645
1849.9007
1862.5569
1873.0644
1881.4492
1887.7882
1892.0289
1893.5305
-0.66242538
44.692182
75.275997
110.29125
143.89193
177.80522
211.46804
244.98157
278.21174
311.04766
343.32991
374.87392
405.46999
434.89165
462.90417
489.27321
513.7741
536.19986
556.36831
574.12737
589.35845
601.97809
611.93724
619.21972
623.8384
625.83166
625.25816
622.19299
616.72246
608.93999
598.94242
586.84775
572.78351
556.85461
539.15314
519.77562
498.81866
476.38049
452.56397
427.47748
401.23703
373.96731
345.80229
316.88611
287.37223
257.42274
227.20647
196.89662
166.66758
136.69102
107.13169
78.142827
49.861515
22.404492
-4.1354003
-29.691715
-54.22523
-77.722957
-100.19493
-121.66863
-142.18106
-161.76867
-180.45485
-198.23827
-215.0946
-230.95619
-245.67545
-259.03542
-270.75806
-280.49903
-287.85632
-292.38123
-293.59314
-290.99772
-284.10732
-272.46241
-255.65304
-233.33888
-205.26694
-171.28593
-131.35638
-85.556235
-34.081327
22.758986
84.550942
150.78958
220.89522
294.23227
370.12915
447.89841
526.85577
606.33737
685.71451
764.40561
841.88489
917.6882
991.41592
1062.7334
1131.3691
1197.1115
1259.8043
1319.3411
1375.6595
1428.7352
1478.5758
1525.2153
1568.7087
1609.1269
1646.5529
1681.0774
1712.7953
1741.8035
1768.1975
1792.0699
1813.5079
1832.5924
1849.3961
1863.9829
1876.4069
1886.7057
1894.9117
1901.1064
1905.2459
1906.7122
-2.8348595
44.15066
74.634132
110.04453
143.94049
178.24182
212.34842
246.38975
280.23617
313.77899
346.85351
379.26432
410.78565
441.171
470.16294
497.50308
522.9429
546.25279
567.23042
585.70674
601.54984
614.66682
625.00297
632.53989
637.2912
639.29845
638.62524
635.35283
629.57438
621.39034
610.90439
598.24379
583.54733
566.92698
548.47861
528.30311
506.50113
483.17479
458.43116
432.38321
405.15222
376.86892
347.67427
317.72039
287.16975
256.19437
224.97375
193.69227
162.53558
131.6862
101.31864
71.594154
42.655218
14.620566
-12.419171
-38.404635
-63.309044
-87.13737
-109.92293
-131.72114
-152.6005
-172.63075
-191.86796
-210.34096
-228.05459
-244.9601
-260.91369
-275.69347
-289.00414
-300.47101
-309.64978
-316.03874
-319.09579
-318.25938
-312.9721
-302.70564
-286.98558
-265.41474
-237.69376
-203.63776
-163.1882
-116.41931
-63.538788
-4.8826549
59.095278
127.83876
200.70827
277.00273
355.98264
436.89312
518.98567
601.53767
683.86891
765.35458
845.43463
923.61966
999.49343
1072.7126
1143.0043
1210.1612
1274.0365
1334.5371
1391.6166
1445.2687
1495.5201
1542.4242
1586.0553
1626.5033
1663.8688
1698.2592
1729.7852
1758.5575
1784.6845
1808.2701
1829.412
1848.2
1864.7149
1879.0282
1891.2005
1901.276
1909.2933
1915.338
1919.3734
1920.8036
-5.2336173
43.494906
73.808275
109.58939
143.74903
178.42002
212.96264
247.53884
282.02532
316.31627
350.24118
383.59219
416.12493
447.56952
477.64204
506.05613
532.53541
556.82412
578.69668
597.96465
614.48114
628.14291
638.88933
646.7002
651.59073
653.60683
652.81842
649.31439
643.19619
634.57253
623.55497
610.28137
594.90303
577.53914
558.28898
537.25764
514.54957
490.27059
464.53181
437.45076
409.15404
379.77867
349.47301
318.39782
286.72539
254.63883
222.32972
189.99524
157.83413
126.04175
94.804467
64.2935
34.65853
6.0216799
-21.527803
-47.937599
-73.19426
-97.322705
-120.38267
-142.4618
-163.6654
-184.10265
-203.86876
-223.0292
-241.6252
-259.63111
-276.90932
-293.23519
-308.2951
-321.68091
-332.90064
-341.39212
-346.54262
-347.71307
-344.26542
-335.59159
-321.14237
-300.4545
-273.17467
-239.07889
-198.08631
-150.26677
-95.841572
-35.177605
31.224973
102.7506
178.69063
258.26862
340.66709
425.05415
510.60838
596.54093
682.11401
766.65513
849.56702
930.33348
1008.5214
1083.7797
1155.8354
1224.4881
1289.6029
1351.1029
1408.9608
1463.1911
1513.8424
1560.9901
1604.7304
1645.1738
1682.4408
1716.6572
1747.9502
1776.4461
1802.2669
1825.5288
1846.3403
1864.8009
1880.9999
1895.0165
1906.9183
1916.7559
1924.5738
1930.4615
1934.3888
1935.7815
-7.9669396
42.600611
72.642655
108.75226
143.12968
178.14349
213.11155
248.23144
283.3879
318.47829
353.32513
387.70588
421.35423
453.97294
485.24709
514.85765
542.49592
567.87589
590.74532
610.89374
628.15753
642.42212
653.62087
661.7322
666.77388
668.79748
667.88066
664.12144
657.63094
648.52739
636.93125
622.99258
606.87671
588.71066
568.59728
546.64579
522.96436
497.6623
470.85458
442.66317
413.21996
382.66844
351.16468
318.87868
285.9935
252.7045
219.21685
185.74238
152.49508
119.68545
87.514155
56.164828
25.796562
-3.4633122
-31.525768
-58.345243
-83.922459
-108.30442
-131.58083
-153.87654
-175.33993
-196.12698
-216.37997
-236.20898
-255.6998
-274.85622
-293.54986
-311.5551
-328.53925
-344.05725
-357.56325
-368.4261
-375.95187
-379.41204
-378.07521
-371.24085
-358.2729
-338.63131
-311.90002
-277.80948
-236.25279
-187.29452
-131.17169
-68.286937
0.80588948
75.422542
154.77446
237.99832
324.18707
412.4208
501.79524
591.44693
680.57383
768.4509
854.44064
937.99863
1018.675
1096.1118
1170.0385
1240.2642
1306.669
1369.1957
1427.8394
1482.6388
1533.6674
1581.0257
1624.8341
1665.2265
1702.3449
1736.3353
1767.3433
1795.5115
1820.9769
1843.8688
1864.3073
1882.4021
1898.2515
1911.9425
1923.5499
1933.1307
1940.7353
1946.4562
1950.2693
1951.6224
-11.011977
41.498783
71.155574
107.53539
142.06583
177.37681
212.74164
248.39821
284.24214
320.1747
356.01045
391.50968
426.38047
460.29344
492.8974
523.83514
552.7603
579.35181
603.32674
624.44952
642.53777
657.46469
669.1575
677.59402
682.79593
684.82214
683.75998
679.71851
672.82034
663.19474
650.9723
636.31706
619.41003
600.38606
579.35097
556.4178
531.698
505.30397
477.35419
447.9748
417.30294
385.48859
352.69594
319.10484
284.91008
250.32058
215.55684
180.84743
146.42401
112.51501
79.338289
47.09288
15.950091
-13.955154
-42.532345
-69.741971
-95.599495
-120.1761
-143.59527
-166.02457
-187.66261
-208.72072
-229.39771
-249.85787
-270.2414
-290.58892
-310.78552
-330.60763
-349.70325
-367.58668
-383.65138
-397.18736
-407.40735
-413.47951
-414.56436
-409.85409
-398.61176
-380.20806
-354.15386
-320.12653
-277.9887
-227.79869
-169.81165
-104.4716
-32.3947
45.655187
128.79704
216.06723
306.4558
398.94215
492.52797
586.26577
679.28197
770.7939
860.12077
946.68886
1030.032
1109.7875
1185.6896
1257.5604
1325.2993
1388.8722
1448.3008
1503.6517
1555.027
1602.5553
1646.384
1686.6725
1723.5869
1757.2948
1787.9618
1815.7481
1840.8064
1863.2799
1883.3009
1900.9897
1916.4541
1929.7891
1941.0766
1950.3802
1957.7557
1963.2984
1966.9901
1968.3011
-14.454421
40.089649
69.213624
105.78191
140.38
175.92696
211.64965
247.83136
284.38092
321.20409
358.10592
394.82641
431.04341
466.38982
500.47193
532.88788
563.24752
591.18917
616.39465
638.5999
657.60163
673.25979
685.49562
694.28733
699.66204
701.68801
700.46435
696.1133
688.77086
678.57893
665.67954
650.25275
632.49714
612.55554
590.53637
566.55626
540.72948
513.17098
484.00231
453.35341
421.3664
388.19779
354.02008
319.02358
283.41576
247.42056
211.27565
175.2287
139.53185
104.43465
70.175646
36.972846
5.0132309
-25.55763
-54.645455
-82.215608
-108.29861
-132.99196
-156.45707
-178.91055
-200.60957
-221.83085
-242.84118
-263.87116
-285.12751
-306.69606
-328.4806
-350.26393
-371.6744
-392.18172
-411.11081
-427.66157
-440.93929
-449.99268
-453.85698
-451.59989
-442.36722
-425.42582
-400.20152
-366.30977
-323.57763
-272.05594
-212.02077
-143.96419
-68.57473
13.291314
100.64574
192.40899
287.45263
384.64086
482.86848
581.0934
678.36249
773.83003
866.76897
956.57555
1042.7683
1124.9822
1202.9601
1276.5412
1345.6484
1410.2758
1470.4759
1526.3477
1578.0255
1625.6696
1669.4575
1709.577
1746.2201
1779.5782
1809.838
1837.1787
1861.7699
1883.7692
1903.3218
1920.559
1935.5981
1948.5425
1959.4811
1968.484
1975.6122
1980.9635
1984.525
1985.791
-18.303937
38.363337
66.782169
103.43285
137.9863
173.68391
209.70435
246.38216
283.64348
321.39945
359.44383
397.49272
435.18845
472.11953
507.8423
541.90269
573.85941
603.30369
629.8768
653.28229
673.29354
689.75632
702.58622
711.76312
717.32171
719.34207
717.93776
713.24676
705.42081
694.61633
680.98826
664.73519
646.07517
625.15848
602.09527
577.00517
550.0045
521.21003
490.74573
458.74481
425.354
390.73622
355.07249
318.56416
281.43238
243.91759
206.27672
168.77918
131.70081
95.315977
59.888061
25.65836
-7.1661746
-38.425418
-68.018185
-95.912822
-122.15471
-146.86958
-170.2612
-192.6022
-214.21776
-235.46166
-256.68232
-278.19207
-300.27838
-323.08093
-346.53069
-370.42269
-394.36587
-417.78112
-439.91594
-459.86711
-476.61608
-489.0733
-496.12869
-496.70524
-489.81243
-474.59627
-450.38351
-416.71737
-373.38328
-320.42312
-258.13715
-187.07325
-108.0041
-21.893492
70.145922
166.9004
267.10492
369.49169
472.83403
575.98344
677.89848
777.66471
874.50607
967.7885
1057.017
1141.8279
1221.9768
1297.3251
1367.8248
1433.5036
1494.45
1550.7999
1602.7244
1650.4191
1694.095
1733.9709
1770.2671
1803.2003
1832.9803
1859.8063
1883.8652
1905.3303
1924.3597
1941.0962
1955.6668
1968.1832
1978.7415
1987.4181
1994.2791
1999.4241
2002.8459
2004.0634
-22.634367
36.230711
63.733295
100.32934
134.69099
170.42537
206.66767
243.80184
281.77672
320.50994
359.78176
399.28001
438.60509
477.29325
514.84218
550.73665
584.47577
615.59618
643.69252
668.4316
689.5609
706.91116
720.39286
729.98936
735.7454
737.75584
736.15172
731.08969
722.7398
711.27497
696.86458
679.72866
660.10686
638.15614
613.98756
587.7231
559.48022
529.37663
497.53789
464.09974
429.213
393.04671
355.79048
317.65715
278.88256
239.72525
200.46364
161.39181
122.81295
85.030564
48.337698
13.004149
-20.737905
-52.708868
-82.796543
-110.96952
-137.28725
-161.90541
-185.07476
-207.13186
-228.4809
-249.56596
-270.83307
-292.69765
-315.54443
-339.57404
-364.75864
-390.9118
-417.62387
-444.26229
-469.98705
-493.77674
-514.46987
-530.81668
-541.5383
-545.38947
-541.22101
-528.03822
-505.05236
-471.7224
-427.78499
-373.27131
-308.5095
-234.11236
-150.9506
-60.11324
37.142288
139.44657
245.37688
353.51401
462.49307
571.04587
678.03312
782.4658
883.51639
980.52094
1072.9738
1160.5168
1242.9241
1320.0855
1391.9885
1458.7005
1520.352
1577.1212
1629.2207
1676.8857
1720.364
1759.9084
1795.7697
1828.1923
1857.4099
1883.643
1907.0971
1927.9611
1946.4068
1962.5886
1976.6433
1988.6909
1998.8346
2007.1568
2013.7286
2018.6512
2021.9224
2023.0878
-27.475867
33.649743
59.986144
96.352185
130.34141
165.96733
202.32368
239.85258
278.52908
318.27834
358.86457
399.94207
441.06171
481.69818
521.28016
559.22075
594.94943
627.93952
657.73202
683.95206
706.31842
724.64604
738.84126
748.89319
754.85977
756.85425
755.02883
749.56228
740.64598
728.47163
713.22473
695.15037