/*--------------------------------*- C++ -*----------------------------------*\
| =========                 |                                                 |
| \\      /  F ield         | foam-extend: Open Source CFD                    |
|  \\    /   O peration     | Version:     4.1                                |
|   \\  /    A nd           | Web:         http://www.foam-extend.org         |
|    \\/     M anipulation  |                                                 |
\*---------------------------------------------------------------------------*/
FoamFile
{
    version     2.0;
    format      ascii;
    class       surfaceScalarField;
    location    "0.4";
    object      phi;
}
// * * * * * * * * * * * * * * * * * * * * * * * * * * * * * * * * * * * * * //

dimensions      [0 3 -1 0 0 0 0];

internalField   nonuniform List<scalar> 
32976
(
-0.2223744
9.156023e-05
-0.22251737
0.00014297314
-0.2226875
0.00017013189
-0.22288302
0.00019552379
-0.22310466
0.0002216331
-0.22335361
0.00024895497
-0.22363104
0.00027743171
-0.22393789
0.00030684276
-0.22427478
0.00033688968
-0.22464203
0.0003672526
-0.22503961
0.00039758003
-0.22546713
0.00042752016
-0.22592383
0.00045670308
-0.22640861
0.00048477245
-0.22691997
0.00051136311
-0.2274561
0.00053613639
-0.22801486
0.00055875377
-0.22859377
0.00057891564
-0.22919011
0.00059633126
-0.22980087
0.0006107603
-0.23042284
0.00062197933
-0.23105267
0.00062982505
-0.23168683
0.0006341578
-0.23232173
0.00063490537
-0.23295376
0.00063202409
-0.2335793
0.00062554206
-0.23419482
0.00061551847
-0.2347969
0.00060208527
-0.23538231
0.00058540539
-0.23594802
0.00056571191
-0.23649129
0.00054326602
-0.23700968
0.00051839029
-0.23750112
0.00049144129
-0.23796392
0.00046280528
-0.23839684
0.00043291413
-0.23879905
0.00040220884
-0.23917021
0.0003711634
-0.23951046
0.00034024896
-0.23982041
0.00030995266
-0.24010116
0.00028074491
-0.24035425
0.00025309324
-0.24058168
0.00022743363
-0.24078586
0.00020417896
-0.24096956
0.00018370061
-0.24113589
0.00016632435
-0.24128821
0.00015232079
-0.24143011
0.00014189967
-0.24156531
0.00013520331
-0.24169761
0.00013230137
-0.2418308
0.00013318825
-0.24196858
0.0001377802
-0.2421145
0.00014591555
-0.24227185
0.00015735665
-0.24244364
0.00017179226
-0.24263249
0.00018884134
-0.24284055
0.00020806058
-0.2430695
0.00022895101
-0.24332047
0.00025096802
-0.243594
0.00027353321
-0.24389004
0.00029604566
-0.24420794
0.00031789202
-0.2445464
0.00033846037
-0.24490355
0.00035715251
-0.24527695
0.00037339702
-0.24566361
0.00038666139
-0.24606007
0.00039646356
-0.24646245
0.00040238367
-0.24686653
0.00040407227
-0.24726779
0.00040126028
-0.24766155
0.00039376527
-0.24804305
0.00038149654
-0.24840751
0.00036445833
-0.24875026
0.00034275299
-0.24906683
0.00031657405
-0.24935304
0.0002862024
-0.24960505
0.0002520085
-0.24981948
0.00021443741
-0.24999347
0.00017399152
-0.25012471
0.00013123209
-0.25021148
8.676952e-05
-0.25025267
4.1192826e-05
-0.25024753
-5.1418269e-06
-0.25019562
-5.1904366e-05
-0.25009736
-9.8264513e-05
-0.24995407
-0.00014328908
-0.24976773
-0.00018634182
-0.24954084
-0.00022688933
-0.24927637
-0.0002644711
-0.24897767
-0.00029869762
-0.24864842
-0.0003292522
-0.24829252
-0.00035589264
-0.24791408
-0.00037844927
-0.24751725
-0.00039682378
-0.24710627
-0.00041098437
-0.24668531
-0.00042096038
-0.24625847
-0.00042683572
-0.24582973
-0.00042874153
-0.24540288
-0.00042684928
-0.24498152
-0.00042136137
-0.24456901
-0.00041250539
-0.24416849
-0.000400526
-0.24378281
-0.00038567856
-0.24341459
-0.00036822313
-0.24306617
-0.00034842
-0.24273964
-0.0003265239
-0.24243686
-0.00030278213
-0.24215943
-0.00027743103
-0.24190873
-0.00025069425
-0.24168595
-0.00022278164
-0.24149206
-0.0001938893
-0.24132786
-0.00016419907
-0.24119398
-0.00013388093
-0.24109089
-0.00010309461
-0.2410189
-7.1993403e-05
-0.24097816
-4.0731165e-05
-0.24096868
-9.4830272e-06
-0.24099019
2.1511809e-05
-0.24104226
5.2071382e-05
-0.24112418
8.192019e-05
-0.24123432
0.00011013444
-0.24136967
0.00013534945
-0.24152767
0.00015800269
-0.24171663
0.00018895357
0.00021882493
-0.2542825
3.8203971e-05
-0.25421532
7.5789007e-05
-0.25416378
0.0001185967
-0.2541321
0.00016384088
-0.25412219
0.0002117225
-0.25413555
0.00026231357
-0.25417342
0.00031530551
-0.25423683
0.0003702458
-0.25432652
0.00042658391
-0.25444298
0.00048371024
-0.25458636
0.00054096623
-0.25475653
0.00059768098
-0.25495297
0.00065315133
-0.25517489
0.00070668827
-0.25542111
0.00075758809
-0.25569016
0.00080518626
-0.25598023
0.00084882166
-0.25628921
0.00088789674
-0.25661472
0.00092183499
-0.2569541
0.00095014636
-0.2573045
0.00097237828
-0.25766286
0.00098818454
-0.25802597
0.00099727056
-0.25839053
0.00099946363
-0.25875316
0.00099465342
-0.25911048
0.00098286138
-0.25945914
0.00096417774
-0.25979588
0.00093882787
-0.26011758
0.00090710721
-0.26042131
0.00086944256
-0.26070438
0.00082632642
-0.26096435
0.00077836812
-0.26119916
0.00072624932
-0.26140707
0.00067071772
-0.26158677
0.00061260736
-0.26173734
0.00055278236
-0.26185834
0.0004921682
-0.26194979
0.00043169679
-0.26201217
0.00037232778
-0.26204642
0.00031499952
-0.26205397
0.0002606402
-0.26203666
0.00021012628
-0.26199677
0.00016428553
-0.26193694
0.00012386908
-0.26186015
8.9538578e-05
-0.26176968
6.1847477e-05
-0.26166901
4.1229584e-05
-0.26156179
2.7984797e-05
-0.26145176
2.2268867e-05
-0.26134265
2.4085947e-05
-0.26123816
3.3282891e-05
-0.26114179
4.9549851e-05
-0.26105686
7.2423135e-05
-0.26098635
0.0001012883
-0.2609329
0.00013538926
-0.26089868
0.00017384158
-0.26088538
0.00021564545
-0.26089412
0.00025970618
-0.26092544
0.00030485839
-0.26097928
0.00034988842
-0.26105495
0.00039355568
-0.26115111
0.00043462024
-0.26126582
0.00047186879
-0.26139657
0.0005041416
-0.26154026
0.00053035803
-0.26169334
0.00054954071
-0.2618518
0.00056083938
-0.26201127
0.00056354889
-0.26216714
0.00055712847
-0.26231459
0.00054121431
-0.26244872
0.00051562906
-0.26256465
0.00048038748
-0.2626576
0.00043570279
-0.262723
0.00038196867
-0.26275654
0.00031974636
-0.26275432
0.00024978346
-0.26271286
0.00017298396
-0.26262925
9.0375122e-05
-0.2625011
3.0829847e-06
-0.26232664
-8.769078e-05
-0.26210474
-0.00018070181
-0.26183525
-0.00027463655
-0.26151901
-0.00036813898
-0.26115729
-0.00045998923
-0.26075153
-0.0005490524
-0.26030366
-0.00063421134
-0.25981609
-0.00071445478
-0.25929167
-0.00078889534
-0.25873358
-0.00085677922
-0.25814534
-0.00091749228
-0.25753067
-0.00097056456
-0.25689346
-0.0010156656
-0.25623768
-0.0010526032
-0.25556735
-0.001081314
-0.25488646
-0.0011018529
-0.25419891
-0.0011143808
-0.2535085
-0.0011191497
-0.25281886
-0.0011164906
-0.25213343
-0.0011067934
-0.25145544
-0.0010904976
-0.25078789
-0.0010680754
-0.25013355
-0.0010400198
-0.24949494
-0.0010068326
-0.24887434
-0.00096901641
-0.2482738
-0.00092706204
-0.24769514
-0.00088144615
-0.24713994
-0.00083262375
-0.24660961
-0.000781025
-0.24610534
-0.00072705276
-0.24562815
-0.00067108334
-0.24517888
-0.00061346419
-0.24475825
-0.00055451923
-0.24436679
-0.00049455113
-0.24400493
-0.00043384976
-0.24367296
-0.00037270519
-0.24337102
-0.00031141848
-0.24309924
-0.00025027277
-0.24285755
-0.00018962087
-0.24264547
-0.00013015253
-0.24246208
-7.325677e-05
-0.24230661
-2.0123922e-05
-0.24217817
2.9562333e-05
-0.24206899
7.97708e-05
8.5288939e-05
-0.25718569
9.0340285e-06
-0.25717099
6.1084309e-05
-0.25717243
0.00012003471
-0.25719225
0.00018366141
-0.25723177
0.00025124695
-0.25729172
0.00032226573
-0.25737255
0.00039613225
-0.25747446
0.00047215108
-0.2575974
0.0005495284
-0.25774112
0.00062742533
-0.25790509
0.00070493992
-0.25808857
0.00078116075
-0.25829056
0.00085513978
-0.25850982
0.00092595186
-0.25874489
0.00099265771
-0.25899408
0.0010543733
-0.25925548
0.0011102234
-0.259527
0.0011594203
-0.25980638
0.0012012082
-0.26009118
0.0012349492
-0.26037886
0.0012600599
-0.26066678
0.0012761013
-0.26095222
0.0012827089
-0.26123244
0.0012796835
-0.2615047
0.0012669157
-0.26176631
0.0012444754
-0.26201467
0.0012125317
-0.26224728
0.0011714378
-0.26246182
0.0011216485
-0.26265617
0.0010637971
-0.26282846
0.00099861327
-0.26297708
0.00092698544
-0.26310073
0.00084990379
-0.26319846
0.00076845284
-0.26326969
0.00068383174
-0.26331419
0.00059728582
-0.26333216
0.00051013858
-0.26332419
0.00042372584
-0.26329128
0.00033941314
-0.26323482
0.00025853848
-0.26315659
0.00018241473
-0.26305875
0.00011228205
-0.26294376
4.9302587e-05
-0.26281442
-5.4733021e-06
-0.26267376
-5.1126356e-05
-0.26252501
-8.6893813e-05
-0.26237159
-0.00011219112
-0.26221698
-0.00012663025
-0.26206467
-0.00013003605
-0.26191814
-0.0001224513
-0.26178071
-0.00010414469
-0.26165555
-7.5614195e-05
-0.26154554
-3.7581607e-05
-0.26145327
9.0151129e-06
-0.26138092
6.303734e-05
-0.26133023
0.00012315948
-0.26130248
0.0001878893
-0.26129837
0.00025559955
-0.26131808
0.00032456318
-0.26136117
0.00039298741
-0.26142666
0.00045904223
-0.26151294
0.00052090146
-0.26161785
0.00057678137
-0.26173869
0.00062498029
-0.26187225
0.00066391558
-0.26201487
0.00069215891
-0.2621625
0.00070847098
-0.26231078
0.0007118285
-0.2624551
0.00070145208
-0.26259071
0.00067682464
-0.26271279
0.00063770504
-0.26281654
0.00058413619
-0.2628973
0.0005164607
-0.2629506
0.00043527101
-0.26297227
0.00034141951
-0.26295853
0.0002360454
-0.26290606
0.00012050899
-0.26281203
-3.6549073e-06
-0.26267419
-0.00013475293
-0.26249091
-0.00027097334
-0.26226118
-0.00041043607
-0.26198461
-0.00055120642
-0.2616614
-0.00069134916
-0.26129237
-0.00082901493
-0.26087897
-0.00096245034
-0.26042318
-0.0010900067
-0.25992745
-0.0012101864
-0.25939467
-0.0013216714
-0.25882811
-0.0014233407
-0.25823132
-0.0015142818
-0.25760809
-0.001593797
-0.25696236
-0.0016613967
-0.25629816
-0.0017167983
-0.25561956
-0.0017599107
-0.2549306
-0.0017908197
-0.25423521
-0.0018097685
-0.25353722
-0.001817136
-0.2528403
-0.0018134187
-0.25214789
-0.0017992003
-0.25146325
-0.0017751377
-0.25078939
-0.0017419359
-0.25012908
-0.0017003304
-0.24948484
-0.0016510687
-0.24885896
-0.0015948995
-0.24825347
-0.0015325526
-0.24767018
-0.0014647364
-0.24711067
-0.0013921265
-0.24657634
-0.0013153608
-0.24606836
-0.001235036
-0.24558773
-0.0011517089
-0.2451353
-0.0010658926
-0.24471176
-0.00097806431
-0.24431764
-0.00088866882
-0.24395336
-0.00079812992
-0.2436192
-0.00070686423
-0.24331533
-0.0006152896
-0.24304178
-0.00052382528
-0.2427984
-0.00043299581
-0.24258486
-0.00034369053
-0.24240087
-0.00025725015
-0.24224671
-0.00017428314
-0.24212037
-9.678184e-05
-0.24201489
-2.5701054e-05
5.99466e-06
-0.25739094
-1.4915983e-05
-0.2573845
5.4642346e-05
-0.25739601
0.00013154841
-0.25742671
0.00021435234
-0.25747744
0.00030197935
-0.25754875
0.00039357391
-0.25764086
0.00048824834
-0.25775377
0.00058506004
-0.25788722
0.00068297914
-0.25804073
0.00078093468
-0.25821358
0.00087779288
-0.25840484
0.00097241716
-0.25861333
0.0010636338
-0.25883769
0.0011503048
-0.25907631
0.0012312814
-0.25932743
0.0013054891
-0.25958907
0.0013718695
-0.25985913
0.001429477
-0.26013533
0.0014774093
-0.26041529
0.0015149128
-0.26069654
0.0015413041
-0.26097652
0.0015560798
-0.26125264
0.0015588304
-0.26152231
0.0015493515
-0.26178294
0.0015275517
-0.26203203
0.0014935607
-0.26226713
0.0014476336
-0.26248594
0.0013902523
-0.26268632
0.0013220279
-0.26286632
0.0012437919
-0.2630242
0.0011564993
-0.26315852
0.0010613016
-0.2632681
0.00095947972
-0.26335208
0.00085243526
-0.26340996
0.00074171173
-0.26344159
0.00062891552
-0.2634472
0.0005157486
-0.26342741
0.00040393326
-0.26338322
0.00029522568
-0.26331603
0.00019135174
-0.26322762
9.3999236e-05
-0.2631201
4.7628369e-06
-0.26299593
-7.4862202e-05
-0.26285789
-0.00014351978
-0.26270898
-0.00020003051
-0.26255246
-0.00024341591
-0.26239171
-0.00027293837
-0.26223023
-0.00028811646
-0.26207152
-0.00028874261
-0.26191907
-0.00027490024
-0.26177625
-0.00024696937
-0.26164623
-0.00020562902
-0.26153196
-0.0001518554
-0.26143603
-8.6908204e-05
-0.26136068
-1.231194e-05
-0.26130769
7.0167987e-05
-0.26127835
0.00015854438
-0.26127339
0.00025064374
-0.261293
0.0003441684
-0.26133675
0.00043673678
-0.26140362
0.00052591902
-0.26149201
0.00060928969
-0.26159971
0.00068448133
-0.26172397
0.0007492375
-0.26186151
0.00080146108
-0.26200862
0.00083926081
-0.26216114
0.00086099732
-0.26231463
0.00086531947
-0.26246438
0.00085120104
-0.26260552
0.00081796558
-0.26273312
0.0007653037
-0.26284227
0.00069328789
-0.2629282
0.00060239047
-0.26298634
0.0004934025
-0.2630124
0.000367484
-0.26300253
0.0002261767
-0.26295332
7.1295308e-05
-0.26286187
-9.5103543e-05
-0.26272588
-0.00027074636
-0.26254365
-0.00045320309
-0.26231414
-0.00063994317
-0.26203696
-0.00082838163
-0.26171236
-0.0010159494
-0.26134122
-0.0012001617
-0.26092501
-0.0013786557
-0.26046579
-0.0015492294
-0.25996609
-0.001709886
-0.25942889
-0.0018588686
-0.25885755
-0.0019946851
-0.25825571
-0.002116122
-0.25762725
-0.0022222552
-0.25697621
-0.0023124393
-0.2563067
-0.0023863062
-0.25562286
-0.0024437447
-0.25492881
-0.0024848795
-0.25422853
-0.0025100458
-0.2535259
-0.0025197595
-0.25282463
-0.0025146925
-0.2521282
-0.0024956318
-0.25143988
-0.002463461
-0.25076268
-0.0024191268
-0.2500994
-0.0023636145
-0.24945255
-0.0022979241
-0.24882439
-0.0022230556
-0.24821696
-0.0021399823
-0.24763205
-0.0020496479
-0.24707122
-0.0019529504
-0.24653585
-0.001850737
-0.24602709
-0.0017437984
-0.24554592
-0.0016328715
-0.24509318
-0.0015186332
-0.24466954
-0.0014017116
-0.24427551
-0.0012826902
-0.24391152
-0.0011621208
-0.24357785
-0.0010405376
-0.24327467
-0.0009184681
-0.24300204
-0.00079645314
-0.24275987
-0.00067516666
-0.24254797
-0.00055559345
-0.24236634
-0.00043887917
-0.24221513
-0.00032549235
-0.24209173
-0.00022017997
-0.2419945
-0.00012293137
-5.3058249e-05
-0.2573934
-4.3147872e-05
-0.25738403
4.5272658e-05
-0.25739366
0.00014117904
-0.25742312
0.00024380831
-0.25747313
0.00035199102
-0.25754419
0.00046462905
-0.25763652
0.0005805786
-0.2577501
0.00069864738
-0.25788469
0.00081756151
-0.25803976
0.0009360126
-0.2582146
0.0010526281
-0.25840822
0.0011660413
-0.25861944
0.0012748485
-0.25884683
0.001377696
-0.25908877
0.001473223
-0.25934345
0.0015601632
-0.25960885
0.0016372747
-0.25988283
0.0017034536
-0.26016307
0.0017576517
-0.26044716
0.0017990003
-0.26073257
0.0018267164
-0.26101672
0.0018402328
-0.26129699
0.001839095
-0.26157073
0.0018230933
-0.26183533
0.001792153
-0.26208823
0.0017464626
-0.26232696
0.001686361
-0.26254916
0.0016124573
-0.26275265
0.0015255164
-0.26293543
0.0014265664
-0.26309571
0.001316786
-0.263232
0.0011975897
-0.26334307
0.0010705496
-0.26342802
0.00093738633
-0.2634863
0.00079999156
-0.26351773
0.00066033818
-0.26352249
0.00052051397
-0.26350119
0.00038263696
-0.26345483
0.00024886503
-0.26338481
0.00012132549
-0.2632929
2.0895943e-06
-0.26318126
-0.00010687767
-0.26305239
-0.00020372451
-0.26290914
-0.00028677492
-0.26275459
-0.00035457683
-0.26259208
-0.00040592664
-0.2624251
-0.00043991987
-0.26225725
-0.00045596969
-0.26209216
-0.00045382935
-0.26193345
-0.00043361509
-0.2617846
-0.00039581431
-0.26164894
-0.00034128866
-0.26152953
-0.0002712703
-0.26142909
-0.00018734727
-0.26134996
-9.1442103e-05
-0.26129401
1.4221844e-05
-0.26126262
0.00012715655
-0.26125661
0.00024462742
-0.26127618
0.00036373809
-0.26132094
0.00048149531
-0.26138987
0.00059484989
-0.26148133
0.00070075544
-0.26159309
0.00079623646
-0.26172231
0.00087845857
-0.26186564
0.00094478941
-0.26201923
0.00099285576
-0.26217884
0.0010206011
-0.26233985
0.0010263317
-0.26249741
0.0010087633
-0.2626465
0.00096705181
-0.26278201
0.00090081584
-0.26289888
0.00081015972
-0.26299217
0.00069567726
-0.26305715
0.00055838069
-0.26308941
0.00039975097
-0.26308497
0.00022173729
-0.2630403
2.6622015e-05
-0.26295242
-0.00018298632
-0.26281895
-0.00040421057
-0.26263818
-0.00063397918
-0.26240903
-0.00086909211
-0.26213112
-0.0011062908
-0.26180473
-0.0013423381
-0.2614308
-0.001574093
-0.26101088
-0.0017985697
-0.26054712
-0.0020129939
-0.26004215
-0.0022148544
-0.25949908
-0.0024019452
-0.25892136
-0.0025723959
-0.2583128
-0.0027246905
-0.25767737
-0.0028576792
-0.25701925
-0.0029705655
-0.25634265
-0.0030629033
-0.25565182
-0.003134571
-0.25495096
-0.0031857441
-0.25424414
-0.0032168625
-0.25353531
-0.0032285924
-0.25282821
-0.0032217949
-0.25212636
-0.0031974737
-0.25143307
-0.0031567516
-0.25075137
-0.0031008282
-0.25008404
-0.0030309491
-0.24943359
-0.0029483757
-0.24880227
-0.0028543665
-0.24819211
-0.0027501446
-0.24760487
-0.0026368927
-0.24704208
-0.002515735
-0.24650509
-0.0023877289
-0.24599503
-0.0022538599
-0.24551286
-0.0021150435
-0.24505937
-0.0019721179
-0.24463523
-0.001825858
-0.24424094
-0.0016769797
-0.2438769
-0.0015261533
-0.24354342
-0.0013740173
-0.2432407
-0.0012211944
-0.24296883
-0.0010683228
-0.24272783
-0.00091616877
-0.24251772
-0.00076570529
-0.2423387
-0.00061789771
-0.24219081
-0.000473378
-0.24207206
-0.00033892591
-0.24198403
-0.00021097033
-0.00010163426
-0.25738741
-7.4574325e-05
-0.25737442
3.2277179e-05
-0.25738086
0.00014762792
-0.25740766
0.00027060723
-0.25745553
0.00039986077
-0.25752497
0.00053406689
-0.25761623
0.0006718394
-0.25772932
0.00081174012
-0.25786401
0.00095224731
-0.25801981
0.0010918084
-0.25819598
0.0012288047
-0.25839157
0.0013616316
-0.25860537
0.0014886475
-0.25883595
0.0016082751
-0.25908166
0.0017189338
-0.25934066
0.001819158
-0.2596109
0.001907514
-0.25989018
0.0019827327
-0.26017614
0.0020436125
-0.2604663
0.0020891629
-0.26075808
0.0021184947
-0.26104881
0.0021309707
-0.26133581
0.002126086
-0.26161633
0.0021036207
-0.26188769
0.0020635125
-0.26214724
0.0020060058
-0.2623924
0.001931521
-0.26262073
0.0018407934
-0.26282996
0.0017347421
-0.26301798
0.0016145935
-0.26318295
0.0014817534
-0.26332327
0.001337904
-0.26343763
0.0011849156
-0.26352508
0.0010248364
-0.26358501
0.0008599165
-0.26361718
0.0006925072
-0.26362176
0.00052509584
-0.26359933
0.00036021112
-0.2635509
0.00020042956
-0.26347787
4.8296568e-05
-0.26338206
-9.3721622e-05
-0.26326567
-0.00022326005
-0.26313131
-0.0003380891
-0.26298187
-0.00043620978
-0.26282058
-0.00051587013
-0.26265087
-0.00057563659
-0.26247637
-0.00061441807
-0.26230083
-0.00063151068
-0.26212804
-0.00062662016
-0.26196177
-0.00059989054
-0.26180567
-0.00055191375
-0.26166322
-0.00048373505
-0.26153764
-0.00039684763
-0.26143181
-0.00029317651
-0.2613482
-0.00017505091
-0.26128881
-4.5173901e-05
-0.2612551
9.3445436e-05
-0.26124797
0.00023749555
-0.26126769
0.000383457
-0.26131389
0.00052769736
-0.26138556
0.00066651789
-0.26148102
0.00079622497
-0.261598
0.00091320771
-0.26173356
0.0010140256
-0.26188426
0.0010954842
-0.26204611
0.0011547036
-0.26221469
0.0011891882
-0.26238524
0.0011968832
-0.26255271
0.0011762313
-0.26271187
0.0011262102
-0.26285742
0.0010463617
-0.26298408
0.00093681936
-0.2630867
0.0007982995
-0.26316037
0.00063205543
-0.26320052
0.00043989817
-0.26320298
0.00022419435
-0.26316408
-1.2274143e-05
-0.26308075
-0.000266321
-0.26295052
-0.00053443855
-0.26277162
-0.00081288208
-0.26254296
-0.0010977523
-0.26226416
-0.0013850841
-0.26193556
-0.0016709387
-0.26155816
-0.0019514924
-0.26113362
-0.002223113
-0.26066418
-0.0024824316
-0.26015263
-0.0027264045
-0.25960221
-0.0029523633
-0.25901656
-0.0031580519
-0.2583996
-0.0033416481
-0.2577555
-0.0035017789
-0.25708856
-0.0036375022
-0.25640316
-0.0037483037
-0.25570367
-0.0038340641
-0.25499439
-0.0038950247
-0.25427951
-0.0039317465
-0.25356304
-0.0039450632
-0.25284879
-0.0039360425
-0.25214034
-0.0039059216
-0.25144101
-0.0038560786
-0.25075386
-0.0037879805
-0.25008166
-0.0037031461
-0.24942693
-0.0036031094
-0.2487919
-0.0034893972
-0.24817855
-0.0033634893
-0.24758863
-0.003226814
-0.24702364
-0.0030807249
-0.24648488
-0.0029264931
-0.24597344
-0.0027652991
-0.24549025
-0.0025982373
-0.24503606
-0.0024263056
-0.24461149
-0.0022504227
-0.24421704
-0.002071432
-0.24385308
-0.0018901158
-0.24351989
-0.0017072081
-0.24321767
-0.0015234166
-0.24294653
-0.0013394564
-0.24270656
-0.0011561383
-0.24249789
-0.00097437513
-0.24232077
-0.00079501691
-0.24217528
-0.00061886907
-0.24206027
-0.000453942
-0.24197852
-0.0002927167
-0.00014470499
-0.2573877
-0.00011173864
-0.25736991
1.4487641e-05
-0.25737225
0.00014996165
-0.25739556
0.00029392483
-0.25744059
0.00044489064
-0.25750786
0.00060132946
-0.25759764
0.00076162219
-0.25770998
0.00092408401
-0.25784468
0.0010869402
-0.25800125
0.0012483871
-0.258179
0.001406551
-0.25837695
0.0015595801
-0.25859389
0.0017055853
-0.25882837
0.001842756
-0.25907872
0.0019692818
-0.25934305
0.0020834878
-0.25961927
0.002183739
-0.25990513
0.0022685917
-0.2601982
0.0023366813
-0.26049592
0.0023868867
-0.26079563
0.0024182041
-0.26109458
0.0024299188
-0.26138996
0.0024214686
-0.26167896
0.0023926171
-0.26195876
0.0023433098
-0.26222659
0.0022738431
-0.26247979
0.0021847166
-0.26271579
0.0020767908
-0.26293218
0.0019511398
-0.26312678
0.001809191
-0.26329761
0.0016525818
-0.26344297
0.0014832687
-0.26356149
0.0013034285
-0.2636521
0.0011154477
-0.26371413
0.00092194744
-0.26374729
0.00072567232
-0.26375172
0.00052952589
-0.26372798
0.00033646542
-0.26367706
0.00014950838
-0.26360039
-2.8368599e-05
-0.26349984
-0.00019427511
-0.26337768
-0.00034541657
-0.2632366
-0.00047917545
-0.2630796
-0.0005932064
-0.26291003
-0.00068543542
-0.26273149
-0.00075417601
-0.26254777
-0.00079813826
-0.2623628
-0.000816485
-0.26218055
-0.00080886605
-0.262005
-0.0007754446
-0.26184
-0.00071691504
-0.26168923
-0.00063450756
-0.26155609
-0.00052998251
-0.26144366
-0.00040561279
-0.26135456
-0.00026415035
-0.26129094
-0.00010879151
-0.26125439
5.6897603e-05
-0.2612459
0.0002290066
-0.26126581
0.00040336861
-0.26131379
0.0005756746
-0.26138882
0.00074154293
-0.26148919
0.00089659793
-0.26161254
0.0010365599
-0.26175586
0.0011573486
-0.26191555
0.0012551749
-0.26208747
0.0013266225
-0.26226702
0.0013687303
-0.26244919
0.0013790604
-0.26262873
0.0013557645
-0.26280015
0.0012976299
-0.2629579
0.0012041145
-0.26309646
0.0010753763
-0.26321042
0.00091226727
-0.26329466
0.00071629292
-0.26334437
0.00048960433
-0.26335518
0.00023500786
-0.26332327
-4.4179832e-05
-0.26324543
-0.0003441653
-0.26311909
-0.00066077719
-0.26294241
-0.00098955959
-0.26271429
-0.0013258756
-0.26243436
-0.0016650134
-0.26210301
-0.0020022946
-0.26172132
-0.0023331783
-0.26129108
-0.0026533558
-0.26081467
-0.002958837
-0.26029505
-0.0032460239
-0.25973565
-0.0035117702
-0.25914027
-0.0037534244
-0.25851307
-0.0039688552
-0.25785838
-0.0041564681
-0.2571807
-0.0043151836
-0.25648457
-0.0044444314
-0.25577452
-0.0045441102
-0.255055
-0.0046145456
-0.25433031
-0.0046564403
-0.25360455
-0.0046708168
-0.25288163
-0.0046589703
-0.25216515
-0.0046223925
-0.2514585
-0.0045627357
-0.25076473
-0.0044817522
-0.25008662
-0.0043812495
-0.24942668
-0.0042630475
-0.24878713
-0.0041289523
-0.24816991
-0.0039807092
-0.24757673
-0.0038199983
-0.24700904
-0.0036484074
-0.24646811
-0.0034674232
-0.24595499
-0.0032784223
-0.24547055
-0.0030826764
-0.24501552
-0.0028813407
-0.24459046
-0.0026754734
-0.24419586
-0.0024660399
-0.24383205
-0.0022539265
-0.2434993
-0.0020399547
-0.24319781
-0.0018249069
-0.24292771
-0.0016095568
-0.24268912
-0.0013947316
-0.24248221
-0.0011812848
-0.24230721
-0.0009700127
-0.24216428
-0.00076180303
-0.24205273
-0.00056548647
-0.24197544
-0.00037000644
-0.0001845473
-0.25739345
-0.00015392843
-0.25737075
-8.2109701e-06
-0.2573687
0.00014791815
-0.2573883
0.00031351862
-0.25743031
0.00048690103
-0.2574953
0.0006663177
-0.25758359
0.00084991493
-0.25769526
0.0010357581
-0.25783014
0.0012218136
-0.25798777
0.0014060184
-0.25816745
0.0015862345
-0.25836822
0.0017603526
-0.25858886
0.0019262256
-0.25882791
0.0020817981
-0.25908364
0.002225019
-0.25935415
0.002353993
-0.25963728
0.0024668724
-0.25993072
0.0025620279
-0.26023196
0.0026379213
-0.26053836
0.0026932908
-0.26084717
0.0027270081
-0.26115552
0.0027382724
-0.26146051
0.0027264558
-0.26175919
0.0026912988
-0.26204863
0.0026327485
-0.26232593
0.0025511492
-0.26258829
0.0024470766
-0.26283302
0.0023215158
-0.26305758
0.0021756963
-0.26325963
0.0020112497
-0.2634371
0.0018300495
-0.26358817
0.0016343343
-0.26371134
0.0014265971
-0.26380546
0.0012095745
-0.26386979
0.00098627362
-0.26390397
0.00075984898
-0.26390808
0.00053363957
-0.26388267
0.00031105207
-0.26382873
9.5570165e-05
-0.26374771
-0.00010938235
-0.26364154
-0.000300453
-0.26351256
-0.00047439265
-0.26336355
-0.00062818479
-0.26319767
-0.00075908804
-0.26301839
-0.00086471136
-0.26282949
-0.0009430749
-0.26263496
-0.00099267321
-0.26243892
-0.0010125194
-0.2622456
-0.0010021938
-0.26205917
-0.00096187164
-0.26188374
-0.00089234533
-0.26172322
-0.00079503178
-0.26158123
-0.00067196517
-0.26146107
-0.00052577844
-0.26136555
-0.0003596645
-0.26129701
-0.00017733275
-0.26125717
1.7060711e-05
-0.26124715
0.00021897714
-0.26126734
0.00042356744
-0.26131748
0.00062580746
-0.26139653
0.00082059419
-0.26150276
0.0010028277
-0.26163372
0.0011675183
-0.26178628
0.0013099071
-0.26195667
0.0014255717
-0.26214057
0.001510524
-0.26233315
0.0015613058
-0.26252916
0.0015750686
-0.26272304
0.0015496519
-0.26290905
0.0014836383
-0.26308133
0.0013763925
-0.26323405
0.0012280921
-0.26336152
0.001039739
-0.26345833
0.00081310269
-0.26351941
0.0005506878
-0.26354018
0.00025577178
-0.2635166
-6.7759899e-05
-0.26344529
-0.00041547068
-0.26332359
-0.00078248175
-0.26314956
-0.0011635817
-0.26292209
-0.0015533497
-0.26264082
-0.0019462803
-0.26230621
-0.00233691
-0.26191945
-0.0027199397
-0.26148246
-0.003090347
-0.2609978
-0.0034434888
-0.26046864
-0.0037751873
-0.25989861
-0.0040817999
-0.25929177
-0.0043602687
-0.25865247
-0.0046081495
-0.25798531
-0.0048236302
-0.25729499
-0.0050055031
-0.25658626
-0.0051531574
-0.25586385
-0.0052665292
-0.25513234
-0.0053460512
-0.25439619
-0.0053925922
-0.25365962
-0.0054073895
-0.25292659
-0.0053919916
-0.25220082
-0.005348169
-0.25148568
-0.0052778718
-0.25078428
-0.0051831586
-0.25009938
-0.005066144
-0.24943348
-0.0049289497
-0.24878876
-0.0047736741
-0.24816713
-0.0046023386
-0.24757024
-0.0044168824
-0.24699952
-0.0042191331
-0.24645615
-0.0040107957
-0.24594112
-0.0037934438
-0.24545527
-0.0035685255
-0.24499927
-0.0033373503
-0.24457363
-0.0031011115
-0.24417878
-0.0028608896
-0.24381504
-0.0026176672
-0.24348265
-0.002372344
-0.24318179
-0.0021257645
-0.24291261
-0.0018787419
-0.24267524
-0.0016321012
-0.24246987
-0.0013866463
-0.24229674
-0.0011431418
-0.24215609
-0.00090246223
-0.24204741
-0.00067416345
-0.24197326
-0.0004441581
-0.00022235445
-0.25740408
-0.00020274912
-0.25737562
-3.6675087e-05
-0.25736855
0.00014084692
-0.25738388
0.00032885252
-0.25742246
0.00052547264
-0.25748488
0.00072873988
-0.25757152
0.00093655943
-0.25768251
0.0011467417
-0.25781768
0.0013569855
-0.25797662
0.001564959
-0.25815863
0.001768249
-0.25836276
0.0019644768
-0.25858776
0.0021512253
-0.25883214
0.0023261824
-0.25909416
0.0024870435
-0.25937185
0.0026316805
-0.259663
0.0027580208
-0.25996521
0.0028642375
-0.2602759
0.0029486068
-0.26059232
0.0030097151
-0.26091161
0.0030462991
-0.2612308
0.0030574618
-0.26154685
0.0030425005
-0.26185667
0.0030011249
-0.2621572
0.0029332772
-0.26244539
0.0028393443
-0.26271829
0.0027199747
-0.26297305
0.0025762763
-0.26320699
0.0024096349
-0.26341763
0.0022218889
-0.26360274
0.0020151535
-0.26376036
0.0017919572
-0.26388888
0.0015551198
-0.26398705
0.0013077416
-0.26405401
0.001053232
-0.26408933
0.0007951746
-0.26409306
0.00053736545
-0.26406569
0.00028368553
-0.26400823
3.8109028e-05
-0.26392215
-0.00019546033
-0.26380943
-0.00041317836
-0.2636725
-0.00061131616
-0.26351426
-0.00078643168
-0.263338
-0.00093534432
-0.26314739
-0.0010553179
-0.26294641
-0.0011440629
-0.26273925
-0.0011998307
-0.2625303
-0.0012214677
-0.26232403
-0.0012084648
-0.2621249
-0.0011610005
-0.26193728
-0.001079961
-0.26176536
-0.00096695152
-0.26161304
-0.00082428847
-0.26148384
-0.00065497914
-0.26138083
-0.00046267816
-0.26130652
-0.00025163551
-0.26126284
-2.6626308e-05
-0.261251
0.00020714192
-0.26127153
0.00044409269
-0.26132417
0.00067844848
-0.26140791
0.00090433691
-0.26152097
0.0011158858
-0.2616608
0.001307347
-0.26182413
0.0014732369
-0.26200701
0.0016084559
-0.26220489
0.0017084023
-0.26241267
0.0017690836
-0.26262481
0.0017872093
-0.26283544
0.0017602819
-0.26303846
0.0016866611
-0.26322768
0.0015656089
-0.2633969
0.0013973184
-0.26354012
0.0011829523
-0.26365158
0.00092456088
-0.26372591
0.00062502161
-0.26375825
0.00028811582
-0.26374435
-8.1662549e-05
-0.26368063
-0.00047919031
-0.26356428
-0.00089883068
-0.2633933
-0.0013345638
-0.26316652
-0.0017801304
-0.26288362
-0.0022291763
-0.26254513
-0.0026753999
-0.26215238
-0.0031126948
-0.26170745
-0.0035352812
-0.26121311
-0.0039378252
-0.26067276
-0.0043155397
-0.26009029
-0.0046642643
-0.25947004
-0.0049805222
-0.25881664
-0.0052615528
-0.25813493
-0.0055053307
-0.25742991
-0.0057105325
-0.25670654
-0.005876525
-0.25596976
-0.0060033053
-0.25522437
-0.0060914405
-0.25447497
-0.0061419952
-0.25372591
-0.0061564517
-0.25298126
-0.0061366422
-0.25224478
-0.0060846452
-0.25151992
-0.0060027355
-0.25080977
-0.0058933021
-0.25011713
-0.0057587886
-0.24944444
-0.0056016364
-0.24879386
-0.0054242511
-0.24816726
-0.0052289415
-0.24756623
-0.0050179152
-0.24699212
-0.0047932446
-0.24644606
-0.0045568567
-0.24592898
-0.0043105228
-0.24544164
-0.0040558666
-0.24498464
-0.0037943489
-0.24455846
-0.0035272937
-0.24416345
-0.0032558912
-0.24379991
-0.0029812131
-0.24346802
-0.0027042293
-0.24316795
-0.0024258364
-0.24289982
-0.0021468733
-0.24266377
-0.001868155
-0.24245997
-0.0015904449
-0.24228864
-0.0013144736
-0.24215006
-0.0010410402
-0.24204375
-0.00078047584
-0.24197188
-0.0005160232
-0.00025878471
-0.25741843
-0.00025821142
-0.25738378
-7.1327909e-05
-0.25737123
0.00012829972
-0.25738192
0.00033954018
-0.25741675
0.00056030438
-0.2574764
0.00078839184
-0.2575613
0.0010214573
-0.2576716
0.0012570477
-0.2578072
0.0014925842
-0.2579677
0.0017254553
-0.25815241
0.0019529598
-0.25836037
0.0021724373
-0.25859033
0.0023811869
-0.25884077
0.0025766261
-0.25910991
0.002756183
-0.25939572
0.002917483
-0.25969591
0.0030582145
-0.26000801
0.0031763396