/*--------------------------------*- C++ -*----------------------------------*\
| =========                 |                                                 |
| \\      /  F ield         | foam-extend: Open Source CFD                    |
|  \\    /   O peration     | Version:     4.1                                |
|   \\  /    A nd           | Web:         http://www.foam-extend.org         |
|    \\/     M anipulation  |                                                 |
\*---------------------------------------------------------------------------*/
FoamFile
{
    version     2.0;
    format      ascii;
    class       volScalarField;
    location    "0.4";
    object      rAU;
}
// * * * * * * * * * * * * * * * * * * * * * * * * * * * * * * * * * * * * * //

dimensions      [0 0 1 0 0 0 0];

internalField   nonuniform List<scalar> 
16796
(
3.8699177e-05
3.8674193e-05
3.8653495e-05
3.8634617e-05
3.8617929e-05
3.8603754e-05
3.8592091e-05
3.8583144e-05
3.8576763e-05
3.8573022e-05
3.8571644e-05
3.8571681e-05
3.8572563e-05
3.8575656e-05
3.858076e-05
3.8587949e-05
3.8596954e-05
3.8607742e-05
3.8619936e-05
3.8633401e-05
3.8647667e-05
3.8662522e-05
3.8677431e-05
3.869213e-05
3.870605e-05
3.8718903e-05
3.8730109e-05
3.8739378e-05
3.8746147e-05
3.8750158e-05
3.874828e-05
3.8742214e-05
3.8732851e-05
3.8720166e-05
3.8704382e-05
3.8685449e-05
3.8663625e-05
3.863891e-05
3.8611622e-05
3.8581817e-05
3.8549871e-05
3.8515902e-05
3.8480277e-05
3.8443246e-05
3.8405116e-05
3.8366195e-05
3.8326789e-05
3.8287218e-05
3.8247774e-05
3.8208751e-05
3.8170429e-05
3.8133069e-05
3.8096911e-05
3.8062184e-05
3.8029073e-05
3.7997753e-05
3.7968367e-05
3.7941034e-05
3.7915839e-05
3.7892861e-05
3.787213e-05
3.7853666e-05
3.7837469e-05
3.7823518e-05
3.7811776e-05
3.7802191e-05
3.7794714e-05
3.7789266e-05
3.778578e-05
3.7784179e-05
3.7784179e-05
3.778439e-05
3.7786385e-05
3.7790123e-05
3.7795538e-05
3.7802534e-05
3.7811005e-05
3.7820838e-05
3.7831932e-05
3.7844157e-05
3.7857408e-05
3.7871565e-05
3.7886509e-05
3.7902121e-05
3.7918279e-05
3.7934859e-05
3.7951739e-05
3.7968795e-05
3.7985905e-05
3.8002945e-05
3.801981e-05
3.8036377e-05
3.8052545e-05
3.8068214e-05
3.8083294e-05
3.8097703e-05
3.8111366e-05
3.812423e-05
3.8136235e-05
3.8147342e-05
3.815752e-05
3.8166748e-05
3.8175011e-05
3.8182314e-05
3.8188652e-05
3.8194038e-05
3.8198487e-05
3.8202019e-05
3.8204652e-05
3.8206423e-05
3.8207344e-05
3.8206758e-05
3.8205305e-05
3.8203109e-05
3.8200185e-05
3.8196563e-05
3.8192251e-05
3.8187274e-05
3.8181661e-05
3.8175449e-05
3.8168716e-05
3.8161684e-05
3.8154377e-05
3.8143689e-05
3.7514803e-05
3.7499035e-05
3.749044e-05
3.7483736e-05
3.7479595e-05
3.7478083e-05
3.7479183e-05
3.7483084e-05
3.7489639e-05
3.749567e-05
3.7502496e-05
3.751128e-05
3.7521527e-05
3.7534389e-05
3.7549369e-05
3.7566272e-05
3.7584594e-05
3.7604147e-05
3.7624442e-05
3.7645308e-05
3.7666278e-05
3.7687207e-05
3.7707657e-05
3.7727517e-05
3.7746393e-05
3.7764219e-05
3.7780653e-05
3.7795679e-05
3.7809004e-05
3.7820649e-05
3.7827771e-05
3.7827732e-05
3.7823451e-05
3.7816312e-05
3.7806443e-05
3.7793742e-05
3.7778468e-05
3.7760621e-05
3.7740543e-05
3.7718297e-05
3.7694279e-05
3.766861e-05
3.7641665e-05
3.7613693e-05
3.7584998e-05
3.7555879e-05
3.7526632e-05
3.7497563e-05
3.7468944e-05
3.7441052e-05
3.7414144e-05
3.7388459e-05
3.7364212e-05
3.7341608e-05
3.7320807e-05
3.7301958e-05
3.7285181e-05
3.727057e-05
3.7258189e-05
3.7248094e-05
3.7240295e-05
3.7234794e-05
3.723157e-05
3.7230588e-05
3.7231793e-05
3.7235117e-05
3.7240495e-05
3.7247759e-05
3.7253124e-05
3.7260429e-05
3.7269374e-05
3.7278542e-05
3.7289353e-05
3.7301682e-05
3.7315445e-05
3.7330563e-05
3.7346958e-05
3.7364551e-05
3.7383275e-05
3.7403036e-05
3.7423762e-05
3.7445368e-05
3.7467767e-05
3.7490872e-05
3.751459e-05
3.7538826e-05
3.7563483e-05
3.758846e-05
3.7613655e-05
3.7638962e-05
3.7664289e-05
3.7689524e-05
3.7714574e-05
3.7739342e-05
3.776374e-05
3.7787685e-05
3.7811095e-05
3.7833913e-05
3.7856067e-05
3.7877508e-05
3.7898193e-05
3.7918088e-05
3.7937161e-05
3.7955407e-05
3.7972804e-05
3.7989351e-05
3.800505e-05
3.801991e-05
3.8033937e-05
3.8047157e-05
3.8059576e-05
3.8070528e-05
3.8080636e-05
3.8090015e-05
3.809868e-05
3.8106657e-05
3.8113952e-05
3.8120584e-05
3.8126329e-05
3.8130482e-05
3.8134146e-05
3.8137482e-05
3.8140402e-05
3.8141082e-05
3.7352414e-05
3.7346514e-05
3.734901e-05
3.7354115e-05
3.736209e-05
3.7372762e-05
3.7385886e-05
3.739812e-05
3.7408493e-05
3.7417788e-05
3.742728e-05
3.7438933e-05
3.7452497e-05
3.7467989e-05
3.748507e-05
3.7503671e-05
3.7523395e-05
3.7544132e-05
3.756545e-05
3.7587214e-05
3.7608972e-05
3.7630579e-05
3.7651585e-05
3.7671856e-05
3.7690965e-05
3.7708811e-05
3.7725011e-05
3.7739514e-05
3.7751994e-05
3.7762453e-05
3.7770617e-05
3.7765708e-05
3.7754793e-05
3.7741229e-05
3.7725313e-05
3.7707062e-05
3.7686822e-05
3.7664658e-05
3.7640959e-05
3.7615826e-05
3.7589673e-05
3.7562633e-05
3.7535079e-05
3.7507247e-05
3.7479418e-05
3.7451861e-05
3.7424831e-05
3.7398586e-05
3.7373347e-05
3.7349334e-05
3.7326741e-05
3.7305744e-05
3.7286491e-05
3.7269123e-05
3.7253732e-05
3.7240404e-05
3.7229196e-05
3.7220141e-05
3.7213248e-05
3.7208522e-05
3.7205925e-05
3.7205418e-05
3.7206948e-05
3.7210447e-05
3.7215841e-05
3.7223046e-05
3.7231101e-05
3.7235835e-05
3.7238583e-05
3.72432e-05
3.7249613e-05
3.7257746e-05
3.7267535e-05
3.7278889e-05
3.7291736e-05
3.7306002e-05
3.7321615e-05
3.7338494e-05
3.735658e-05
3.737578e-05
3.7396026e-05
3.7417237e-05
3.7439329e-05
3.7462219e-05
3.7485815e-05
3.7510027e-05
3.7534756e-05
3.7559904e-05
3.7585365e-05
3.7611032e-05
3.7636811e-05
3.7662584e-05
3.768825e-05
3.771371e-05
3.7738865e-05
3.7763623e-05
3.7787896e-05
3.7811618e-05
3.7834707e-05
3.7857107e-05
3.7878766e-05
3.7899641e-05
3.7919697e-05
3.793892e-05
3.7957283e-05
3.7974782e-05
3.7991417e-05
3.8007191e-05
3.8022111e-05
3.8036202e-05
3.8049469e-05
3.8061935e-05
3.807362e-05
3.8084542e-05
3.8094716e-05
3.810417e-05
3.8112907e-05
3.812094e-05
3.8128035e-05
3.8133465e-05
3.8138272e-05
3.8142487e-05
3.8145043e-05
3.8145146e-05
3.7325093e-05
3.7324466e-05
3.7330991e-05
3.7340283e-05
3.7352369e-05
3.7367078e-05
3.7378173e-05
3.7384769e-05
3.7389326e-05
3.7396035e-05
3.7404772e-05
3.7415685e-05
3.742858e-05
3.7443529e-05
3.7460252e-05
3.7478728e-05
3.7498595e-05
3.7519763e-05
3.7541809e-05
3.7564596e-05
3.7587661e-05
3.7610842e-05
3.7633662e-05
3.7655956e-05
3.767726e-05
3.7697429e-05
3.7716034e-05
3.7732973e-05
3.7747868e-05
3.7760673e-05
3.7771074e-05
3.7762729e-05
3.7748576e-05
3.7731766e-05
3.7712663e-05
3.769134e-05
3.7668192e-05
3.7643328e-05
3.7617173e-05
3.7589857e-05
3.7561821e-05
3.7533213e-05
3.750442e-05
3.7475683e-05
3.7447283e-05
3.7419483e-05
3.7392527e-05
3.736666e-05
3.7342084e-05
3.7318997e-05
3.7297571e-05
3.7277957e-05
3.7260277e-05
3.7244646e-05
3.723113e-05
3.7219788e-05
3.7210653e-05
3.7203736e-05
3.7199022e-05
3.7196496e-05
3.71961e-05
3.719778e-05
3.7201465e-05
3.7207078e-05
3.721453e-05
3.722373e-05
3.722794e-05
3.7227052e-05
3.7228164e-05
3.7231218e-05
3.7236148e-05
3.7242883e-05
3.725136e-05
3.7261489e-05
3.7273198e-05
3.728641e-05
3.730105e-05
3.731704e-05
3.7334321e-05
3.7352803e-05
3.7372421e-05
3.7393096e-05
3.7414749e-05
3.7437299e-05
3.7460657e-05
3.7484733e-05
3.7509431e-05
3.753465e-05
3.7560284e-05
3.7586222e-05
3.7612365e-05
3.7638591e-05
3.7664793e-05
3.7690862e-05
3.7716693e-05
3.7742185e-05
3.776724e-05
3.7791783e-05
3.7815724e-05
3.7838997e-05
3.7861542e-05
3.7883309e-05
3.7904256e-05
3.7924362e-05
3.7943596e-05
3.796195e-05
3.7979419e-05
3.7996006e-05
3.8011715e-05
3.8026573e-05
3.8040583e-05
3.805377e-05
3.8066154e-05
3.8077754e-05
3.8088587e-05
3.809868e-05
3.8108034e-05
3.8116662e-05
3.8124561e-05
3.8131718e-05
3.8138081e-05
3.8143582e-05
3.8147142e-05
3.8147359e-05
3.7315773e-05
3.7318239e-05
3.732676e-05
3.7338172e-05
3.7352347e-05
3.7364627e-05
3.7366528e-05
3.7367205e-05
3.7369938e-05
3.7374981e-05
3.7382248e-05
3.7391922e-05
3.7403835e-05
3.7418081e-05
3.7434395e-05
3.7452772e-05
3.7472859e-05
3.749457e-05
3.7517483e-05
3.7541454e-05
3.7566009e-05
3.7590968e-05
3.7615833e-05
3.764041e-05
3.7664204e-05
3.7687037e-05
3.7708441e-05
3.7728277e-05
3.7746126e-05
3.7761899e-05
3.7775237e-05
3.7763702e-05
3.7746903e-05
3.7727438e-05
3.7705703e-05
3.7681809e-05
3.7656186e-05
3.7628972e-05
3.760062e-05
3.7571285e-05
3.7541428e-05
3.7511212e-05
3.7481038e-05
3.7451157e-05
3.7421857e-05
3.7393403e-05
3.7366041e-05
3.7340013e-05
3.7315516e-05
3.7292743e-05
3.7271856e-05
3.7252995e-05
3.7236269e-05
3.7221778e-05
3.7209574e-05
3.7199698e-05
3.7192165e-05
3.7186965e-05
3.7184067e-05
3.7183433e-05
3.7184987e-05
3.7188655e-05
3.7194349e-05
3.7201971e-05
3.721142e-05
3.7221519e-05
3.7218874e-05
3.7216311e-05
3.7215833e-05
3.7217382e-05
3.7220891e-05
3.7226284e-05
3.7233496e-05
3.7242438e-05
3.7253036e-05
3.7265215e-05
3.7278902e-05
3.7294021e-05
3.7310515e-05
3.7328297e-05
3.7347306e-05
3.7367468e-05
3.7388705e-05
3.7410941e-05
3.7434089e-05
3.7458061e-05
3.7482762e-05
3.7508088e-05
3.7533934e-05
3.7560184e-05
3.7586736e-05
3.7613459e-05
3.7640241e-05
3.7666964e-05
3.7693515e-05
3.7719783e-05
3.7745662e-05
3.7771065e-05
3.7795894e-05
3.7820074e-05
3.7843537e-05
3.7866225e-05
3.7888087e-05
3.7909099e-05
3.7929223e-05
3.7948448e-05
3.7966767e-05
3.798418e-05
3.8000691e-05
3.8016324e-05
3.8031088e-05
3.8045005e-05
3.8058097e-05
3.8070389e-05
3.8081896e-05
3.809265e-05
3.8102652e-05
3.8111915e-05
3.8120435e-05
3.8128193e-05
3.8135135e-05
3.8141195e-05
3.8146265e-05
3.8147445e-05
3.7307345e-05
3.7312224e-05
3.7322562e-05
3.7335908e-05
3.7352032e-05
3.7354033e-05
3.7350438e-05
3.7349049e-05
3.7349869e-05
3.7353184e-05
3.7358932e-05
3.7367324e-05
3.7378218e-05
3.7391732e-05
3.7407625e-05
3.7425911e-05
3.744625e-05
3.7468565e-05
3.7492431e-05
3.7517695e-05
3.7543867e-05
3.7570744e-05
3.7597801e-05
3.7624809e-05
3.7651238e-05
3.7676868e-05
3.7701189e-05
3.7724019e-05
3.7744893e-05
3.7763685e-05
3.7779996e-05
3.7765424e-05
3.7745863e-05
3.7723643e-05
3.7699194e-05
3.7672657e-05
3.7644493e-05
3.7614865e-05
3.7584252e-05
3.7552827e-05
3.752107e-05
3.7489162e-05
3.7457515e-05
3.7426389e-05
3.7396081e-05
3.7366862e-05
3.733898e-05
3.7312678e-05
3.7288151e-05
3.7265588e-05
3.7245144e-05
3.7226951e-05
3.7211106e-05
3.7197698e-05
3.7186761e-05
3.7178321e-05
3.7172373e-05
3.7168887e-05
3.716781e-05
3.7169083e-05
3.7172608e-05
3.7178289e-05
3.7186016e-05
3.7195675e-05
3.7207144e-05
3.7214972e-05
3.7208501e-05
3.7204245e-05
3.7202164e-05
3.7202199e-05
3.7204282e-05
3.7208335e-05
3.7214293e-05
3.7222063e-05
3.7231572e-05
3.7242742e-05
3.7255502e-05
3.7269776e-05
3.728551e-05
3.730262e-05
3.732105e-05
3.7340729e-05
3.7361584e-05
3.7383542e-05
3.740652e-05
3.7430431e-05
3.7455179e-05
3.7480663e-05
3.7506772e-05
3.7533388e-05
3.7560402e-05
3.7587678e-05
3.7615096e-05
3.7642528e-05
3.7669852e-05
3.7696948e-05
3.7723698e-05
3.7750007e-05
3.7775764e-05
3.7800887e-05
3.7825299e-05
3.7848933e-05
3.7871732e-05
3.7893666e-05
3.7914692e-05
3.7934795e-05
3.7953965e-05
3.7972202e-05
3.7989508e-05
3.8005908e-05
3.8021411e-05
3.8036042e-05
3.8049825e-05
3.8062785e-05
3.8074942e-05
3.8086329e-05
3.8096951e-05
3.810682e-05
3.8115938e-05
3.8124287e-05
3.8131825e-05
3.8138502e-05
3.814421e-05
3.8146191e-05
3.7297822e-05
3.7304614e-05
3.7316631e-05
3.7331808e-05
3.7345528e-05
3.7338535e-05
3.7332575e-05
3.732897e-05
3.7327757e-05
3.7329252e-05
3.7333428e-05
3.7340524e-05
3.7350423e-05
3.7363264e-05
3.7378824e-05
3.739713e-05
3.7417851e-05
3.7440909e-05
3.7465875e-05
3.7492585e-05
3.7520531e-05
3.7549487e-05
3.7578897e-05
3.7608502e-05
3.7637733e-05
3.7666329e-05
3.7693739e-05
3.7719736e-05
3.7743813e-05
3.7765797e-05
3.7785248e-05
3.7767924e-05
3.7745561e-05
3.7720526e-05
3.7693282e-05
3.7664005e-05
3.7633186e-05
3.7601021e-05
3.7568013e-05
3.7534361e-05
3.7500563e-05
3.7466818e-05
3.7433552e-05
3.7401039e-05
3.7369583e-05
3.7339462e-05
3.731093e-05
3.728423e-05
3.7259559e-05
3.72371e-05
3.7217004e-05
3.7199396e-05
3.7184362e-05
3.7171977e-05
3.7162261e-05
3.7155223e-05
3.7150839e-05
3.7149058e-05
3.7149806e-05
3.7153e-05
3.7158519e-05
3.7166245e-05
3.7176047e-05
3.7187787e-05
3.7201327e-05
3.7204715e-05
3.7196489e-05
3.7190575e-05
3.718693e-05
3.7185493e-05
3.7186192e-05
3.7188946e-05
3.7193685e-05
3.7200316e-05
3.7208762e-05
3.7218948e-05
3.7230803e-05
3.7244253e-05
3.7259247e-05
3.7275707e-05
3.7293579e-05
3.7312799e-05
3.7333298e-05
3.7355008e-05
3.7377849e-05
3.7401735e-05
3.7426573e-05
3.7452259e-05
3.7478681e-05
3.7505715e-05
3.7533248e-05
3.7561136e-05
3.7589248e-05
3.761745e-05
3.7645608e-05
3.767359e-05
3.7701268e-05
3.7728537e-05
3.7755276e-05
3.7781391e-05
3.7806796e-05
3.7831417e-05
3.7855191e-05
3.787808e-05
3.7900038e-05
3.7921044e-05
3.7941088e-05
3.7960167e-05
3.7978285e-05
3.7995466e-05
3.8011721e-05
3.8027076e-05
3.8041559e-05
3.8055198e-05
3.8068016e-05
3.8080047e-05
3.8091301e-05
3.8101793e-05
3.8111524e-05
3.8120483e-05
3.8128633e-05
3.8135938e-05
3.8142308e-05
3.8145096e-05
3.7286455e-05
3.7295077e-05
3.7308859e-05
3.7325958e-05
3.73324e-05
3.7321918e-05
3.7313543e-05
3.7307675e-05
3.7304382e-05
3.7304017e-05
3.7306585e-05
3.7312357e-05
3.7321244e-05
3.7333412e-05
3.7348657e-05
3.7367024e-05
3.7388189e-05
3.7412077e-05
3.7438252e-05
3.7466535e-05
3.7496401e-05
3.7527591e-05
3.7559519e-05
3.7591884e-05
3.7624077e-05
3.7655791e-05
3.768643e-05
3.7715717e-05
3.77431e-05
3.7768364e-05
3.7791025e-05
3.7771146e-05
3.774583e-05
3.7717826e-05
3.7687637e-05
3.7655472e-05
3.7621856e-05
3.7587014e-05
3.7551475e-05
3.7515461e-05
3.7479493e-05
3.7443786e-05
3.7408783e-05
3.7374769e-05
3.7342059e-05
3.7310939e-05
3.7281668e-05
3.7254491e-05
3.7229606e-05
3.7207193e-05
3.7187399e-05
3.717034e-05
3.7156093e-05
3.714472e-05
3.7136226e-05
3.7130601e-05
3.71278e-05
3.7127754e-05
3.7130361e-05
3.7135516e-05
3.7143074e-05
3.7152891e-05
3.7164813e-05
3.7178678e-05
3.719433e-05
3.7193091e-05
3.71831e-05
3.7175523e-05
3.7170317e-05
3.7167417e-05
3.7166745e-05
3.7168217e-05
3.7171758e-05
3.7177272e-05
3.7184679e-05
3.7193904e-05
3.7204875e-05
3.7217522e-05
3.7231798e-05
3.7247627e-05
3.7264964e-05
3.7283748e-05
3.7303918e-05
3.7325409e-05
3.7348146e-05
3.7372046e-05
3.7397015e-05
3.742295e-05
3.7449735e-05
3.7477242e-05
3.750535e-05
3.7533908e-05
3.7562775e-05
3.7591806e-05
3.7620856e-05
3.7649782e-05
3.7678443e-05
3.7706722e-05
3.7734488e-05
3.7761637e-05
3.7788073e-05
3.7813714e-05
3.7838488e-05
3.7862353e-05
3.7885257e-05
3.7907178e-05
3.7928102e-05
3.7948026e-05
3.7966952e-05
3.7984909e-05
3.8001906e-05
3.8017975e-05
3.8033146e-05
3.804745e-05
3.8060915e-05
3.807358e-05
3.8085457e-05
3.8096568e-05
3.8106921e-05
3.811651e-05
3.8125311e-05
3.8133303e-05
3.8140414e-05
3.814407e-05
3.7273361e-05
3.728363e-05
3.7299116e-05
3.7318117e-05
3.7316924e-05
3.730375e-05
3.729281e-05
3.728454e-05
3.7279051e-05
3.7276733e-05
3.7277628e-05
3.728204e-05
3.7289911e-05
3.7301431e-05
3.7316417e-05
3.7334926e-05
3.7356642e-05
3.7381487e-05
3.7409017e-05
3.7439037e-05
3.7470996e-05
3.7504606e-05
3.7539245e-05
3.7574572e-05
3.760993e-05
3.7644966e-05
3.7679035e-05
3.771181e-05
3.7742691e-05
3.7771414e-05
3.7797451e-05
3.7775269e-05
3.7746894e-05
3.7715803e-05
3.7682535e-05
3.764734e-05
3.7610775e-05
3.7573099e-05
3.753487e-05
3.7496337e-05
3.7458041e-05
3.7420219e-05
3.7383329e-05
3.7347672e-05
3.7313573e-05
3.7281327e-05
3.7251198e-05
3.7223437e-05
3.7198241e-05
3.717579e-05
3.7156226e-05
3.7139658e-05
3.7126152e-05
3.7115759e-05
3.7108468e-05
3.710425e-05
3.7103042e-05
3.7104748e-05
3.7109245e-05
3.7116401e-05
3.7126045e-05
3.7138007e-05
3.7152105e-05
3.7168158e-05
3.7185984e-05
3.7179915e-05
3.7168173e-05
3.7158958e-05
3.7152221e-05
3.714789e-05
3.7145883e-05
3.7146106e-05
3.7148481e-05
3.7152905e-05
3.71593e-05
3.7167585e-05
3.7177692e-05
3.7189554e-05
3.7203126e-05
3.7218341e-05
3.7235159e-05
3.7253527e-05
3.7273389e-05
3.7294687e-05
3.7317351e-05
3.7341301e-05
3.7366444e-05
3.7392675e-05
3.7419877e-05
3.7447915e-05
3.747666e-05
3.7505954e-05
3.7535645e-05
3.7565575e-05
3.7595587e-05
3.7625526e-05
3.7655237e-05
3.7684592e-05
3.7713447e-05
3.7741687e-05
3.7769207e-05
3.7795915e-05
3.7821734e-05
3.7846613e-05
3.7870497e-05
3.7893361e-05
3.7915188e-05
3.7935975e-05
3.7955726e-05
3.7974469e-05
3.7992217e-05
3.8009005e-05
3.8024866e-05
3.8039836e-05
3.8053947e-05
3.8067242e-05
3.8079739e-05
3.8091464e-05
3.8102432e-05
3.8112645e-05
3.812209e-05
3.8130761e-05
3.8138609e-05
3.8143109e-05
3.725822e-05
3.7270156e-05
3.7287411e-05
3.7308393e-05
3.730031e-05
3.7284343e-05
3.7270733e-05
3.7259962e-05
3.7252182e-05
3.7247825e-05
3.7246975e-05
3.7249973e-05
3.7256795e-05
3.7267658e-05
3.7282401e-05
3.7301098e-05
3.7323438e-05
3.7349342e-05
3.7378355e-05
3.7410263e-05
3.7444487e-05
3.7480705e-05
3.7518252e-05
3.755674e-05
3.7595465e-05
3.7634021e-05
3.7671707e-05
3.7708146e-05
3.7742685e-05
3.7775012e-05
3.7804552e-05
3.7780274e-05
3.7748675e-05
3.7714327e-05
3.7677812e-05
3.7639416e-05
3.7599736e-05
3.7559062e-05
3.7517983e-05
3.7476773e-05
3.7435999e-05
3.7395916e-05
3.7357002e-05
3.7319571e-05
3.7283961e-05
3.7250476e-05
3.7219389e-05
3.7190954e-05
3.716537e-05
3.7142816e-05
3.7123431e-05
3.7107316e-05
3.709453e-05
3.7085108e-05
3.7079025e-05
3.7076234e-05
3.7076647e-05
3.7080147e-05
3.7086583e-05
3.7095797e-05
3.7107588e-05
3.7121758e-05
3.7138098e-05
3.71564e-05
3.7176457e-05
3.7165291e-05
3.7151796e-05
3.714095e-05
3.7132697e-05
3.7126956e-05
3.7123638e-05
3.7122639e-05
3.7123875e-05
3.7127237e-05
3.7132641e-05
3.7140009e-05
3.714927e-05
3.7160361e-05
3.7173245e-05
3.7187859e-05
3.7204172e-05
3.7222139e-05
3.7241713e-05
3.7262842e-05
3.7285461e-05
3.7309494e-05
3.7334852e-05
3.7361426e-05
3.7389097e-05
3.7417723e-05
3.7447169e-05
3.7477264e-05
3.7507846e-05
3.7538744e-05
3.7569786e-05
3.7600805e-05
3.7631631e-05
3.7662122e-05
3.7692122e-05
3.7721505e-05
3.7750154e-05
3.7777969e-05
3.7804865e-05
3.7830786e-05
3.7855672e-05
3.7879495e-05
3.7902237e-05
3.7923895e-05
3.7944473e-05
3.7964002e-05
3.7982499e-05
3.8000001e-05
3.8016546e-05
3.8032176e-05
3.8046926e-05
3.8060848e-05
3.8073964e-05
3.8086308e-05
3.80979e-05
3.8108752e-05
3.8118862e-05
3.8128235e-05
3.8136842e-05
3.8142184e-05
3.7241103e-05
3.7254621e-05
3.7273617e-05
3.7296591e-05
3.7282352e-05
3.7263411e-05
3.7246961e-05
3.7233529e-05
3.7223317e-05
3.7216804e-05
3.7214115e-05
3.7215635e-05
3.7221373e-05
3.7231578e-05
3.7246112e-05
3.7265061e-05
3.7288122e-05
3.7315211e-05
3.7345861e-05
3.7379834e-05
3.7416522e-05
3.7455562e-05
3.7496245e-05
3.7538133e-05
3.7580467e-05
3.7622783e-05
3.7664326e-05
3.770466e-05
3.7743077e-05
3.7779212e-05
3.7812441e-05
3.7786295e-05
3.7751317e-05
3.7713547e-05
3.767361e-05
3.7631836e-05
3.7588859e-05
3.7545005e-05
3.7500895e-05
3.7456832e-05
3.7413406e-05
3.7370897e-05
3.73298e-05
3.7290445e-05
3.7253184e-05
3.7218333e-05
3.7186169e-05
3.7156955e-05
3.7130892e-05
3.7108158e-05
3.708889e-05
3.7073182e-05
3.7061085e-05
3.705262e-05
3.7047746e-05
3.7046397e-05
3.7048462e-05
3.70538e-05
3.706223e-05
3.7073565e-05
3.7087574e-05
3.7104028e-05
3.7122688e-05
3.7143316e-05
3.7165509e-05
3.7149112e-05
3.7133877e-05
3.7121423e-05
3.7111682e-05
3.7104566e-05
3.7099971e-05
3.7097786e-05
3.7097915e-05
3.7100243e-05
3.7104681e-05
3.711115e-05
3.7119581e-05
3.7129914e-05
3.7142117e-05
3.7156139e-05
3.7171956e-05
3.7189533e-05
3.7208833e-05
3.7229812e-05
3.7252413e-05
3.7276564e-05
3.7302177e-05
3.7329144e-05
3.7357339e-05
3.7386618e-05
3.7416833e-05
3.7447804e-05
3.7479354e-05
3.75113e-05
3.7543453e-05
3.7575631e-05
3.760765e-05
3.7639351e-05
3.7670567e-05
3.7701158e-05
3.7730996e-05
3.7759973e-05
3.7787994e-05
3.7814998e-05
3.7840922e-05
3.7865733e-05
3.7889413e-05
3.7911959e-05
3.7933376e-05
3.7953699e-05
3.7972947e-05
3.7991163e-05
3.8008389e-05
3.8024671e-05
3.8040053e-05
3.8054591e-05
3.8068314e-05
3.8081264e-05
3.8093468e-05
3.8104947e-05
3.8115711e-05
3.8125777e-05
3.8135131e-05
3.8141294e-05
3.7221762e-05
3.7236897e-05
3.7257685e-05
3.7282726e-05
3.7263201e-05
3.7241131e-05
3.7221684e-05
3.720544e-05
3.7192653e-05
3.7183854e-05
3.7179217e-05
3.7179173e-05
3.718377e-05
3.7193292e-05
3.7207624e-05
3.722687e-05
3.7250732e-05
3.7279122e-05
3.7311558e-05
3.7347775e-05
3.7387129e-05
3.7429216e-05
3.7473274e-05
3.751881e-05
3.7565003e-05
3.7611329e-05
3.7656968e-05
3.7701426e-05
3.7743934e-05
3.7784073e-05
3.7821169e-05
3.7793351e-05
3.77548e-05
3.7713409e-05
3.7669851e-05
3.7624499e-05
3.7578029e-05
3.7530804e-05
3.7483476e-05
3.7436379e-05
3.7390129e-05
3.7345028e-05
3.7301592e-05
3.7260166e-05
3.7221118e-05
3.7184775e-05
3.7151424e-05
3.7121332e-05
3.7094705e-05
3.7071724e-05
3.7052521e-05
3.7037185e-05
3.7025758e-05
3.7018249e-05
3.7014601e-05
3.7014724e-05
3.7018489e-05
3.7025722e-05
3.7036217e-05
3.7049752e-05
3.7066063e-05
3.7084887e-05
3.7105952e-05
3.7128989e-05
3.7151354e-05
3.7131397e-05
3.7114428e-05
3.7100383e-05
3.7089182e-05
3.7080722e-05
3.7074886e-05
3.707155e-05
3.7070604e-05
3.7071928e-05
3.7075425e-05
3.7081014e-05
3.7088627e-05
3.7098211e-05
3.710974e-05
3.7123174e-05
3.7138498e-05
3.7155691e-05
3.7174727e-05
3.7195573e-05
3.7218178e-05
3.7242477e-05
3.7268385e-05
3.7295792e-05
3.7324569e-05
3.7354563e-05
3.7385618e-05
3.7417539e-05
3.7450137e-05
3.748321e-05
3.7516555e-05
3.7549971e-05
3.7583259e-05
3.7616244e-05
3.7648743e-05
3.7680603e-05
3.7711686e-05
3.7741873e-05
3.7771061e-05
3.7799184e-05
3.7826174e-05
3.7851995e-05
3.787663e-05
3.7900075e-05
3.792234e-05
3.794346e-05
3.7963459e-05
3.7982386e-05
3.8000288e-05
3.8017219e-05
3.8033227e-05
3.8048376e-05
3.8062704e-05
3.8076258e-05
3.8089074e-05
3.8101183e-05
3.8112604e-05
3.8123363e-05
3.8133461e-05
3.8140429e-05
3.7200197e-05
3.7216903e-05
3.7239477e-05
3.7266616e-05
3.7242725e-05
3.7217313e-05
3.7194663e-05
3.7175411e-05
3.7159871e-05
3.7148629e-05
3.7141915e-05
3.7140207e-05
3.7143599e-05
3.715241e-05
3.7166555e-05
3.7186151e-05
3.7210908e-05
3.7240731e-05
3.727512e-05
3.7313782e-05
3.7356033e-05
3.7401419e-05
3.7449123e-05
3.7498588e-05
3.7548928e-05
3.7599552e-05
3.7649572e-05
3.7698426e-05
3.7745284e-05
3.7789667e-05
3.7830846e-05
3.7801553e-05
3.7759227e-05
3.7714004e-05
3.7666611e-05
3.7617467e-05
3.756729e-05
3.7516482e-05
3.7465731e-05
3.7415402e-05
3.7366137e-05
3.7318263e-05
3.7272315e-05
3.7228659e-05
3.7187675e-05
3.7149704e-05
3.7115043e-05
3.7083967e-05
3.7056687e-05
3.7033383e-05
3.7014188e-05
3.6999187e-05
3.6988412e-05
3.6981859e-05
3.6979453e-05
3.6981088e-05
3.6986604e-05
3.6995802e-05
3.7008442e-05
3.7024268e-05
3.7042978e-05
3.7064274e-05
3.7087847e-05
3.7113393e-05
3.7133912e-05
3.711207e-05
3.7093384e-05
3.7077776e-05
3.7065151e-05
3.7055389e-05
3.7048355e-05
3.7043908e-05
3.7041926e-05
3.7042275e-05
3.7044855e-05
3.704958e-05
3.7056387e-05
3.7065225e-05
3.707608e-05
3.7088922e-05
3.7103752e-05
3.7120562e-05
3.7139339e-05
3.7160062e-05
3.7182691e-05
3.7207169e-05
3.723341e-05
3.7261308e-05
3.7290727e-05
3.7321506e-05
3.7353478e-05
3.7386434e-05
3.7420167e-05
3.745446e-05
3.7489089e-05
3.7523836e-05
3.7558482e-05
3.7592835e-05
3.7626698e-05
3.7659901e-05
3.7692296e-05
3.7723752e-05
3.775416e-05
3.7783446e-05
3.7811538e-05
3.78384e-05
3.7864012e-05
3.7888372e-05
3.7911493e-05
3.7933415e-05
3.7954165e-05
3.7973799e-05
3.799237e-05
3.8009938e-05
3.8026559e-05
3.8042306e-05
3.8057223e-05
3.8071365e-05
3.808478e-05
3.8097505e-05
3.8109568e-05
3.8121009e-05
3.8131835e-05
3.8139588e-05
3.7176193e-05
3.7194495e-05
3.7218898e-05
3.7248208e-05
3.7221015e-05
3.7192049e-05
3.7165983e-05
3.7143519e-05
3.712503e-05
3.7111169e-05
3.7102224e-05
3.709873e-05
3.710083e-05
3.7108883e-05
3.7122834e-05
3.7142822e-05
3.7168559e-05
3.7199947e-05
3.7236463e-05
3.7277781e-05
3.7323172e-05
3.7372127e-05
3.7423766e-05
3.7477463e-05
3.7532258e-05
3.7587486e-05
3.7642185e-05
3.7695721e-05
3.7747196e-05
3.7796069e-05
3.7841554e-05
3.7810952e-05
3.7764614e-05
3.7715323e-05
3.7663857e-05
3.7610687e-05
3.7556574e-05
3.7501961e-05
3.7447573e-05
3.7393804e-05
3.7341328e-05
3.7290494e-05
3.7241859e-05
3.7195809e-05
3.7152739e-05
3.7113003e-05
3.707691e-05
3.7044744e-05
3.7016721e-05
3.6993024e-05
3.6973787e-05
3.6959088e-05
3.6948952e-05
3.6943364e-05
3.6942232e-05
3.6945425e-05
3.695276e-05
3.6964005e-05
3.6978885e-05
3.6997107e-05
3.701833e-05
3.7042212e-05
3.7068406e-05
3.7096569e-05
3.7114828e-05
3.7091102e-05
3.7070716e-05
3.7053577e-05
3.703957e-05
3.7028552e-05
3.7020368e-05
3.7014856e-05
3.7011878e-05
3.7011287e-05
3.7012975e-05
3.7016853e-05
3.7022858e-05
3.7030951e-05
3.7041127e-05
3.7053369e-05
3.7067695e-05
3.7084114e-05
3.7102631e-05
3.7123238e-05
3.7145907e-05
3.7170588e-05
3.7197202e-05
3.7225639e-05
3.7255761e-05
3.7287397e-05
3.7320366e-05
3.7354444e-05
3.7389406e-05
3.7425013e-05
3.7461022e-05
3.7497193e-05
3.7533288e-05
3.7569097e-05
3.7604403e-05
3.7639024e-05
3.7672796e-05
3.770558e-05
3.7737257e-05
3.7767748e-05
3.7796976e-05
3.7824905e-05
3.7851514e-05
3.7876804e-05
3.790079e-05
3.7923517e-05
3.7945018e-05
3.7965355e-05
3.7984589e-05
3.8002787e-05
3.8020013e-05
3.8036348e-05
3.8051844e-05
3.8066566e-05
3.8080569e-05
3.8093901e-05
3.8106598e-05
3.8118708e-05
3.8130249e-05
3.8138769e-05
3.7149691e-05
3.7169559e-05
3.7195794e-05
3.7227322e-05
3.7197988e-05
3.716521e-05
3.7135476e-05
3.7109554e-05
3.7087891e-05
3.7071206e-05
3.7059855e-05
3.7054434e-05
3.7055142e-05
3.7062382e-05
3.7076134e-05
3.7096556e-05
3.712337e-05
3.7156466e-05
3.7195299e-05
3.7239506e-05
3.7288308e-05
3.7341133e-05
3.739703e-05
3.7455296e-05
3.7514893e-05
3.7575069e-05
3.7634785e-05
3.7693327e-05
3.7749725e-05
3.780337e-05
3.7853418e-05
3.7821651e-05
3.7771048e-05
3.7717431e-05
3.7661636e-05
3.7604184e-05
3.7545886e-05
3.7487227e-05
3.7428968e-05
3.7371538e-05
3.7315637e-05
3.7261643e-05
3.7210134e-05
3.7161514e-05
3.7116198e-05
3.7074551e-05
3.7036898e-05
3.7003529e-05
3.6974668e-05
3.6950505e-05
3.693117e-05
3.6916743e-05
3.6907238e-05
3.6902628e-05
3.6902805e-05
3.6907615e-05
3.6916846e-05
3.6930235e-05
3.6947467e-05
3.6968208e-05
3.6992073e-05
3.7018675e-05
3.704762e-05
3.7078525e-05
3.7094031e-05
3.7068428e-05
3.704637e-05
3.702774e-05
3.7012401e-05
3.7000184e-05
3.6990906e-05
3.6984382e-05
3.6980453e-05
3.6978958e-05
3.6979778e-05
3.6982822e-05
3.698803e-05
3.6995371e-05
3.7004853e-05
3.7016478e-05
3.7030283e-05
3.7046298e-05
3.7064544e-05
3.7085035e-05
3.7107755e-05
3.7132664e-05
3.7159688e-05
3.7188718e-05
3.7219608e-05
3.7252179e-05
3.7286233e-05
3.732153e-05
3.7357822e-05
3.739485e-05
3.7432347e-05
3.7470049e-05
3.7507696e-05
3.7545058e-05
3.7581899e-05
3.7618021e-05
3.7653246e-05
3.7687424e-05
3.7720427e-05
3.775217e-05
3.7782574e-05
3.7811599e-05
3.7839227e-05
3.7865461e-05
3.789032e-05
3.7913854e-05
3.7936104e-05
3.7957136e-05
3.7977021e-05
3.7995835e-05
3.801365e-05
3.8030555e-05
3.8046613e-05
3.8061897e-05
3.8076471e-05
3.8090391e-05
3.8103705e-05
3.8116468e-05
3.8128705e-05
3.8137972e-05
3.7120487e-05
3.7141931e-05
3.7170032e-05
3.7203847e-05
3.7173702e-05
3.7136842e-05
3.7103167e-05
3.7073522e-05
3.7048429e-05
3.7028687e-05
3.7014725e-05
3.7007209e-05
3.70064e-05
3.7012752e-05
3.7026283e-05
3.7047176e-05
3.7075158e-05
3.7110111e-05
3.7151465e-05
3.7198812e-05
3.7251317e-05
3.7308337e-05
3.7368845e-05
3.7432048e-05
3.749682e-05
3.7562319e-05
3.7627415e-05
3.769131e-05
3.7752957e-05
3.7811674e-05
3.7866553e-05
3.7833723e-05
3.777857e-05
3.7720342e-05
3.7659935e-05
3.7597928e-05
3.7535179e-05
3.7472217e-05
3.7409842e-05
3.7348517e-05
3.7288972e-05
3.723161e-05
3.7177032e-05
3.7125662e-05
3.7077932e-05
3.7034226e-05
3.6994877e-05
3.6960191e-05
3.6930398e-05
3.6905693e-05
3.6886211e-05
3.6872025e-05
3.6863147e-05
3.6859537e-05
3.6861068e-05
3.6867564e-05
3.6878784e-05
3.6894426e-05
3.6914138e-05
3.6937538e-05
3.6964192e-05
3.6993662e-05
3.7025507e-05
3.7059292e-05
3.7071452e-05
3.7043986e-05
3.7020289e-05
3.7000221e-05
3.6983612e-05
3.6970261e-05
3.6959956e-05
3.6952481e-05
3.6947654e-05
3.6945295e-05
3.6945273e-05
3.6947495e-05
3.6951904e-05
3.695848e-05
3.6967248e-05
3.697823e-05
3.6991487e-05
3.7007072e-05
3.7025032e-05
3.7045399e-05
3.7068175e-05
3.7093333e-05
3.7120804e-05
3.7150478e-05
3.7182204e-05
3.721579e-05
3.7251024e-05
3.7287642e-05
3.7325375e-05
3.7363937e-05
3.7403035e-05
3.744238e-05
3.7481688e-05
3.7520705e-05
3.7559177e-05
3.7596886e-05
3.763364e-05
3.7669279e-05
3.7703664e-05
3.7736707e-05
3.7768324e-05
3.7798476e-05
3.7827144e-05
3.7854336e-05
3.7880076e-05
3.7904418e-05
3.7927413e-05
3.7949134e-05
3.7969661e-05
3.7989078e-05
3.8007468e-05
3.8024928e-05
3.8041531e-05
3.805736e-05
3.8072487e-05
3.8086979e-05
3.8100892e-05
3.8114289e-05
3.8127203e-05
3.8137196e-05
3.7088475e-05
3.7111467e-05
3.7141438e-05
3.7177593e-05
3.7148114e-05
3.7106857e-05
3.7068929e-05
3.7035255e-05
3.7006445e-05
3.698338e-05
3.6966576e-05
3.6956774e-05
3.6954305e-05
3.6959681e-05
3.6972963e-05
3.6994361e-05
3.7023612e-05
3.7060585e-05
3.7104681e-05
3.7155444e-05
3.7211974e-05
3.7273552e-05
3.7339059e-05
3.7407607e-05
3.747797e-05
3.7549205e-05
3.7620086e-05
3.7689721e-05
3.7756978e-05
3.7821099e-05
3.7881109e-05
3.7847272e-05
3.7787257e-05
3.7724108e-05
3.7658784e-05
3.7591924e-05
3.7524437e-05
3.7456898e-05
3.7390144e-05
3.7324675e-05
3.726125e-05
3.7200298e-05
3.7142444e-05
3.7088133e-05
3.7037815e-05
3.6991889e-05
3.6950706e-05
3.6914582e-05
3.6883757e-05
3.6858433e-05
3.6838749e-05
3.6824779e-05
3.6816527e-05
3.6813943e-05
3.6816883e-05
3.6825146e-05
3.683846e-05
3.6856485e-05
3.6878823e-05
3.6905043e-05
3.6934655e-05
3.6967167e-05
3.7002078e-05
3.7038902e-05
3.7047016e-05
3.7017707e-05
3.6992418e-05
3.6970973e-05
3.6953169e-05
3.6938764e-05
3.6927509e-05
3.6919154e-05
3.6913487e-05
3.6910306e-05
3.6909469e-05
3.6910877e-05
3.691448e-05
3.692027e-05
3.6928293e-05
3.6938594e-05
3.6951264e-05
3.6966385e-05
3.698403e-05
3.7004258e-05
3.7027091e-05
3.7052514e-05
3.7080467e-05
3.711084e-05
3.7143475e-05
3.7178166e-05
3.7214682e-05
3.7252735e-05
3.729203e-05
3.7332251e-05
3.7373077e-05
3.741419e-05
3.7455279e-05
3.7496065e-05
3.7536271e-05
3.7575662e-05
3.7614031e-05
3.7651203e-05
3.7687033e-05
3.7721427e-05
3.7754298e-05
3.7785606e-05
3.7815336e-05
3.7843498e-05
3.7870123e-05
3.7895274e-05
3.7919007e-05
3.7941406e-05
3.796256e-05