/*--------------------------------*- C++ -*----------------------------------*\
| =========                 |                                                 |
| \\      /  F ield         | foam-extend: Open Source CFD                    |
|  \\    /   O peration     | Version:     4.1                                |
|   \\  /    A nd           | Web:         http://www.foam-extend.org         |
|    \\/     M anipulation  |                                                 |
\*---------------------------------------------------------------------------*/
FoamFile
{
    version     2.0;
    format      ascii;
    class       volScalarField;
    location    "0.4";
    object      rAU;
}
// * * * * * * * * * * * * * * * * * * * * * * * * * * * * * * * * * * * * * //

dimensions      [0 0 1 0 0 0 0];

internalField   nonuniform List<scalar> 
16796
(
0.00012941915
0.00012935535
0.00012930936
0.0001292549
0.00012918992
0.00012911526
0.00012902861
0.00012893085
0.00012881987
0.0001286968
0.00012855981
0.00012841033
0.00012824683
0.0001280711
0.00012788191
0.00012768136
0.00012746857
0.00012724594
0.00012701285
0.00012677198
0.00012652296
0.00012626866
0.0001260089
0.00012574667
0.00012548189
0.00012521762
0.0001249538
0.00012469345
0.00012443645
0.00012418574
0.00012394104
0.00012370471
0.00012347783
0.00012326019
0.00012305414
0.0001228588
0.0001226762
0.00012250512
0.00012234726
0.00012220106
0.00012206783
0.00012194581
0.00012183544
0.0001217356
0.00012164552
0.00012156421
0.00012149054
0.00012142344
0.00012136151
0.00012130348
0.000121248
0.00012119374
0.00012113935
0.0001210837
0.00012102554
0.00012096387
0.0001208978
0.00012082663
0.00012074977
0.00012066702
0.00012057814
0.00012048326
0.0001203827
0.000120277
0.00012016687
0.00012005321
0.0001199372
0.00011981997
0.0001197029
0.00011958742
0.00011947504
0.00011936723
0.00011926563
0.00011917159
0.00011908656
0.00011901184
0.00011894859
0.0001188978
0.00011886044
0.00011883703
0.00011882819
0.00011882819
0.00011883432
0.00011885564
0.000118892
0.00011894308
0.00011900836
0.00011908711
0.00011917845
0.00011928135
0.00011939478
0.00011951741
0.00011964797
0.00011978512
0.00011992746
0.00012007362
0.00012022218
0.00012037189
0.00012052133
0.00012066927
0.00012081453
0.00012095598
0.00012109252
0.00012122332
0.00012134737
0.0001214639
0.00012157221
0.00012167165
0.00012176162
0.00012184175
0.00012191151
0.00012197058
0.00012201869
0.00012205561
0.00012208112
0.00012209525
0.00012208896
0.00012206876
0.00012203747
0.00012199565
0.0001219444
0.00012188423
0.00012181244
0.000121704
0.0001170688
0.00011708116
0.00011712151
0.00011714565
0.00011716209
0.00011717133
0.00011717122
0.00011716272
0.00011714395
0.00011711607
0.0001170774
0.00011702936
0.0001169705
0.00011690246
0.00011682407
0.00011673722
0.00011664097
0.00011653745
0.00011642596
0.00011630882
0.00011618553
0.00011605859
0.00011592763
0.00011579526
0.00011566119
0.00011552811
0.00011539573
0.0001152667
0.00011514073
0.00011502036
0.00011490518
0.00011479724
0.00011469741
0.00011460533
0.00011452311
0.0001144498
0.0001143872
0.00011433409
0.00011429198
0.00011425935
0.0001142374
0.00011422441
0.00011422078
0.00011422543
0.00011423765
0.00011425652
0.00011428098
0.00011431006
0.00011434248
0.00011437711
0.00011441273
0.00011444818
0.00011448227
0.00011451406
0.00011454246
0.00011456667
0.00011458598
0.00011459988
0.00011460796
0.00011461021
0.00011460655
0.00011459729
0.0001145829
0.00011456405
0.00011454159
0.00011451651
0.00011449009
0.00011446353
0.00011443827
0.00011441576
0.00011439749
0.00011438494
0.00011437968
0.00011438299
0.00011439624
0.00011442061
0.00011445716
0.00011450674
0.00011455386
0.00011460493
0.00011466969
0.00011474284
0.00011482181
0.0001149151
0.00011502284
0.00011514496
0.00011528121
0.00011543114
0.00011559418
0.00011576952
0.00011595642
0.00011615376
0.00011636051
0.00011657549
0.00011679751
0.00011702532
0.00011725761
0.00011749324
0.00011773086
0.0001179693
0.00011820737
0.00011844396
0.00011867798
0.00011890853
0.00011913458
0.0001193553
0.00011956991
0.00011977767
0.00011997791
0.00012017014
0.00012035373
0.00012052825
0.00012069329
0.00012084849
0.00012099349
0.00012112815
0.00012124334
0.00012134519
0.00012143615
0.00012151633
0.00012158593
0.00012163404
0.00012166392
0.0001216779
0.00011612986
0.00011614648
0.0001161824
0.00011620214
0.00011619412
0.00011617843
0.00011615336
0.00011612023
0.00011607756
0.00011602689
0.00011596696
0.00011589954
0.00011582357
0.00011574099
0.00011565095
0.00011555559
0.00011545421
0.00011534909
0.00011523968
0.00011512839
0.00011501475
0.00011490124
0.00011478746
0.0001146759
0.00011456615
0.0001144607
0.00011435908
0.00011426368
0.00011417393
0.0001140921
0.00011401746
0.00011395172
0.00011389541
0.00011384784
0.00011381074
0.00011378281
0.00011376552
0.00011375728
0.00011375928
0.00011376966
0.00011378933
0.00011381626
0.00011385062
0.00011389108
0.00011393673
0.00011398647
0.00011403911
0.00011408627
0.00011412956
0.00011417556
0.0001142232
0.00011427135
0.00011431889
0.00011436487
0.00011440817
0.0001144479
0.00011447759
0.00011449281
0.000114501
0.0001145024
0.00011449729
0.00011448627
0.00011447011
0.00011444975
0.00011442632
0.00011440104
0.00011437541
0.00011435078
0.00011432871
0.00011431077
0.00011429851
0.00011429341
0.00011429704
0.00011431063
0.00011433545
0.00011437258
0.00011442294
0.00011445541
0.00011447989
0.00011450681
0.00011454622
0.00011459899
0.00011466581
0.00011474718
0.00011484338
0.00011495449
0.00011508043
0.00011522088
0.00011537535
0.00011554316
0.00011572362
0.00011591568
0.00011611832
0.0001163304
0.00011655071
0.000116778
0.00011701092
0.0001172483
0.00011748873
0.00011773099
0.00011797382
0.00011821606
0.00011845654
0.00011869429
0.00011892822
0.00011915742
0.00011938105
0.00011959833
0.0001198085
0.00012001103
0.00012020524
0.00012039064
0.00012056678
0.00012073326
0.00012088966
0.0001210358
0.00012117129
0.00012129591
0.00012140936
0.00012151114
0.00012160077
0.00012166804
0.00012171598
0.00012172861
0.00011604431
0.00011606418
0.00011610359
0.00011613993
0.00011613252
0.0001161064
0.00011607037
0.00011602592
0.00011597172
0.00011590949
0.00011583813
0.00011575955
0.00011567286
0.00011558018
0.00011548079
0.00011537695
0.0001152681
0.00011515663
0.00011504208
0.00011492694
0.00011481079
0.00011469616
0.00011458266
0.00011447279
0.00011436612
0.00011426508
0.00011416918
0.00011408072
0.00011399906
0.00011392636
0.00011386179
0.00011380695
0.00011376222
0.0001137268
0.00011370229
0.00011368724
0.00011368298
0.00011368778
0.0001137027
0.00011372573
0.00011375765
0.00011379632
0.00011384175
0.00011389252
0.00011394759
0.00011399382
0.00011403129
0.00011406614
0.00011410021
0.00011414022
0.00011418516
0.00011423392
0.00011428529
0.00011433815
0.00011439115
0.00011444309
0.0001144871
0.00011451831
0.00011452559
0.00011452102
0.00011450967
0.00011449235
0.00011447001
0.00011444381
0.00011441507
0.0001143852
0.00011435585
0.00011432856
0.00011430501
0.00011428689
0.00011427584
0.00011427341
0.00011428119
0.00011430042
0.00011433234
0.00011437797
0.00011441415
0.00011441003
0.00011441194
0.0001144248
0.00011444993
0.0001144884
0.00011454107
0.00011460863
0.00011469154
0.00011479004
0.00011490417
0.00011503374
0.00011517838
0.00011533747
0.00011551037
0.00011569609
0.00011589362
0.00011610183
0.0001163195
0.00011654533
0.00011677797
0.00011701617
0.00011725848
0.00011750361
0.00011775025
0.00011799716
0.0001182431
0.00011848705
0.00011872783
0.00011896449
0.00011919611
0.00011942185
0.0001196409
0.00011985269
0.00012005647
0.00012025173
0.00012043795
0.0001206147
0.00012078152
0.00012093817
0.00012108421
0.00012121935
0.0001213432
0.0001214552
0.00012155498
0.00012164328
0.00012171673
0.0001217385
0.00011601287
0.00011603982
0.00011608633
0.00011613018
0.00011613833
0.00011610549
0.00011606231
0.00011601035
0.00011594837
0.00011587816
0.00011579872
0.00011571206
0.00011561737
0.00011551687
0.00011540992
0.00011529889
0.00011518329
0.00011506562
0.00011494547
0.0001148254
0.00011470506
0.00011458704
0.00011447098
0.00011435942
0.00011425197
0.00011415107
0.00011405622
0.00011396973
0.00011389095
0.000113822
0.00011376202
0.00011371257
0.00011367399
0.00011364539
0.00011362831
0.00011362122
0.00011362535
0.00011363888
0.00011366275
0.00011369485
0.00011373583
0.00011378341
0.0001138375
0.00011389653
0.00011394028
0.00011396167
0.00011397814
0.00011400348
0.00011403681
0.00011407726
0.00011412379
0.00011417525
0.00011423035
0.00011428788
0.00011434637
0.00011440446
0.00011446079
0.00011451404
0.00011454487
0.00011453576
0.00011451787
0.00011449384
0.00011446485
0.00011443226
0.00011439758
0.00011436242
0.00011432864
0.00011429792
0.00011427214
0.00011425309
0.00011424252
0.00011424208
0.00011425338
0.0001142777
0.00011431626
0.00011437004
0.00011436563
0.0001143442
0.00011433193
0.00011433027
0.00011434074
0.0001143646
0.00011440292
0.00011445657
0.00011452618
0.00011461217
0.00011471469
0.00011483367
0.00011496883
0.00011511961
0.00011528545
0.00011546536
0.00011565835
0.00011586327
0.00011607889
0.00011630388
0.00011653682
0.00011677642
0.00011702117
0.0001172697
0.00011752065
0.00011777269
0.00011802453
0.00011827506
0.00011852304
0.00011876747
0.00011900736
0.00011924182
0.00011946999
0.00011969124
0.00011990479
0.00012011007
0.00012030655
0.00012049371
0.0001206711
0.0001208384
0.00012099513
0.00012114093
0.00012127532
0.00012139774
0.00012150779
0.00012160571
0.00012168717
0.00012172224
0.0001159813
0.00011601549
0.00011606967
0.00011612159
0.0001161479
0.00011610865
0.00011605861
0.00011599943
0.00011592993
0.00011585198
0.00011576465
0.00011567004
0.00011556744
0.00011545913
0.00011534458
0.00011522623
0.00011510368
0.00011497949
0.00011485334
0.00011472787
0.00011460278
0.00011448072
0.0001143614
0.00011424738
0.00011413832
0.00011403669
0.00011394201
0.00011385661
0.00011377983
0.00011371379
0.00011365761
0.00011361281
0.0001135797
0.00011355736
0.00011354722
0.00011354771
0.00011355995
0.00011358204
0.0001136148
0.000113656
0.00011370617
0.0001137629
0.00011382594
0.00011388248
0.00011389154
0.00011389458
0.00011390814
0.00011393179
0.00011396466
0.00011400588
0.00011405439
0.00011410898
0.00011416828
0.00011423097
0.00011429545
0.0001143602
0.00011442369
0.00011448438
0.0001145408
0.00011454715
0.0001145223
0.00011449108
0.00011445487
0.00011441525
0.00011437394
0.00011433278
0.00011429381
0.00011425893
0.00011423016
0.00011420946
0.00011419871
0.00011419961
0.00011421388
0.0001142428
0.0001142876
0.00011434149
0.00011430391
0.00011426818
0.00011424112
0.00011422438
0.00011421972
0.0001142286
0.0001142523
0.00011429188
0.00011434814
0.00011442164
0.00011451269
0.00011462132
0.00011474731
0.00011489019
0.00011504941
0.000115224
0.00011541299
0.0001156152
0.00011582935
0.00011605406
0.00011628788
0.00011652943
0.00011677713
0.00011702956
0.00011728526
0.00011754283
0.00011780092
0.00011805834
0.0001183138
0.00011856621
0.00011881455
0.00011905786
0.00011929524
0.00011952601
0.00011974936
0.00011996468
0.00012017139
0.00012036897
0.0001205569
0.00012073488
0.00012090235
0.00012105893
0.00012120411
0.00012133736
0.0001214582
0.00012156657
0.00012165812
0.00012170585
0.00011594435
0.00011598654
0.000116049
0.00011610956
0.0001161573
0.0001161118
0.00011605501
0.00011598864
0.00011591158
0.0001158258
0.00011573043
0.00011562768
0.00011551689
0.00011540046
0.00011527793
0.00011515184
0.00011502187
0.00011489066
0.00011475798
0.00011462653
0.00011449612
0.00011436941
0.00011424621
0.00011412912
0.00011401785
0.00011391491
0.00011381984
0.00011373499
0.00011365971
0.00011359613
0.00011354336
0.0001135029
0.000113475
0.00011345871
0.00011345542
0.00011346345
0.00011348386
0.00011351465
0.00011355653
0.00011360714
0.00011366689
0.00011373321
0.00011380573
0.00011383062
0.00011381757
0.00011381667
0.00011382755
0.00011384981
0.00011388261
0.00011392507
0.00011397608
0.00011403438
0.00011409851
0.00011416702
0.00011423815
0.00011431023
0.00011438153
0.0001144503
0.00011451484
0.00011455581
0.00011452355
0.00011448459
0.00011444052
0.00011439317
0.00011434448
0.00011429652
0.00011425156
0.00011421169
0.00011417914
0.00011415602
0.00011414435
0.00011414596
0.00011416262
0.00011419568
0.00011424636
0.00011429039
0.00011423366
0.0001141829
0.00011414035
0.00011410793
0.0001140876
0.00011408108
0.00011408984
0.00011411514
0.00011415796
0.00011421902
0.00011429873
0.00011439724
0.00011451441
0.00011464981
0.00011480292
0.00011497277
0.00011515837
0.0001153585
0.00011557185
0.00011579697
0.00011603232
0.00011627649
0.00011652778
0.0001167847
0.00011704572
0.00011730937
0.00011757418
0.00011783894
0.00011810226
0.00011836301
0.00011862009
0.00011887251
0.00011911931
0.00011935978
0.00011959306
0.0001198185
0.00012003551
0.00012024353
0.00012044203
0.00012063065
0.00012080883
0.00012097615
0.00012113212
0.00012127623
0.00012140794
0.00012152721
0.0001216299
0.00012169069
0.00011590296
0.00011595329
0.00011602434
0.00011609387
0.00011615867
0.00011611483
0.00011605115
0.00011597741
0.00011589258
0.00011579871
0.00011569501
0.00011558376
0.00011546442
0.00011533946
0.00011520851
0.00011507421
0.00011493633
0.00011479761
0.00011465788
0.00011451994
0.00011438366
0.0001142518
0.0001141242
0.00011400355
0.00011388959
0.00011378487
0.000113689
0.00011360432
0.00011353023
0.00011346883
0.00011341924
0.00011338295
0.00011336018
0.00011334992
0.00011335351
0.00011336922
0.00011339801
0.00011343778
0.00011348912
0.00011354957
0.00011361938
0.00011369586
0.00011376929
0.00011375184
0.00011373366
0.0001137289
0.00011373726
0.00011375839
0.00011379145
0.00011383555
0.00011388955
0.0001139521
0.00011402165
0.00011409661
0.00011417508
0.00011425519
0.000114335
0.00011441253
0.00011448585
0.00011455103
0.00011452244
0.00011447508
0.00011442243
0.00011436653
0.00011430961
0.00011425395
0.00011420209
0.00011415634
0.00011411912
0.00011409276
0.00011407941
0.00011408103
0.0001140995
0.00011413621
0.00011419241
0.00011422766
0.00011415568
0.00011408902
0.00011403019
0.00011398135
0.00011394473
0.00011392227
0.00011391566
0.00011392639
0.0001139556
0.00011400416
0.00011407261
0.00011416119
0.00011426983
0.00011439814
0.0001145456
0.00011471124
0.00011489404
0.00011509272
0.00011530591
0.0001155321
0.00011576966
0.00011601707
0.00011627258
0.00011653458
0.00011680147
0.00011707169
0.0001173437
0.00011761621
0.00011788776
0.00011815716
0.00011842326
0.00011868502
0.00011894144
0.00011919176
0.00011943511
0.0001196708
0.00011989821
0.00012011676
0.0001203259
0.00012052526
0.00012071427
0.00012089248
0.00012105941
0.00012121457
0.00012135739
0.00012148799
0.00012160243
0.00012167631
0.00011585653
0.00011591561
0.00011599577
0.00011607479
0.0001161501
0.00011611859
0.00011604796
0.00011596673
0.00011587394
0.00011577172
0.00011565937
0.00011553927
0.00011541096
0.000115277
0.00011513715
0.00011499411
0.00011484776
0.00011470093
0.00011455356
0.00011440852
0.00011426576
0.00011412813
0.00011399554
0.00011387074
0.00011375354
0.00011364653
0.00011354936
0.00011346442
0.0001133911
0.00011333155
0.00011328488
0.00011325254
0.00011323476
0.00011323049
0.000113241
0.0001132645
0.00011330187
0.00011335091
0.0001134121
0.00011348284
0.00011356325
0.00011365049
0.00011370038
0.0001136623
0.00011363897
0.00011363043
0.00011363646
0.00011365672
0.00011369041
0.00011373662
0.00011379415
0.00011386159
0.00011393725
0.00011401942
0.00011410601
0.00011419495
0.00011428408
0.00011437119
0.00011445405
0.00011453068
0.00011451935
0.00011446285
0.00011440077
0.00011433543
0.00011426931
0.00011420497
0.00011414521
0.00011409259
0.00011404977
0.00011401926
0.00011400342
0.00011400435
0.00011402402
0.0001140639
0.00011412528
0.00011415874
0.00011407053
0.00011398704
0.00011391104
0.00011384498
0.00011379135
0.00011375234
0.0001137299
0.00011372571
0.00011374109
0.00011377708
0.00011383434
0.00011391318
0.0001140136
0.00011413523
0.00011427756
0.00011443958
0.00011462022
0.00011481815
0.00011503191
0.00011525989
0.00011550039
0.00011575177
0.00011601219
0.00011627995
0.00011655333
0.00011683069
0.00011711043
0.00011739115
0.00011767135
0.00011794977
0.0001182252
0.00011849655
0.0001187628
0.00011902314
0.00011927667
0.00011952269
0.00011976055
0.00011998967
0.00012020947
0.00012041957
0.00012061941
0.00012080853
0.00012098649
0.00012115279
0.00012130689
0.0001214491
0.00012157557
0.00012166244
0.00011580553
0.00011587369
0.00011596339
0.00011605234
0.0001161379
0.00011612347
0.00011604574
0.0001159568
0.00011585579
0.0001157449
0.00011562355
0.00011549417
0.00011535643
0.000115213
0.0001150637
0.00011491137
0.00011475598
0.00011460045
0.00011444483
0.00011429207
0.00011414223
0.00011399822
0.00011386005
0.00011373053
0.00011360954
0.00011349973
0.00011340079
0.00011331516
0.00011324226
0.00011318424
0.00011314024
0.0001131117
0.00011309883
0.00011310053
0.00011311804
0.00011314951
0.00011319571
0.00011325437
0.00011332585
0.00011340742
0.00011349904
0.0001135977
0.00011360683
0.00011356213
0.00011353357
0.00011352127
0.00011352509
0.00011354473
0.00011357939
0.00011362816
0.00011368978
0.00011376273
0.00011384523
0.0001139354
0.00011403096
0.00011412963
0.00011422899
0.00011432657
0.00011441985
0.00011450656
0.00011451481
0.00011444832
0.00011437587
0.00011430006
0.00011422367
0.00011414956
0.00011408079
0.00011402021
0.00011397075
0.00011393514
0.00011391593
0.00011391538
0.00011393562
0.00011397818
0.00011404439
0.0001140842
0.00011397868
0.00011387728
0.00011378311
0.00011369888
0.00011362741
0.00011357115
0.00011353229
0.00011351274
0.00011351402
0.00011353731
0.00011358338
0.00011365265
0.00011374513
0.00011386049
0.00011399818
0.00011415718
0.00011433632
0.00011453421
0.00011474927
0.00011497981
0.000115224
0.00011548011
0.00011574616
0.00011602035
0.00011630088
0.00011658599
0.000116874
0.00011716344
0.00011745273
0.00011774054
0.00011802564
0.00011830688
0.00011858319
0.00011885375
0.00011911763
0.00011937411
0.00011962252
0.00011986228
0.00012009281
0.00012031371
0.00012052443
0.00012072453
0.00012091357
0.00012109111
0.00012125661
0.0001214106
0.00012154922
0.00012164894
0.00011574962
0.00011582744
0.00011592722
0.00011602665
0.000116123
0.00011613015
0.00011604517
0.00011594831
0.0001158388
0.0001157189
0.00011558813
0.00011544903
0.00011530136
0.00011514789
0.00011498857
0.00011482633
0.00011466125
0.00011449636
0.00011433182
0.00011417067
0.00011401307
0.00011386202
0.00011371762
0.00011358275
0.00011345738
0.00011334421
0.00011324299
0.0001131562
0.00011308332
0.00011302651
0.00011298492
0.00011296
0.00011295193
0.00011295961
0.00011298422
0.00011302384
0.00011307918
0.00011314785
0.0001132301
0.00011332307
0.00011342657
0.00011353742
0.00011350232
0.00011345078
0.00011341687
0.00011340082
0.00011340255
0.00011342181
0.00011345781
0.00011350962
0.00011357591
0.0001136551
0.00011374523
0.00011384428
0.00011394976
0.00011405915
0.00011416975
0.00011427882
0.00011438353
0.00011448127
0.00011450927
0.00011443182
0.00011434794
0.00011426053
0.00011417267
0.00011408755
0.00011400857
0.00011393885
0.00011388162
0.00011383986
0.00011381633
0.00011381351
0.00011383364
0.00011387837
0.00011394908
0.00011400463
0.00011388058
0.0001137601
0.00011364662
0.0001135432
0.00011345295
0.00011337864
0.00011332271
0.00011328731
0.00011327416
0.00011328458
0.00011331947
0.00011337931
0.00011346416
0.00011357367
0.00011370727
0.00011386387
0.00011404223
0.00011424084
0.00011445801
0.00011469193
0.00011494064
0.00011520227
0.00011547474
0.00011575611
0.00011604447
0.00011633798
0.00011663484
0.00011693351
0.00011723235
0.00011752997
0.00011782507
0.00011811647
0.00011840308
0.00011868405
0.00011895841
0.00011922545
0.0001194845
0.00011973495
0.00011997623
0.00012020797
0.00012042958
0.00012064069
0.00012084086
0.00012102968
0.00012120665
0.00012137251
0.0001215233
0.00012163573
0.00011568893
0.00011577686
0.00011588724
0.0001159977
0.00011610541
0.00011613909
0.00011604665
0.00011594162
0.00011582327
0.00011569398
0.00011555334
0.00011540403
0.00011524588
0.00011508179
0.00011491182
0.00011473902
0.00011456358
0.00011438864
0.00011421447
0.00011404422
0.00011387816
0.00011371938
0.00011356807
0.00011342722
0.00011329685
0.00011317974
0.00011307573
0.00011298732
0.00011291405
0.00011285811
0.00011281868
0.0001127972
0.00011279387
0.00011280754
0.00011283936
0.00011288735
0.00011295215
0.00011303128
0.00011312485
0.00011322987
0.00011334598
0.00011345645
0.00011338659
0.00011332792
0.00011328849
0.00011326864
0.00011326836
0.00011328746
0.00011332517
0.00011338051
0.00011345211
0.00011353826
0.00011363689
0.00011374578
0.00011386221
0.00011398341
0.0001141064
0.00011422811
0.00011434537
0.00011445524
0.00011450322
0.00011441374
0.00011431723
0.00011421693
0.00011411628
0.00011401882
0.00011392827
0.00011384811
0.00011378186
0.00011373281
0.00011370396
0.00011369797
0.00011371728
0.00011376365
0.00011383853
0.00011392051
0.00011377658
0.00011363569
0.00011350164
0.00011337785
0.00011326778
0.00011317449
0.00011310075
0.00011304892
0.00011302093
0.00011301827
0.00011304194
0.00011309249
0.00011317001
0.00011327412
0.0001134042
0.00011355907
0.00011373739
0.00011393754
0.00011415768
0.00011439585
0.00011464995
0.00011491796
0.00011519767
0.00011548701
0.00011578395
0.00011608653
0.00011639287
0.00011670133
0.00011701021
0.00011731807
0.00011762354
0.00011792542
0.00011822258
0.00011851416
0.00011879917
0.00011907689
0.00011934665
0.00011960786
0.00011985993
0.00012010251
0.00012033505
0.00012055717
0.00012076849
0.0001209686
0.00012115709
0.00012133482
0.00012149775
0.00012162275
0.00011562322
0.00011572187
0.00011584345
0.00011596557
0.00011608526
0.00011615092
0.00011605082
0.00011593732
0.00011580977
0.00011567066
0.00011551968
0.00011535959
0.00011519037
0.00011501501
0.00011483372
0.00011464963
0.0001144631
0.00011427735
0.00011409279
0.00011391268
0.0001137374
0.00011357015
0.00011341122
0.00011326368
0.00011312765
0.00011300601
0.00011289863
0.00011280811
0.00011273402
0.0001126786
0.00011264106
0.00011262286
0.00011262418
0.00011264387
0.00011268304
0.00011273967
0.0001128143
0.00011290436
0.00011300985
0.00011312763
0.00011325717
0.00011334543
0.00011325919
0.00011319305
0.00011314789
0.00011312416
0.00011312195
0.00011314111
0.00011318088
0.00011324026
0.00011331783
0.00011341175
0.00011351981
0.00011363958
0.00011376811
0.00011390235
0.00011403899
0.00011417461
0.0001143057
0.00011442892
0.00011449722
0.00011439449
0.00011428403
0.00011416943
0.00011405451
0.0001139432
0.0001138396
0.00011374757
0.00011367096
0.00011361337
0.00011357809
0.000113568
0.00011358574
0.0001136332
0.00011371191
0.000113818
0.00011366709
0.00011350433
0.0001133483
0.00011320283
0.00011307175
0.00011295848
0.00011286607
0.00011279716
0.00011275389
0.00011273789
0.0001127503
0.0001127917
0.00011286218
0.00011296136
0.00011308853
0.0001132424
0.0001134215
0.00011362405
0.00011384807
0.00011409143
0.00011435185
0.00011462718
0.00011491501
0.00011521316
0.00011551946
0.00011583183
0.0001161483
0.00011646714
0.00011678658
0.0001171051
0.00011742133
0.000117734
0.00011804196
0.00011834434
0.00011864015
0.00011892866
0.00011920921
0.00011948121
0.00011974411
0.00011999754
0.000120241
0.00012047413
0.00012069657
0.00012090798
0.00012110797
0.00012129755
0.00012147255
0.00012160996
0.00011555247
0.00011566242
0.00011579582
0.00011593024
0.00011606259
0.00011616622
0.0001160582
0.00011593589
0.00011579875
0.00011564934
0.00011548747
0.00011531601
0.00011513507
0.00011494776
0.0001147544
0.00011455829
0.00011435986
0.00011416252
0.00011396676
0.00011377598
0.00011359068
0.00011341418
0.00011324686
0.00011309191
0.00011294955
0.00011282272
0.0001127114
0.00011261824
0.00011254289
0.00011248763
0.0001124517
0.00011243659
0.00011244249
0.00011246825
0.00011251493
0.00011258047
0.00011266533
0.00011276686
0.00011288492
0.00011301623
0.00011316009
0.00011321553
0.00011311967
0.00011304566
0.00011299449
0.00011296676
0.00011296265
0.00011298206
0.00011302426
0.00011308822
0.00011317245
0.00011327501
0.00011339351
0.0001135253
0.00011366719
0.0001138158
0.00011396749
0.00011411848
0.00011426483
0.00011440279
0.00011449185
0.00011437452
0.00011424862
0.00011411814
0.00011398733
0.00011386052
0.00011374224
0.00011363676
0.0001135483
0.00011348081
0.00011343789
0.00011342269
0.00011343804
0.00011348601
0.0001135682
0.00011368559
0.00011355244
0.00011336616
0.00011318659
0.00011301798
0.00011286458
0.00011273018
0.00011261815
0.00011253142
0.00011247235
0.00011244273
0.00011244379
0.00011247618
0.00011253997
0.00011263472
0.00011275963
0.00011291327
0.00011309402
0.00011329993
0.00011352883
0.00011377838
0.00011404614
0.00011432975
0.00011462666
0.00011493452
0.000115251
0.00011557394
0.00011590123
0.00011623106
0.00011656159
0.00011689125
0.00011721862
0.0001175424
0.00011786143
0.00011817481
0.00011848157
0.00011878099
0.00011907239
0.00011935522
0.00011962894
0.00011989323
0.00012014758
0.00012039169
0.00012062523
0.00012084789
0.00012105934
0.00012126069
0.00012144767
0.00012159734
0.00011547654
0.00011559843
0.00011574433
0.00011589176
0.00011603751
0.00011617498
0.00011606945
0.00011593797
0.00011579079
0.00011563056
0.00011545721
0.00011527374
0.00011508037
0.00011488035
0.00011467414
0.00011446516
0.00011425401
0.0001140442
0.00011383639
0.00011363408
0.0001134379
0.0001132513
0.00011307479
0.00011291165
0.00011276221
0.00011262952
0.00011251364
0.00011241729
0.00011234021
0.00011228472
0.00011225012
0.00011223792
0.00011224833
0.0001122802
0.00011233456
0.00011240931
0.00011250485
0.00011261842
0.00011274977
0.00011289547
0.00011305462
0.00011307364
0.00011296756
0.00011288518
0.00011282768
0.00011279579
0.00011278978
0.00011280963
0.00011285463
0.00011292373
0.00011301537
0.00011312748
0.0001132575
0.00011340256
0.00011355918
0.00011372365
0.00011389196
0.0001140599
0.00011422311
0.00011437737
0.00011448782
0.00011435437
0.00011421138
0.00011406328
0.00011391475
0.00011377061
0.00011363586
0.00011351519
0.00011341325
0.00011333438
0.00011328252
0.0001132611
0.00011327319
0.00011332104
0.00011340638
0.00011353019
0.00011343301
0.0001132214
0.00011301654
0.00011282317
0.00011264598
0.00011248916
0.00011235646
0.00011225109
0.00011217564
0.00011213207
0.00011212171
0.00011214523
0.00011220269
0.00011229356
0.00011241692
0.00011257119
0.00011275454
0.00011296483
0.00011319967
0.00011345651
0.00011373269
0.00011402564
0.00011433264
0.00011465115
0.00011497872
0.00011531302
0.00011565185
0.00011599332
0.0001163355
0.00011667678
0.00011701568
0.00011735089
0.00011768124
0.00011800583
0.00011832369
0.00011863409
0.00011893641
0.0001192301
0.00011951464
0.00011978975
0.00012005496
0.00012030999
0.00012055456
0.00012078841
0.00012101125
0.00012122426
0.0001214231
0.00012158489
0.00011539534
0.00011552985
0.00011568897
0.00011585016
0.00011601008
0.00011616827
0.00011608521
0.00011594416
0.00011578644
0.00011561483
0.00011542936
0.00011523317
0.00011502661
0.00011481307
0.00011459316
0.00011437044
0.00011414566
0.00011392247
0.00011370167
0.00011348691
0.00011327895
0.00011308137
0.00011289481
0.00011272266
0.00011256538
0.0001124261
0.00011230499
0.00011220488
0.00011212556
0.00011206943
0.00011203585
0.00011202637
0.00011204121
0.00011207924
0.00011214148
0.00011222577
0.00011233247
0.00011245871
0.00011260412
0.00011276511
0.00011294061
0.00011291932
0.00011280231
0.00011271101
0.00011264678
0.0001126105
0.00011260256
0.00011262301
0.00011267117
0.00011274599
0.00011284582
0.00011296847
0.0001131112
0.00011327089
0.00011344374
0.0001136257
0.00011381236
0.00011399904
0.0001141809
0.00011435322
0.00011448586
0.00011433462
0.00011417271
0.00011400503
0.00011383679
0.0001136733
0.00011352008
0.00011338231
0.00011326511
0.00011317322
0.000113111
0.00011308217
0.00011309006
0.00011313713
0.00011322524
0.00011335543
0.00011330914
0.00011307018
0.00011283809
0.00011261815
0.00011241553
0.00011223489
0.00011208035
0.00011195542
0.00011186295
0.00011180507
0.00011178319
0.00011179801
0.00011184953
0.00011193713
0.00011205972
0.00011221554
0.00011240254
0.00011261833
0.00011286027
0.00011312558
0.00011341134
0.00011371478
0.00011403295
0.00011436313
0.00011470271
0.00011504923
0.00011540037
0.00011575415
0.00011610856
0.00011646194
0.00011681278
0.00011715977
0.00011750169
0.00011783768
0.00011816676
0.00011848824
0.00011880151
0.00011910605
0.00011940139
0.00011968727
0.00011996327
0.00012022915
0.00012048467
0.00012072961
0.00012096374
0.00012118828
0.00012139885
0.00012157261
0.00011530878
0.00011545664
0.00011562975
0.00011580552
0.00011598046
0.00011615397
0.00011610626
0.00011595518
0.00011578638
0.00011560277
0.00011540448
0.0001151948
0.00011497422
0.00011474629
0.00011451176
0.00011427435
0.00011403496
0.00011379741
0.00011356264
0.00011333444
0.00011311374
0.00011290423
0.0001127067
0.00011252467
0.00011235871
0.00011221208
0.00011208506
0.00011198056
0.00011189847
0.00011184127
0.00011180837
0.0001118014
0.00011182059
0.00011186484
0.00011193515
0.00011202934
0.00011214771
0.00011228729
0.0001124476
0.00011262489
0.00011281787
0.00011275209
0.00011262336
0.0001125225
0.00011245106
0.00011241012
0.00011240018
0.00011242137
0.00011247308
0.00011255421
0.00011266306
0.00011279732
0.00011295402
0.0001131298
0.00011332055
0.00011352181
0.00011372871
0.00011393611
0.00011413863
0.00011433097
0.00011448686
0.00011431596
0.00011413309
0.00011394368
0.0001137535
0.00011356844
0.00011339456
0.00011323759
0.00011310316
0.00011299648
0.00011292232
0.00011288478
0.00011288746
0.00011293304
0.00011302354
0.00011316005
0.00011318122
0.00011291265
0.00011265118
0.00011240266
0.00011217282
0.00011196678
0.00011178908
0.0001116436
0.0001115334
0.00011146081
0.00011142732
0.00011143361
0.00011147965
0.00011156465
0.00011168734
0.00011184573
0.00011203752
0.00011226003
0.00011251034
0.00011278539
0.000113082
0.00011339714
0.00011372764
0.00011407058
0.00011442317
0.00011478281
0.00011514705
0.00011551383
0.00011588107
0.00011624705
0.00011661026
0.00011696933
0.00011732309
0.00011767065
0.00011801107
0.0001183437
0.00011866794
0.00011898333