/*--------------------------------*- C++ -*----------------------------------*\
| =========                 |                                                 |
| \\      /  F ield         | foam-extend: Open Source CFD                    |
|  \\    /   O peration     | Version:     4.1                                |
|   \\  /    A nd           | Web:         http://www.foam-extend.org         |
|    \\/     M anipulation  |                                                 |
\*---------------------------------------------------------------------------*/
FoamFile
{
    version     2.0;
    format      ascii;
    class       volVectorField;
    location    "0.4";
    object      U;
}
// * * * * * * * * * * * * * * * * * * * * * * * * * * * * * * * * * * * * * //

dimensions      [0 1 -1 0 0 0 0];

internalField   nonuniform List<vector> 
16796
(
(140.82564 -0.12941203 0)
(141.31404 -0.14238633 0)
(141.61421 -0.13133228 0)
(141.93573 -0.12195762 0)
(142.20884 -0.10988564 0)
(142.44712 -0.097497791 0)
(142.64282 -0.084920434 0)
(142.79606 -0.072737214 0)
(142.90621 -0.061359548 0)
(142.97428 -0.051228853 0)
(143.00213 -0.042644914 0)
(142.99264 -0.035332524 0)
(142.94855 -0.02807062 0)
(142.87015 -0.0197648 0)
(142.75859 -0.010302628 0)
(142.61572 -5.6749553e-05 0)
(142.44426 0.010436269 0)
(142.24783 0.020574241 0)
(142.03088 0.029760413 0)
(141.79856 0.037442786 0)
(141.5566 0.043131936 0)
(141.31124 0.046406861 0)
(141.06903 0.046914633 0)
(140.83678 0.04436821 0)
(140.62145 0.038545767 0)
(140.43005 0.029296137 0)
(140.26955 0.016555218 0)
(140.14678 0.00038399215 0)
(140.06826 -0.018956508 0)
(140.03985 -0.040780397 0)
(140.06685 -0.063363724 0)
(140.15006 -0.084556244 0)
(140.28741 -0.10376134 0)
(140.47774 -0.12157966 0)
(140.71983 -0.13841888 0)
(141.01235 -0.15445981 0)
(141.35369 -0.16973459 0)
(141.74178 -0.18418034 0)
(142.17409 -0.19768753 0)
(142.64764 -0.21013026 0)
(143.15895 -0.22138326 0)
(143.70417 -0.23133226 0)
(144.27908 -0.23987903 0)
(144.87915 -0.2469449 0)
(145.49962 -0.25247224 0)
(146.13556 -0.25642558 0)
(146.78197 -0.25879199 0)
(147.43378 -0.25958103 0)
(148.086 -0.2588242 0)
(148.73373 -0.25657393 0)
(149.37225 -0.25290218 0)
(149.99708 -0.24789861 0)
(150.60403 -0.24166835 0)
(151.18922 -0.23432944 0)
(151.74918 -0.22601004 0)
(152.28083 -0.21684526 0)
(152.78152 -0.20697395 0)
(153.24904 -0.19653532 0)
(153.68162 -0.18566552 0)
(154.07795 -0.17449441 0)
(154.43713 -0.16314236 0)
(154.75867 -0.15171752 0)
(155.04243 -0.1403134 0)
(155.28864 -0.12900704 0)
(155.49777 -0.1178577 0)
(155.67059 -0.10690603 0)
(155.80803 -0.096173505 0)
(155.91119 -0.085661274 0)
(155.98126 -0.075345499 0)
(156.01948 -0.065147761 0)
(156.02707 -0.054883297 0)
(156.00529 -0.044197746 0)
(155.95404 -0.033191884 0)
(155.8744 -0.022420758 0)
(155.76793 -0.012214775 0)
(155.63635 -0.0027029946 0)
(155.48149 0.006057757 0)
(155.30523 0.014045344 0)
(155.10945 0.021250259 0)
(154.89607 0.027667512 0)
(154.66699 0.033293415 0)
(154.42419 0.038124739 0)
(154.16962 0.042159034 0)
(153.90529 0.045395468 0)
(153.63322 0.047835939 0)
(153.35544 0.049486243 0)
(153.07398 0.05035717 0)
(152.79086 0.050465438 0)
(152.50807 0.049834378 0)
(152.22754 0.048494328 0)
(151.95115 0.046482681 0)
(151.68066 0.043843655 0)
(151.41774 0.040627754 0)
(151.16394 0.036890929 0)
(150.92065 0.032693559 0)
(150.68911 0.028099244 0)
(150.4704 0.023173508 0)
(150.26543 0.017982405 0)
(150.07494 0.012591154 0)
(149.8995 0.0070628362 0)
(149.73951 0.001457118 0)
(149.59525 -0.0041708372 0)
(149.46681 -0.0097712947 0)
(149.3542 -0.015300698 0)
(149.25728 -0.020722138 0)
(149.17584 -0.026005544 0)
(149.10961 -0.03112762 0)
(149.05824 -0.036071328 0)
(149.02135 -0.040825013 0)
(148.99855 -0.045381185 0)
(148.98943 -0.049730377 0)
(148.99361 -0.053847844 0)
(149.01058 -0.057763864 0)
(149.04 -0.061520859 0)
(149.08158 -0.065115806 0)
(149.13503 -0.068532552 0)
(149.20007 -0.071736291 0)
(149.27641 -0.074662179 0)
(149.36373 -0.077200347 0)
(149.4613 -0.079166917 0)
(149.56812 -0.080065906 0)
(149.68585 -0.078881995 0)
(149.8099 -0.076446866 0)
(149.88948 -0.069699327 0)
(160.42254 -0.30717154 0)
(160.71112 -0.32867582 0)
(160.86534 -0.3011062 0)
(161.0219 -0.27162128 0)
(161.13317 -0.23418475 0)
(161.20697 -0.19326684 0)
(161.23654 -0.14961664 0)
(161.2207 -0.1045609 0)
(161.15777 -0.05910637 0)
(161.04733 -0.014184925 0)
(160.88942 0.029391578 0)
(160.68462 0.070955545 0)
(160.43556 0.11025974 0)
(160.14883 0.14702683 0)
(159.83125 0.18057846 0)
(159.48982 0.21021043 0)
(159.13141 0.23531657 0)
(158.76265 0.25538267 0)
(158.38988 0.26999576 0)
(158.01913 0.27884421 0)
(157.65602 0.28171367 0)
(157.30579 0.27848068 0)
(156.97324 0.26910413 0)
(156.66267 0.25361613 0)
(156.37787 0.23211245 0)
(156.12209 0.20474685 0)
(155.898 0.17173019 0)
(155.70772 0.13334298 0)
(155.55285 0.089965555 0)
(155.43458 0.042215494 0)
(155.35358 -0.0086012698 0)
(155.31387 -0.06069092 0)
(155.32031 -0.11296489 0)
(155.37492 -0.1650133 0)
(155.47842 -0.21640362 0)
(155.63043 -0.2666438 0)
(155.82971 -0.31520878 0)
(156.07438 -0.36156335 0)
(156.36193 -0.40518395 0)
(156.68939 -0.44557642 0)
(157.05329 -0.48228718 0)
(157.44977 -0.51491416 0)
(157.87461 -0.54311292 0)
(158.3233 -0.56660323 0)
(158.79109 -0.58517236 0)
(159.27306 -0.59867778 0)
(159.76422 -0.60704823 0)
(160.2595 -0.61028361 0)
(160.75392 -0.6084535 0)
(161.24255 -0.60169448 0)
(161.72068 -0.59020638 0)
(162.18378 -0.57424728 0)
(162.62763 -0.55412755 0)
(163.04834 -0.53020297 0)
(163.44236 -0.50286694 0)
(163.80657 -0.47254206 0)
(164.13828 -0.43967121 0)
(164.43522 -0.40470825 0)
(164.69559 -0.36810865 0)
(164.91804 -0.3303204 0)
(165.10164 -0.29177514 0)
(165.24591 -0.25288033 0)
(165.35075 -0.21401222 0)
(165.41642 -0.17551026 0)
(165.44352 -0.13767289 0)
(165.43293 -0.10075506 0)
(165.38579 -0.064967531 0)
(165.30342 -0.030472651 0)
(165.18736 0.0026316143 0)
(165.03918 0.034258944 0)
(164.86064 0.064397765 0)
(164.6536 0.093230593 0)
(164.42133 0.12078655 0)
(164.1659 0.14682916 0)
(163.88891 0.17122854 0)
(163.59184 0.19393625 0)
(163.27606 0.21492812 0)
(162.94292 0.23418976 0)
(162.59382 0.25170559 0)
(162.23013 0.26745554 0)
(161.85329 0.28141434 0)
(161.46476 0.29355281 0)
(161.06605 0.3038403 0)
(160.65871 0.31224795 0)
(160.24436 0.3187523 0)
(159.82461 0.32333891 0)
(159.40112 0.32600582 0)
(158.97559 0.32676647 0)
(158.54966 0.32565195 0)
(158.125 0.32271253 0)
(157.70321 0.31801814 0)
(157.28585 0.31165816 0)
(156.8744 0.30374028 0)
(156.47024 0.29438856 0)
(156.07464 0.28374094 0)
(155.68877 0.27194621 0)
(155.31363 0.25916064 0)
(154.95012 0.24554441 0)
(154.59897 0.23125791 0)
(154.2608 0.21645829 0)
(153.93606 0.20129601 0)
(153.62508 0.18591175 0)
(153.32808 0.17043377 0)
(153.04516 0.1549757 0)
(152.7763 0.1396348 0)
(152.52143 0.12449104 0)
(152.28038 0.10960654 0)
(152.05295 0.095025906 0)
(151.83888 0.080777117 0)
(151.6379 0.066872674 0)
(151.44971 0.053315535 0)
(151.27401 0.040113336 0)
(151.11066 0.027244135 0)
(150.95936 0.01465497 0)
(150.81983 0.0023126678 0)
(150.69181 -0.0098093402 0)
(150.57504 -0.021721831 0)
(150.46928 -0.033402529 0)
(150.37428 -0.044782756 0)
(150.28957 -0.055719036 0)
(150.2147 -0.065587963 0)
(150.15042 -0.073004613 0)
(150.09351 -0.079798253 0)
(150.03291 -0.081726397 0)
(163.07101 -0.40079252 0)
(163.177 -0.39503993 0)
(163.17499 -0.34693251 0)
(163.15827 -0.29314448 0)
(163.0966 -0.2299773 0)
(162.99882 -0.16169497 0)
(162.86186 -0.089743408 0)
(162.68703 -0.015905196 0)
(162.47514 0.058312626 0)
(162.2279 0.13137509 0)
(161.94787 0.20183862 0)
(161.63855 0.26820126 0)
(161.30375 0.32883285 0)
(160.9477 0.38243204 0)
(160.57505 0.42823954 0)
(160.1908 0.46575509 0)
(159.80015 0.49459442 0)
(159.40839 0.514463 0)
(159.02088 0.52515922 0)
(158.64295 0.5265852 0)
(158.27978 0.51875788 0)
(157.93636 0.50181482 0)
(157.61737 0.47601312 0)
(157.32711 0.44172371 0)
(157.06946 0.39942003 0)
(156.84775 0.34966667 0)
(156.66474 0.29310486 0)
(156.5226 0.23044008 0)
(156.42283 0.16242049 0)
(156.36637 0.089785535 0)
(156.35369 0.013116634 0)
(156.38472 -0.066884753 0)
(156.45938 -0.14885676 0)
(156.57748 -0.23122867 0)
(156.73812 -0.3127458 0)
(156.93985 -0.39233737 0)
(157.18071 -0.46903732 0)
(157.45828 -0.54195319 0)
(157.76976 -0.61025149 0)
(158.11198 -0.67316277 0)
(158.48147 -0.72998833 0)
(158.8745 -0.78011262 0)
(159.28712 -0.82301123 0)
(159.7152 -0.85826048 0)
(160.15451 -0.88554286 0)
(160.60073 -0.9046515 0)
(161.04953 -0.9154922 0)
(161.4966 -0.91808348 0)
(161.93772 -0.9125545 0)
(162.36884 -0.89914102 0)
(162.78604 -0.87817931 0)
(163.18567 -0.85009825 0)
(163.56435 -0.81540968 0)
(163.91899 -0.77469714 0)
(164.24685 -0.72860322 0)
(164.54556 -0.67781584 0)
(164.81311 -0.62305365 0)
(165.04791 -0.5650509 0)
(165.24872 -0.50454235 0)
(165.4147 -0.44224836 0)
(165.54537 -0.37886086 0)
(165.6406 -0.31503064 0)
(165.70057 -0.25135635 0)
(165.72574 -0.18837564 0)
(165.71681 -0.12655898 0)
(165.6747 -0.066306909 0)
(165.60048 -0.0079496416 0)
(165.49536 0.048262767 0)
(165.36063 0.10212457 0)
(165.19772 0.15349986 0)
(165.00806 0.20225411 0)
(164.79308 0.24822645 0)
(164.55419 0.29141737 0)
(164.29277 0.33197353 0)
(164.01016 0.36995789 0)
(163.70769 0.40537563 0)
(163.38666 0.43821684 0)
(163.04842 0.4684613 0)
(162.6943 0.49607846 0)
(162.32568 0.52102686 0)
(161.94395 0.54325493 0)
(161.55058 0.56270381 0)
(161.14706 0.57931171 0)
(160.73494 0.59301933 0)
(160.31581 0.60377587 0)
(159.89132 0.61154505 0)
(159.46313 0.61631083 0)
(159.03292 0.61808221 0)
(158.60238 0.61689701 0)
(158.17317 0.61282433 0)
(157.74693 0.60596555 0)
(157.32522 0.59645392 0)
(156.90955 0.58445282 0)
(156.5013 0.57015273 0)
(156.10178 0.55376722 0)
(155.71214 0.53552813 0)
(155.33342 0.51568022 0)
(154.96651 0.49447543 0)
(154.61215 0.47216712 0)
(154.27095 0.4490044 0)
(153.94336 0.4252268 0)
(153.62972 0.40105935 0)
(153.33023 0.37670837 0)
(153.04496 0.35235797 0)
(152.77392 0.32816735 0)
(152.517 0.30426923 0)
(152.27402 0.28076898 0)
(152.04478 0.25774485 0)
(151.82899 0.23524899 0)
(151.62638 0.21330904 0)
(151.43664 0.1919294 0)
(151.25949 0.17109139 0)
(151.09462 0.1507805 0)
(150.94176 0.13098324 0)
(150.80065 0.11167 0)
(150.67106 0.092817529 0)
(150.55276 0.074422287 0)
(150.44555 0.056521053 0)
(150.34921 0.039203847 0)
(150.26339 0.022649512 0)
(150.18797 0.0074211074 0)
(150.12294 -0.0055252602 0)
(150.06565 -0.016872794 0)
(150.01915 -0.02301577 0)
(163.46286 -0.423501 0)
(163.51942 -0.37404312 0)
(163.48653 -0.3004723 0)
(163.43349 -0.22081191 0)
(163.33787 -0.13321484 0)
(163.20767 -0.041170346 0)
(163.04098 0.053520743 0)
(162.8394 0.14877732 0)
(162.60404 0.24269054 0)
(162.33691 0.33344083 0)
(162.04036 0.41928159 0)
(161.71725 0.49864163 0)
(161.37084 0.57017023 0)
(161.0048 0.63272253 0)
(160.62322 0.68530967 0)
(160.23067 0.72703853 0)
(159.83207 0.7571547 0)
(159.43263 0.77507669 0)
(159.03768 0.78041552 0)
(158.65259 0.7729855 0)
(158.28267 0.75280778 0)
(157.93303 0.72010633 0)
(157.60853 0.67529752 0)
(157.31364 0.61897687 0)
(157.05243 0.55190148 0)
(156.82846 0.47497605 0)
(156.64471 0.38923823 0)
(156.50361 0.29585549 0)
(156.40694 0.19612733 0)
(156.35583 0.091491289 0)
(156.3508 -0.016546161 0)
(156.39167 -0.1264879 0)
(156.47775 -0.23692062 0)
(156.60801 -0.34650719 0)
(156.78104 -0.45395176 0)
(156.99495 -0.55801501 0)
(157.24746 -0.65752045 0)
(157.53583 -0.75136253 0)
(157.85701 -0.83851199 0)
(158.20762 -0.91802972 0)
(158.58403 -0.98907485 0)
(158.98244 -1.0509181 0)
(159.39883 -1.1029492 0)
(159.82912 -1.1446867 0)
(160.26913 -1.1757837 0)
(160.71467 -1.1960326 0)
(161.16154 -1.2053676 0)
(161.60563 -1.2038644 0)
(162.04292 -1.1917376 0)
(162.46952 -1.1693362 0)
(162.88175 -1.1371359 0)
(163.27613 -1.095729 0)
(163.64943 -1.0458125 0)
(163.99873 -0.98817352 0)
(164.32141 -0.9236732 0)
(164.61519 -0.85322882 0)
(164.87814 -0.77779469 0)
(165.10868 -0.69834235 0)
(165.30563 -0.61584054 0)
(165.46813 -0.53123558 0)
(165.59571 -0.44543264 0)
(165.68821 -0.35927905 0)
(165.74576 -0.27354961 0)
(165.76882 -0.18893498 0)
(165.75803 -0.10603381 0)
(165.71429 -0.025349579 0)
(165.63865 0.052714632 0)
(165.53228 0.12784655 0)
(165.39645 0.19984118 0)
(165.23248 0.26857049 0)
(165.04173 0.33397636 0)
(164.82556 0.39601732 0)
(164.58532 0.45465834 0)
(164.32237 0.50987289 0)
(164.03811 0.56163523 0)
(163.73388 0.60993069 0)
(163.41102 0.65474288 0)
(163.07085 0.6960446 0)
(162.71471 0.7337923 0)
(162.34396 0.76792427 0)
(161.96001 0.79836217 0)
(161.56428 0.82501555 0)
(161.15829 0.84778844 0)
(160.74359 0.8665874 0)
(160.32178 0.88133036 0)
(159.89451 0.89195541 0)
(159.46348 0.89842907 0)
(159.03039 0.90075332 0)
(158.59695 0.89897109 0)
(158.16486 0.89316987 0)
(157.73579 0.88348321 0)
(157.31132 0.87009027 0)
(156.893 0.85321334 0)
(156.48224 0.83311361 0)
(156.08036 0.81008553 0)
(155.68854 0.78445002 0)
(155.30783 0.75654678 0)
(154.93912 0.7267263 0)
(154.58319 0.69534156 0)
(154.24062 0.66274011 0)
(153.91187 0.62925637 0)
(153.59727 0.59520475 0)
(153.29701 0.56087359 0)
(153.01117 0.52652029 0)
(152.73972 0.49236743 0)
(152.48254 0.45860055 0)
(152.23945 0.42536703 0)
(152.01022 0.3927765 0)
(151.79456 0.36090256 0)
(151.59217 0.3297859 0)
(151.40274 0.29943772 0)
(151.22597 0.26984078 0)
(151.06156 0.24095919 0)
(150.90923 0.21274921 0)
(150.76874 0.18516766 0)
(150.63988 0.15818457 0)
(150.52247 0.1318018 0)
(150.41634 0.1060804 0)
(150.32135 0.081169935 0)
(150.23738 0.057379194 0)
(150.16451 0.035387166 0)
(150.10268 0.016136537 0)
(150.05047 0.00046988184 0)
(150.01323 -0.006755114 0)
(163.56343 -0.47213999 0)
(163.61563 -0.38983089 0)
(163.58572 -0.29283956 0)
(163.53299 -0.18842979 0)
(163.43777 -0.076534715 0)
(163.30719 0.040082072 0)
(163.13957 0.15934255 0)
(162.93638 0.27891485 0)
(162.69867 0.39657639 0)
(162.4282 0.51009304 0)
(162.12721 0.61730249 0)
(161.79847 0.7161432 0)
(161.44527 0.80469606 0)
(161.07142 0.88126962 0)
(160.68125 0.94446853 0)
(160.27952 0.99317604 0)
(159.87135 1.0265369 0)
(159.46209 1.0439496 0)
(159.05722 1.0450689 0)
(158.66225 1.0298084 0)
(158.2826 0.9983406 0)
(157.92353 0.95109191 0)
(157.58998 0.88872856 0)
(157.28655 0.81213844 0)
(157.01739 0.72240425 0)
(156.78613 0.62077717 0)
(156.59583 0.50864379 0)
(156.44894 0.38749933 0)
(156.34731 0.2589172 0)
(156.29216 0.12452917 0)
(156.28413 -0.013998154 0)
(156.32324 -0.15493764 0)
(156.40897 -0.29643462 0)
(156.54026 -0.4366009 0)
(156.71556 -0.57365437 0)
(156.93285 -0.70595188 0)
(157.18966 -0.83197792 0)
(157.48314 -0.95034483 0)
(157.81008 -1.0597881 0)
(158.167 -1.1591744 0)
(158.55014 -1.2475048 0)
(158.95557 -1.3239261 0)
(159.37921 -1.3877356 0)
(159.81687 -1.4383903 0)
(160.2643 -1.4755115 0)
(160.71722 -1.4988884 0)
(161.17139 -1.50848 0)
(161.62264 -1.5044144 0)
(162.06688 -1.4869857 0)
(162.50018 -1.4566483 0)
(162.9188 -1.4140086 0)
(163.31921 -1.3598139 0)
(163.69815 -1.2949382 0)
(164.05263 -1.2203664 0)
(164.38 -1.1371751 0)
(164.67793 -1.0465115 0)
(164.94445 -0.94957113 0)
(165.17799 -0.84757344 0)
(165.37732 -0.74173757 0)
(165.54161 -0.63325794 0)
(165.67037 -0.52328072 0)
(165.76347 -0.41288267 0)
(165.8211 -0.30305224 0)
(165.84373 -0.19467446 0)
(165.83208 -0.088521211 0)
(165.78709 0.014752841 0)
(165.70989 0.11462106 0)
(165.60168 0.21067578 0)
(165.46382 0.30262768 0)
(165.29769 0.39027431 0)
(165.10472 0.47349744 0)
(164.88633 0.55224243 0)
(164.64391 0.62652256 0)
(164.37883 0.69639136 0)
(164.09244 0.76189296 0)
(163.78606 0.8230501 0)
(163.46098 0.87986269 0)
(163.11851 0.93230408 0)
(162.75997 0.98031909 0)
(162.38668 1.0238246 0)
(162.00005 1.0627129 0)
(161.60149 1.0968588 0)
(161.19251 1.1261284 0)
(160.77466 1.1503904 0)
(160.34956 1.1695276 0)
(159.91888 1.1834488 0)
(159.48434 1.1920997 0)
(159.04768 1.1954722 0)
(158.61064 1.193612 0)
(158.17496 1.1866227 0)
(157.74234 1.1746685 0)
(157.31443 1.1579731 0)
(156.89278 1.1368166 0)
(156.47885 1.1115301 0)
(156.074 1.082488 0)
(155.67942 1.0500995 0)
(155.29618 1.0147982 0)
(154.92521 0.97703201 0)
(154.56725 0.93725241 0)
(154.22292 0.89590394 0)
(153.89267 0.8534145 0)
(153.57682 0.81018644 0)
(153.27553 0.76658874 0)
(152.98889 0.7229507 0)
(152.71684 0.67955699 0)
(152.45925 0.63664464 0)
(152.21591 0.59440145 0)
(151.98657 0.55296633 0)
(151.77093 0.51243113 0)
(151.56867 0.47284424 0)
(151.37945 0.43421521 0)
(151.20296 0.39652053 0)
(151.03888 0.35971243 0)
(150.88692 0.32372453 0)
(150.74684 0.28847926 0)
(150.61842 0.25390156 0)
(150.50148 0.21993502 0)
(150.39592 0.18656251 0)
(150.30165 0.15382824 0)
(150.21869 0.12189621 0)
(150.1473 0.091160801 0)
(150.08758 0.062092943 0)
(150.03949 0.035369284 0)
(150.00918 0.014252754 0)
(163.65218 -0.48881709 0)
(163.70716 -0.37582368 0)
(163.68257 -0.25348506 0)
(163.63403 -0.12317135 0)
(163.54219 0.013706677 0)
(163.41366 0.15477004 0)
(163.24674 0.29763217 0)
(163.04285 0.43980787 0)
(162.80301 0.57877807 0)
(162.52904 0.71203779 0)
(162.22322 0.83715705 0)
(161.8884 0.9518266 0)
(161.52798 1.0539146 0)
(161.14586 1.1415107 0)
(160.74647 1.2129596 0)
(160.33466 1.2668657 0)
(159.91568 1.3021172 0)
(159.49505 1.3179105 0)
(159.07842 1.3137723 0)
(158.67152 1.2895697 0)
(158.27998 1.2455121 0)
(157.90927 1.1821428 0)
(157.56454 1.1003201 0)
(157.25059 1.0011937 0)
(156.97174 0.88617253 0)
(156.73179 0.75689314 0)
(156.53393 0.61518201 0)
(156.38074 0.46302477 0)
(156.27414 0.30252651 0)
(156.2154 0.13587568 0)
(156.20513 -0.034711573 0)
(156.24329 -0.20702983 0)
(156.32928 -0.37893987 0)
(156.46199 -0.54836911 0)
(156.63979 -0.71333487 0)
(156.86062 -0.87196856 0)
(157.12194 -1.0225243 0)
(157.42083 -1.1633959 0)
(157.75402 -1.2931217 0)
(158.11792 -1.4103985 0)
(158.50871 -1.5140869 0)
(158.92235 -1.603223 0)
(159.35465 -1.677023 0)
(159.80132 -1.7348917 0)
(160.25799 -1.7764267 0)
(160.72029 -1.8014214 0)
(161.18387 -1.8098668 0)
(161.64442 -1.8019503 0)
(162.09777 -1.7780523 0)
(162.53988 -1.73874 0)
(162.96691 -1.6847585 0)
(163.37524 -1.6170178 0)
(163.76152 -1.5365781 0)
(164.12269 -1.4446303 0)
(164.45603 -1.3424744 0)
(164.75918 -1.231495 0)
(165.03015 -1.1131337 0)
(165.26734 -0.98886075 0)
(165.46953 -0.86014486 0)
(165.63591 -0.72842339 0)
(165.76604 -0.59507332 0)
(165.85984 -0.46138493 0)
(165.91756 -0.32853818 0)
(165.93976 -0.19758386 0)
(165.92723 -0.069431505 0)
(165.881 0.055156906 0)
(165.80225 0.17557552 0)
(165.69227 0.29136971 0)
(165.55247 0.40221905 0)
(165.38427 0.50791942 0)
(165.18911 0.60835983 0)
(164.96843 0.7034927 0)
(164.72363 0.79331804 0)
(164.4561 0.87786466 0)
(164.16718 0.95716586 0)
(163.85818 1.0312452 0)
(163.53039 1.1001035 0)
(163.18509 1.1637089 0)
(162.82357 1.221992 0)
(162.44715 1.2748455 0)
(162.05719 1.3221291 0)
(161.65511 1.3636779 0)
(161.2424 1.3993148 0)
(160.82063 1.4288644 0)
(160.39142 1.4521684 0)
(159.95648 1.4691009 0)
(159.51755 1.4795821 0)
(159.07641 1.4835906 0)
(158.63486 1.4811729 0)
(158.19469 1.4724487 0)
(157.75764 1.4576143 0)
(157.32541 1.4369413 0)
(156.89961 1.4107725 0)
(156.48175 1.3795151 0)
(156.0732 1.3436311 0)
(155.67522 1.3036259 0)
(155.28888 1.2600364 0)
(154.91512 1.2134169 0)
(154.55472 1.1643265 0)
(154.20828 1.113316 0)
(153.87625 1.0609152 0)
(153.55894 1.0076223 0)
(153.25651 0.9538943 0)
(152.96901 0.90013885 0)
(152.69637 0.84670852 0)
(152.43843 0.79389705 0)
(152.19497 0.74193756 0)
(151.9657 0.69100303 0)
(151.75029 0.64120868 0)
(151.54841 0.59261628 0)
(151.35969 0.54523957 0)
(151.18381 0.49905175 0)
(151.02043 0.45399574 0)
(150.86926 0.40999441 0)
(150.73004 0.36696136 0)
(150.60257 0.32481524 0)
(150.48668 0.28349683 0)
(150.38228 0.24298892 0)
(150.28932 0.20333708 0)
(150.20787 0.16469218 0)
(150.13824 0.12735165 0)
(150.08053 0.09162485 0)
(150.03514 0.057993095 0)
(150.00783 0.027866644 0)
(163.7564 -0.53351741 0)
(163.82152 -0.39390689 0)
(163.80418 -0.24687016 0)
(163.76248 -0.090592019 0)
(163.67606 0.072369069 0)
(163.55135 0.23980206 0)
(163.38648 0.40900227 0)
(163.18276 0.5771428 0)
(162.94116 0.74130213 0)
(162.66348 0.89854752 0)
(162.35202 1.0459963 0)
(162.00973 1.180879 0)
(161.64012 1.3006131 0)
(161.24731 1.4028673 0)
(160.83593 1.4856243 0)
(160.41109 1.5472123 0)
(159.97829 1.5863343 0)
(159.5433 1.6020869 0)
(159.11203 1.5939766 0)
(158.69045 1.5619249 0)
(158.28442 1.5062649 0)
(157.89964 1.4277285 0)
(157.54148 1.3274197 0)
(157.21491 1.2067838 0)
(156.92443 1.0675624 0)
(156.67395 0.91175161 0)
(156.4668 0.74154921 0)
(156.30563 0.55931194 0)
(156.19246 0.36750523 0)
(156.1286 0.16866754 0)
(156.11475 -0.03463291 0)
(156.15092 -0.23981994 0)
(156.23653 -0.44431003 0)
(156.37044 -0.64557667 0)
(156.55096 -0.84122182 0)
(156.77592 -1.0290085 0)
(157.04268 -1.2068694 0)
(157.3482 -1.3729225 0)
(157.68909 -1.5254721 0)
(158.06166 -1.6630209 0)
(158.46194 -1.7842711 0)
(158.88578 -1.8881357 0)
(159.32885 -1.9737396 0)
(159.78674 -2.0404282 0)
(160.25493 -2.0877694 0)
(160.72893 -2.1155564 0)
(161.20423 -2.1238089 0)
(161.6764 -2.1127714 0)
(162.14113 -2.0829096 0)
(162.59426 -2.0349037 0)
(163.0318 -1.9696387 0)
(163.45004 -1.8881912 0)
(163.84551 -1.7918123 0)
(164.21507 -1.6819069 0)
(164.55592 -1.5600089 0)
(164.86563 -1.4277534 0)
(165.14217 -1.2868452 0)
(165.38392 -1.1390252 0)
(165.58968 -0.98603521 0)
(165.75864 -0.82958237 0)
(165.89042 -0.67130438 0)
(165.98499 -0.51273758 0)
(166.04267 -0.35528825 0)
(166.06412 -0.20020938 0)
(166.05022 -0.048585385 0)
(166.00211 0.098677048 0)
(165.92107 0.24086041 0)
(165.8085 0.37743617 0)
(165.6659 0.50803454 0)
(165.49477 0.63242822 0)
(165.29663 0.75050929 0)
(165.07294 0.86226015 0)
(164.82514 0.9677272 0)
(164.55461 1.0669893 0)
(164.26267 1.1601248 0)
(163.9506 1.2471892 0)
(163.61965 1.3282006 0)
(163.27106 1.4031291 0)
(162.90609 1.4718927 0)
(162.52601 1.5343584 0)
(162.13217 1.590349 0)
(161.72596 1.6396546 0)
(161.30887 1.6820479 0)
(160.88246 1.7173021 0)
(160.44839 1.7452105 0)
(160.00838 1.7656051 0)
(159.56422 1.7783743 0)
(159.11774 1.7834776 0)
(158.67079 1.7809574 0)
(158.22522 1.7709463 0)
(157.78284 1.7536702 0)
(157.34542 1.7294471 0)
(156.91461 1.698682 0)
(156.49199 1.6618583 0)
(156.07897 1.6195258 0)
(155.67684 1.5722873 0)
(155.28672 1.5207831 0)
(154.90956 1.4656748 0)
(154.54615 1.4076292 0)
(154.19709 1.3473028 0)
(153.86283 1.2853267 0)
(153.54367 1.2222937 0)
(153.23976 1.1587465 0)
(152.95111 1.0951687 0)
(152.67763 1.0319773 0)
(152.41913 0.96951858 0)
(152.17537 0.90806605 0)
(151.94601 0.84782065 0)
(151.73072 0.78891373 0)
(151.5291 0.73141185 0)
(151.3408 0.67532317 0)
(151.16543 0.62060555 0)
(151.00266 0.56717625 0)
(150.85217 0.51492236 0)
(150.71371 0.46371271 0)
(150.58707 0.4134124 0)
(150.4721 0.36389961 0)
(150.36873 0.31508435 0)
(150.27699 0.26692937 0)
(150.19701 0.21948411 0)
(150.12917 0.17290121 0)
(150.07367 0.12736358 0)
(150.03117 0.083262714 0)
(150.00667 0.04130813 0)
(163.88641 -0.56120626 0)
(163.96154 -0.39454328 0)
(163.95048 -0.22134398 0)
(163.91506 -0.038057549 0)
(163.83326 0.15177437 0)
(163.71152 0.3458715 0)
(163.54774 0.54122302 0)
(163.34315 0.73473165 0)
(163.09865 0.92315262 0)
(162.81605 1.1032071 0)
(162.49768 1.2716534 0)
(162.14658 1.4253621 0)
(161.76638 1.5613973 0)
(161.36135 1.6770857 0)
(160.93631 1.7700847 0)
(160.49661 1.8384297 0)
(160.04798 1.880581 0)
(159.59645 1.895458 0)
(159.14824 1.8824669 0)
(158.70962 1.8415127 0)
(158.28676 1.7729976 0)
(157.88565 1.6778058 0)
(157.51195 1.5572723 0)
(157.17087 1.4131454 0)
(156.86715 1.2475337 0)
(156.60489 1.0628549 0)
(156.38758 0.86177217 0)
(156.21798 0.64713985 0)
(156.09818 0.42193729 0)
(156.02955 0.1892166 0)
(156.01274 -0.047960897 0)
(156.04774 -0.28656617 0)
(156.13392 -0.5236733 0)
(156.27004 -0.75646378 0)
(156.45435 -0.98225475 0)
(156.68457 -1.1985336 0)
(156.95797 -1.4029719 0)
(157.27141 -1.5934488 0)
(157.62136 -1.7680558 0)
(158.00402 -1.9251126 0)
(158.41529 -2.0631686 0)
(158.85088 -2.1810153 0)
(159.30633 -2.277687 0)
(159.77705 -2.3524688 0)
(160.25841 -2.4048986 0)
(160.74574 -2.4347695 0)
(161.23437 -2.4421309 0)
(161.71975 -2.4272868 0)
(162.19738 -2.390792 0)
(162.66297 -2.3334452 0)
(163.11239 -2.2562789 0)
(163.5418 -2.1605446 0)
(163.9476 -2.0476946 0)
(164.32655 -1.9193584 0)
(164.67577 -1.7773153 0)
(164.99277 -1.6234618 0)
(165.27547 -1.4597756 0)
(165.52224 -1.2882763 0)
(165.73187 -1.1109838 0)
(165.90361 -0.92987649 0)
(166.03711 -0.74684951 0)
(166.13244 -0.56367695 0)
(166.19001 -0.38197747 0)
(166.21057 -0.20318653 0)
(166.19514 -0.028538022 0)
(166.14498 0.14094715 0)
(166.06145 0.30446544 0)
(165.94609 0.46142984 0)
(165.80047 0.61144255 0)
(165.62616 0.75427312 0)
(165.42474 0.88982639 0)
(165.19772 1.0181073 0)
(164.94656 1.1391878 0)
(164.67263 1.2531728 0)
(164.37725 1.3601672 0)
(164.06167 1.4602487 0)
(163.72711 1.553448 0)
(163.37475 1.6397347 0)
(163.00581 1.7190115 0)
(162.62153 1.7911155 0)
(162.2232 1.8558268 0)
(161.81221 1.9128826 0)
(161.39003 1.961997 0)
(160.95824 2.0028828 0)
(160.51849 2.0352759 0)
(160.07256 2.0589578 0)
(159.62228 2.0737783 0)
(159.16955 2.0796729 0)
(158.71628 2.0766773 0)
(158.2644 2.0649361 0)
(157.81581 2.0447068 0)
(157.37232 2.0163581 0)
(156.93568 1.9803636 0)
(156.50752 1.9372909 0)
(156.08933 1.8877876 0)
(155.68242 1.8325644 0)
(155.28795 1.7723767 0)
(154.90691 1.708005 0)
(154.54008 1.6402359 0)
(154.18809 1.5698431 0)
(153.85137 1.4975701 0)
(153.53019 1.4241143 0)
(153.2247 1.350114 0)
(152.93487 1.2761372 0)
(152.66058 1.2026733 0)
(152.40162 1.1301285 0)
(152.15769 1.0588229 0)
(151.92843 0.98899173 0)
(151.71345 0.9207884 0)
(151.51234 0.85429035 0)
(151.3247 0.78950663 0)
(151.15012 0.72638755 0)
(150.98824 0.66483552 0)
(150.83873 0.60471664 0)
(150.7013 0.54587316 0)
(150.57574 0.48813735 0)
(150.46189 0.43134616 0)
(150.3597 0.37535582 0)
(150.26919 0.32005589 0)
(150.19054 0.26538597 0)
(150.12409 0.21132723 0)
(150.07011 0.15784615 0)
(150.02932 0.10501327 0)
(150.00621 0.052880878 0)
(164.03758 -0.61189144 0)
(164.12712 -0.41922097 0)
(164.12379 -0.21979332 0)
(164.09622 -0.0088507522 0)
(164.02016 0.20925824 0)
(163.9023 0.4321019 0)
(163.74016 0.65623877 0)
(163.53488 0.87815939 0)
(163.28726 1.0941599 0)
(162.99906 1.3004842 0)
(162.67267 1.493403 0)
(162.3112 1.6693026 0)
(161.91845 1.8247822 0)
(161.49889 1.9567372 0)
(161.05762 2.0624458 0)
(160.60025 2.1396316 0)
(160.13286 2.1865238 0)
(159.66182 2.2018964 0)
(159.1937 2.1850988 0)
(158.73514 2.1360668 0)
(158.29265 2.0553178 0)
(157.87255 1.9439298 0)
(157.4808 1.8035021 0)
(157.12292 1.6361074 0)
(156.80384 1.4442268 0)
(156.5279 1.2306862 0)
(156.29872 0.99857899 0)
(156.1192 0.75120103 0)
(155.99152 0.49197449 0)
(155.91709 0.22439121 0)
(155.89661 -0.048053743 0)
(155.93005 -0.32190316 0)
(156.01675 -0.59376654 0)
(156.15541 -0.86037558 0)
(156.34415 -1.1186438 0)
(156.58059 -1.3656995 0)
(156.86184 -1.5988979 0)
(157.18463 -1.815844 0)
(157.54527 -2.0143946 0)
(157.93981 -2.1926728 0)
(158.36397 -2.3490674 0)
(158.81332 -2.4822433 0)
(159.28322 -2.5911407 0)
(159.76891 -2.6749826 0)
(160.26559 -2.7332754 0)
(160.76841 -2.7658116 0)
(161.27255 -2.7726699 0)
(161.77324 -2.7542146 0)
(162.26585 -2.7110909 0)
(162.7459 -2.6442191 0)
(163.2091 -2.554783 0)
(163.65146 -2.4442158 0)
(164.06925 -2.3141795 0)
(164.45911 -2.1665403 0)
(164.81804 -2.0033372 0)
(165.14348 -1.8267463 0)
(165.43331 -1.6390397 0)
(165.68585 -1.4425404 0)
(165.89992 -1.2395743 0)
(166.07478 -1.0324212 0)
(166.21016 -0.82326553 0)
(166.3062 -0.61415208 0)
(166.36344 -0.40694435 0)
(166.38274 -0.20329146 0)
(166.36527 -0.0046051193 0)
(166.31243 0.18795555 0)
(166.22574 0.37349453 0)
(166.10687 0.55137719 0)
(165.95751 0.72118737 0)
(165.77934 0.8827056 0)
(165.57401 1.0358724 0)
(165.34309 1.1807466 0)
(165.08804 1.3174626 0)
(164.81024 1.4461873 0)
(164.51098 1.5670801 0)
(164.19147 1.6802601 0)
(163.85287 1.7857817 0)
(163.49631 1.8836193 0)
(163.12293 1.9736603 0)
(162.73393 2.0557081 0)
(162.33056 2.1294932 0)
(161.91417 2.194691 0)
(161.48621 2.2509461 0)
(161.04827 2.2978993 0)
(160.60203 2.3352171 0)
(160.14931 2.3626202 0)
(159.692 2.3799093 0)
(159.23205 2.3869877 0)
(158.77149 2.3838776 0)
(158.3123 2.3707315 0)
(157.85649 2.3478357 0)
(157.40597 2.3156088 0)
(156.96256 2.2745936 0)
(156.52797 2.2254439 0)
(156.10375 2.1689078 0)
(155.69127 2.1058069 0)
(155.29173 2.037015 0)
(154.90615 1.9634346 0)
(154.53533 1.8859742 0)
(154.17988 1.8055267 0)
(153.84024 1.7229487 0)
(153.51668 1.6390428 0)
(153.20928 1.5545415 0)
(152.91801 1.4700955 0)
(152.64272 1.3862641 0)
(152.38313 1.3035094 0)
(152.13891 1.2221941 0)
(151.90966 1.1425819 0)
(151.69495 1.0648421 0)
(151.49433 0.98905549 0)
(151.30736 0.91522319 0)
(151.13359 0.84327721 0)
(150.97264 0.77309233 0)
(150.82416 0.70449895 0)
(150.68784 0.63729699 0)
(150.56345 0.57127082 0)
(150.45086 0.50620453 0)
(150.35 0.4418969 0)
(150.2609 0.3781748 0)
(150.18377 0.31490414 0)
(150.11895 0.25197652 0)
(150.06666 0.1892679 0)
(150.02762 0.12670337 0)
(150.00579 0.06404662 0)
(164.21417 -0.65529571 0)
(164.3183 -0.43532535 0)
(164.32266 -0.20824473 0)
(164.30299 0.031556175 0)
(164.2325 0.27894986 0)
(164.11819 0.53126802 0)
(163.95722 0.78469637 0)
(163.75059 1.0353615 0)
(163.499 1.2791479 0)
(163.20418 1.5118614 0)
(162.86852 1.729315 0)
(162.49522 1.9274312 0)
(162.08823 2.1023541 0)
(161.65223 2.2505462 0)
(161.19257 2.3688901 0)
(160.7152 2.4547686 0)
(160.22653 2.5061393 0)
(159.73333 2.521587 0)
(159.24259 2.5003635 0)
(158.76135 2.4424031 0)
(158.29655 2.348318 0)
(157.85491 2.2193745 0)
(157.44276 2.0574467 0)
(157.06593 1.8649594 0)
(156.72968 1.644811 0)
(156.43856 1.4002977 0)
(156.19638 1.135021 0)
(156.00619 0.85280937 0)
(155.87023 0.55762492 0)
(155.78994 0.25349337 0)
(155.76602 -0.055577779 0)
(155.79837 -0.36565175 0)
(155.88627 -0.67294331 0)
(156.0283 -0.97383185 0)
(156.22247 -1.2648956 0)
(156.46626 -1.5429499 0)
(156.75664 -1.8050622 0)
(157.09017 -2.0485799 0)
(157.46302 -2.2711328 0)
(157.87104 -2.4706498 0)
(158.30981 -2.6453575 0)
(158.7747 -2.7937918 0)
(159.26089 -2.9147953 0)
(159.76344 -3.0075251 0)
(160.27736 -3.0714532 0)
(160.79758 -3.106369 0)
(161.31911 -3.11238 0)
(161.83699 -3.089911 0)