/*--------------------------------*- C++ -*----------------------------------*\
| =========                 |                                                 |
| \\      /  F ield         | foam-extend: Open Source CFD                    |
|  \\    /   O peration     | Version:     4.1                                |
|   \\  /    A nd           | Web:         http://www.foam-extend.org         |
|    \\/     M anipulation  |                                                 |
\*---------------------------------------------------------------------------*/
FoamFile
{
    version     2.0;
    format      ascii;
    class       volVectorField;
    location    "0.4";
    object      U;
}
// * * * * * * * * * * * * * * * * * * * * * * * * * * * * * * * * * * * * * //

dimensions      [0 1 -1 0 0 0 0];

internalField   nonuniform List<vector> 
16796
(
(137.82293 -0.058281287 0)
(137.91255 -0.071320521 0)
(138.00972 -0.077778222 0)
(138.12292 -0.083602518 0)
(138.25203 -0.089486408 0)
(138.39771 -0.095573007 0)
(138.56073 -0.10186063 0)
(138.74174 -0.10830317 0)
(138.94122 -0.11483862 0)
(139.15949 -0.12139803 0)
(139.39663 -0.12790776 0)
(139.6525 -0.134292 0)
(139.92676 -0.14047446 0)
(140.21882 -0.14637948 0)
(140.52789 -0.15193341 0)
(140.85293 -0.15706547 0)
(141.19271 -0.16170905 0)
(141.54579 -0.16580256 0)
(141.91057 -0.16929063 0)
(142.28525 -0.17212492 0)
(142.66792 -0.17426515 0)
(143.05651 -0.1756798 0)
(143.4489 -0.17634682 0)
(143.84287 -0.17625418 0)
(144.23618 -0.17540032 0)
(144.62658 -0.17379434 0)
(145.01184 -0.1714561 0)
(145.38981 -0.1684162 0)
(145.75842 -0.16471565 0)
(146.1157 -0.16040553 0)
(146.45988 -0.15554632 0)
(146.78934 -0.15020722 0)
(147.10267 -0.14446535 0)
(147.3987 -0.13840441 0)
(147.67653 -0.1321139 0)
(147.93549 -0.1256875 0)
(148.17524 -0.11922193 0)
(148.39572 -0.11281524 0)
(148.59714 -0.10656544 0)
(148.78004 -0.10056869 0)
(148.94525 -0.094917776 0)
(149.09387 -0.089700314 0)
(149.22726 -0.084997297 0)
(149.34705 -0.080881531 0)
(149.45506 -0.077416004 0)
(149.55331 -0.074652501 0)
(149.64396 -0.072630444 0)
(149.7293 -0.071375798 0)
(149.81165 -0.070899938 0)
(149.89339 -0.071198926 0)
(149.97686 -0.072253398 0)
(150.0643 -0.074028657 0)
(150.15785 -0.07647497 0)
(150.25949 -0.079528091 0)
(150.37094 -0.083110388 0)
(150.49372 -0.087131986 0)
(150.62901 -0.091492067 0)
(150.77769 -0.096080948 0)
(150.94028 -0.10078231 0)
(151.11694 -0.10547534 0)
(151.30744 -0.11003695 0)
(151.51119 -0.1143442 0)
(151.72719 -0.11827677 0)
(151.9541 -0.12171942 0)
(152.19023 -0.12456421 0)
(152.43358 -0.12671268 0)
(152.68186 -0.12807794 0)
(152.93254 -0.12858663 0)
(153.18289 -0.12818077 0)
(153.43007 -0.12681939 0)
(153.67111 -0.1244799 0)
(153.90306 -0.12115904 0)
(154.12297 -0.11687368 0)
(154.32798 -0.1116595 0)
(154.51541 -0.10557078 0)
(154.68276 -0.098679921 0)
(154.82778 -0.09107309 0)
(154.94853 -0.082847814 0)
(155.0434 -0.07411112 0)
(155.11112 -0.064964825 0)
(155.15082 -0.055492034 0)
(155.16204 -0.045753657 0)
(155.14436 -0.03586367 0)
(155.09758 -0.026045341 0)
(155.02239 -0.016505442 0)
(154.91981 -0.0073825589 0)
(154.79125 0.0012078597 0)
(154.63841 0.0091665153 0)
(154.46326 0.016409771 0)
(154.268 0.022870045 0)
(154.05498 0.028496015 0)
(153.8267 0.03325246 0)
(153.58572 0.037119681 0)
(153.33467 0.040092554 0)
(153.07615 0.042179315 0)
(152.81273 0.043400106 0)
(152.54693 0.043785382 0)
(152.28116 0.043374224 0)
(152.01771 0.042212676 0)
(151.75875 0.040352116 0)
(151.50628 0.037847705 0)
(151.26217 0.034757001 0)
(151.02811 0.031138722 0)
(150.80564 0.027051678 0)
(150.59613 0.022553917 0)
(150.40081 0.017702072 0)
(150.22074 0.012550877 0)
(150.05684 0.0071529137 0)
(149.90992 0.0015585808 0)
(149.78063 -0.0041837593 0)
(149.66953 -0.010027311 0)
(149.57706 -0.015926024 0)
(149.50355 -0.021833415 0)
(149.44925 -0.027700471 0)
(149.4143 -0.033471392 0)
(149.39878 -0.039077873 0)
(149.40264 -0.044437894 0)
(149.42547 -0.049474425 0)
(149.46688 -0.054029809 0)
(149.52681 -0.057760001 0)
(149.60618 -0.060303585 0)
(149.70181 -0.061666842 0)
(149.79787 -0.061836927 0)
(149.87509 -0.050367696 0)
(157.68471 -0.027704486 0)
(157.63073 -0.046596639 0)
(157.59455 -0.061366756 0)
(157.56844 -0.076235026 0)
(157.55531 -0.091823607 0)
(157.55617 -0.10826376 0)
(157.57188 -0.12548211 0)
(157.60314 -0.14333524 0)
(157.65051 -0.16164566 0)
(157.71437 -0.18021366 0)
(157.79493 -0.19882802 0)
(157.89218 -0.2172687 0)
(158.00594 -0.23531137 0)
(158.13579 -0.25273023 0)
(158.28112 -0.26930207 0)
(158.44112 -0.28480917 0)
(158.61475 -0.29904336 0)
(158.80081 -0.31180868 0)
(158.9979 -0.32292534 0)
(159.20444 -0.33223217 0)
(159.41874 -0.33959009 0)
(159.63894 -0.34488424 0)
(159.86311 -0.34802675 0)
(160.0892 -0.34895837 0)
(160.31516 -0.34765036 0)
(160.53886 -0.34410548 0)
(160.75823 -0.33835881 0)
(160.97119 -0.33047801 0)
(161.17578 -0.32056298 0)
(161.37009 -0.30874536 0)
(161.55239 -0.29518688 0)
(161.72107 -0.28007803 0)
(161.87474 -0.26363561 0)
(162.01221 -0.24609966 0)
(162.13253 -0.22773082 0)
(162.23501 -0.20880598 0)
(162.31922 -0.18961474 0)
(162.38504 -0.1704543 0)
(162.4326 -0.1516252 0)
(162.46237 -0.1334256 0)
(162.47507 -0.11614638 0)
(162.47172 -0.10006514 0)
(162.4536 -0.085441696 0)
(162.42225 -0.072512962 0)
(162.37942 -0.061487092 0)
(162.32705 -0.052538598 0)
(162.26725 -0.045804698 0)
(162.20225 -0.04137985 0)
(162.13434 -0.039311777 0)
(162.06585 -0.039601414 0)
(161.9991 -0.042201728 0)
(161.93633 -0.047016419 0)
(161.87966 -0.053901231 0)
(161.83107 -0.06266539 0)
(161.7923 -0.073073715 0)
(161.76486 -0.084851301 0)
(161.74994 -0.097687759 0)
(161.74843 -0.11124279 0)
(161.76085 -0.1251547 0)
(161.78734 -0.13904701 0)
(161.82767 -0.15253535 0)
(161.88122 -0.16523558 0)
(161.94696 -0.17677207 0)
(162.02351 -0.1867859 0)
(162.10912 -0.19494276 0)
(162.20172 -0.20094047 0)
(162.29895 -0.20451599 0)
(162.3982 -0.20545159 0)
(162.49669 -0.20358007 0)
(162.59145 -0.19878889 0)
(162.67948 -0.19102309 0)
(162.75772 -0.18028712 0)
(162.82316 -0.16664592 0)
(162.87289 -0.15022191 0)
(162.90415 -0.13118957 0)
(162.91437 -0.10977924 0)
(162.90126 -0.086269056 0)
(162.86284 -0.060973182 0)
(162.79744 -0.034234669 0)
(162.7038 -0.0064229919 0)
(162.58099 0.022094089 0)
(162.42852 0.050978383 0)
(162.24667 0.079868713 0)
(162.03627 0.10833135 0)
(161.79804 0.13593578 0)
(161.53303 0.16231849 0)
(161.24261 0.18715974 0)
(160.92839 0.21018059 0)
(160.59228 0.23114446 0)
(160.23635 0.24985873 0)
(159.86285 0.26617555 0)
(159.47416 0.27999145 0)
(159.07272 0.29124587 0)
(158.66102 0.29991864 0)
(158.24156 0.30602668 0)
(157.81677 0.30962004 0)
(157.38906 0.31077749 0)
(156.96073 0.30960192 0)
(156.53398 0.30621561 0)
(156.11087 0.3007557 0)
(155.69334 0.29336979 0)
(155.28318 0.28421195 0)
(154.88202 0.27343913 0)
(154.49136 0.26120798 0)
(154.11254 0.24767224 0)
(153.74675 0.23298063 0)
(153.39505 0.21727512 0)
(153.05836 0.20068981 0)
(152.73749 0.18335026 0)
(152.43311 0.16537319 0)
(152.1458 0.1468668 0)
(151.87605 0.12793151 0)
(151.62423 0.10866138 0)
(151.39066 0.089147211 0)
(151.17556 0.069482 0)
(150.97906 0.049767419 0)
(150.80121 0.030113578 0)
(150.64201 0.010650538 0)
(150.50128 -0.0083609987 0)
(150.3791 -0.026361965 0)
(150.276 -0.042922237 0)
(150.18884 -0.058260698 0)
(150.10876 -0.072738346 0)
(150.03454 -0.066864155 0)
(159.46856 -0.00078595806 0)
(159.4471 -0.01864888 0)
(159.44362 -0.039583243 0)
(159.44991 -0.062134645 0)
(159.4682 -0.086161712 0)
(159.49896 -0.11156563 0)
(159.54255 -0.13816246 0)
(159.59919 -0.16570929 0)
(159.66892 -0.19392487 0)
(159.75165 -0.22249904 0)
(159.84714 -0.25110384 0)
(159.95499 -0.27939806 0)
(160.07467 -0.30703383 0)
(160.20547 -0.33366071 0)
(160.34656 -0.35893205 0)
(160.49696 -0.38250922 0)
(160.65556 -0.40406798 0)
(160.82111 -0.42330267 0)
(160.99226 -0.43993228 0)
(161.16754 -0.45370457 0)
(161.34542 -0.46440144 0)
(161.52427 -0.47184254 0)
(161.70244 -0.47588973 0)
(161.87822 -0.47644991 0)
(162.04991 -0.47347812 0)
(162.21582 -0.46697936 0)
(162.3743 -0.45701006 0)
(162.52377 -0.44367869 0)
(162.66273 -0.4271454 0)
(162.78979 -0.40762126 0)
(162.90371 -0.38536592 0)
(163.00341 -0.36068548 0)
(163.08798 -0.33392843 0)
(163.15672 -0.30548123 0)
(163.20915 -0.27576365 0)
(163.24502 -0.24522199 0)
(163.26431 -0.21432332 0)
(163.26728 -0.18354712 0)
(163.25441 -0.15337849 0)
(163.22645 -0.12429874 0)
(163.18439 -0.09677729 0)
(163.12944 -0.071262201 0)
(163.06305 -0.048172537 0)
(162.98686 -0.027889567 0)
(162.90268 -0.010749194 0)
(162.81245 0.0029680903 0)
(162.71826 0.013047097 0)
(162.62224 0.019341997 0)
(162.52657 0.021775006 0)
(162.43342 0.020346099 0)
(162.34491 0.0151392 0)
(162.26307 0.0063181437 0)
(162.18977 -0.005874768 0)
(162.12672 -0.02111921 0)
(162.07542 -0.039023161 0)
(162.03708 -0.05912846 0)
(162.01264 -0.080918314 0)
(162.00273 -0.10382893 0)
(162.00762 -0.12725916 0)
(162.02723 -0.15058261 0)
(162.06113 -0.17316032 0)
(162.1085 -0.19435384 0)
(162.16817 -0.21353872 0)
(162.23863 -0.23011852 0)
(162.31805 -0.24353805 0)
(162.40427 -0.25329575 0)
(162.49491 -0.25895551 0)
(162.58733 -0.26015711 0)
(162.67876 -0.25662498 0)
(162.76627 -0.24817521 0)
(162.84687 -0.23472027 0)
(162.91758 -0.21627163 0)
(162.97545 -0.19294371 0)
(163.01763 -0.16494272 0)
(163.04144 -0.13256128 0)
(163.04439 -0.096190244 0)
(163.02428 -0.056302286 0)
(162.97919 -0.013428296 0)
(162.90754 0.031839717 0)
(162.80813 0.07886665 0)
(162.68014 0.12699147 0)
(162.52314 0.17553965 0)
(162.33706 0.22385593 0)
(162.12223 0.27132752 0)
(161.87937 0.31736194 0)
(161.60953 0.36138913 0)
(161.3141 0.4028916 0)
(160.99476 0.44141423 0)
(160.65342 0.47657002 0)
(160.2922 0.50804372 0)
(159.91339 0.53559326 0)
(159.5194 0.55904939 0)
(159.11271 0.57831311 0)
(158.69583 0.59335174 0)
(158.27129 0.6041934 0)
(157.84157 0.61092053 0)
(157.40908 0.61366271 0)
(156.97613 0.61258899 0)
(156.54496 0.6079002 0)
(156.11762 0.59982143 0)
(155.69608 0.58859486 0)
(155.28211 0.57447314 0)
(154.87736 0.55771351 0)
(154.48332 0.53857262 0)
(154.10133 0.51730216 0)
(153.73257 0.49414539 0)
(153.3781 0.46933435 0)
(153.03884 0.44308789 0)
(152.71557 0.41561045 0)
(152.40897 0.38709154 0)
(152.11963 0.3577057 0)
(151.84799 0.32761337 0)
(151.59446 0.29696223 0)
(151.35931 0.26589046 0)
(151.14277 0.23453048 0)
(150.94499 0.20301018 0)
(150.766 0.17145211 0)
(150.60572 0.14001141 0)
(150.46411 0.10898178 0)
(150.34127 0.078843453 0)
(150.23722 0.049760888 0)
(150.14907 0.021925586 0)
(150.07411 -0.0052377986 0)
(150.01997 -0.017557174 0)
(159.59301 -0.0046747052 0)
(159.57679 -0.029673666 0)
(159.57907 -0.057619045 0)
(159.59194 -0.087718254 0)
(159.61709 -0.11957725 0)
(159.65488 -0.15291194 0)
(159.70553 -0.18742612 0)
(159.76911 -0.22278449 0)
(159.84555 -0.25862025 0)
(159.9346 -0.29454129 0)
(160.03591 -0.33013735 0)
(160.14895 -0.36498586 0)
(160.27308 -0.39865956 0)
(160.4075 -0.43073114 0)
(160.55129 -0.46078091 0)
(160.7034 -0.48840148 0)
(160.86268 -0.51320544 0)
(161.02785 -0.53483022 0)
(161.19756 -0.55294551 0)
(161.37035 -0.56725804 0)
(161.54472 -0.57751827 0)
(161.7191 -0.5835248 0)
(161.89189 -0.58512981 0)
(162.06149 -0.58224271 0)
(162.22628 -0.57483395 0)
(162.38467 -0.5629374 0)
(162.53514 -0.5466522 0)
(162.67619 -0.52614364 0)
(162.80646 -0.50164262 0)
(162.92465 -0.47344484 0)
(163.02963 -0.44190767 0)
(163.12041 -0.40744757 0)
(163.19617 -0.37053455 0)
(163.25627 -0.33168675 0)
(163.30028 -0.29146416 0)
(163.32801 -0.25045965 0)
(163.33948 -0.2092915 0)
(163.33495 -0.16859234 0)
(163.31492 -0.12900013 0)
(163.28014 -0.091145746 0)
(163.2316 -0.055642281 0)
(163.1705 -0.023071207 0)
(163.09827 0.0060255808 0)
(163.01653 0.03115723 0)
(162.9271 0.05189599 0)
(162.83191 0.067893009 0)
(162.73303 0.078879464 0)
(162.63261 0.084673653 0)
(162.53282 0.085204312 0)
(162.43585 0.080504804 0)
(162.34383 0.07071025 0)
(162.25881 0.056065887 0)
(162.18268 0.036924287 0)
(162.11717 0.013739055 0)
(162.0638 -0.012941292 0)
(162.02381 -0.042479868 0)
(161.99816 -0.074159456 0)
(161.98749 -0.10719748 0)
(161.99209 -0.14076712 0)
(162.01187 -0.17401114 0)
(162.0464 -0.20605483 0)
(162.09486 -0.23602501 0)
(162.15606 -0.26306949 0)
(162.22846 -0.28637572 0)
(162.31018 -0.30518813 0)
(162.39904 -0.31882526 0)
(162.4926 -0.32669538 0)
(162.58818 -0.3283109 0)
(162.68292 -0.3233003 0)
(162.77384 -0.31141771 0)
(162.85789 -0.29254919 0)
(162.932 -0.26671723 0)
(162.99316 -0.23408883 0)
(163.03846 -0.19494661 0)
(163.06514 -0.14970215 0)
(163.07066 -0.098906077 0)
(163.05277 -0.043207539 0)
(163.0095 0.016652832 0)
(162.93923 0.079857808 0)
(162.84072 0.14553643 0)
(162.71313 0.21277827 0)
(162.556 0.28064562 0)
(162.3693 0.34820359 0)
(162.15338 0.4145561 0)
(161.90897 0.47885451 0)
(161.63719 0.54030442 0)
(161.33946 0.59818465 0)
(161.0175 0.65186041 0)
(160.67329 0.70079212 0)
(160.30901 0.74454082 0)
(159.927 0.78277037 0)
(159.52973 0.81524684 0)
(159.11973 0.84183496 0)
(158.69958 0.8624924 0)
(158.27183 0.87726207 0)
(157.839 0.88626289 0)
(157.40355 0.88967965 0)
(156.96782 0.88775224 0)
(156.53404 0.88076485 0)
(156.10432 0.86903537 0)
(155.68059 0.85290541 0)
(155.26467 0.83273104 0)
(154.85819 0.80887463 0)
(154.46264 0.78169773 0)
(154.07934 0.75155503 0)
(153.70948 0.71878972 0)
(153.3541 0.68372975 0)
(153.01411 0.64668543 0)
(152.69028 0.607948 0)
(152.38328 0.56778933 0)
(152.09367 0.52646255 0)
(151.82191 0.484204 0)
(151.56837 0.44123634 0)
(151.33335 0.39777402 0)
(151.11705 0.35402935 0)
(150.91962 0.31021624 0)
(150.74111 0.26655812 0)
(150.5815 0.22333628 0)
(150.44083 0.18097444 0)
(150.31914 0.14001177 0)
(150.21613 0.10074469 0)
(150.12947 0.064746492 0)
(150.05948 0.031695669 0)
(150.01462 0.010069217 0)
(159.59635 0.015727024 0)
(159.57723 -0.016867609 0)
(159.5781 -0.052582473 0)
(159.59002 -0.090961214 0)
(159.61457 -0.13153262 0)
(159.65205 -0.17388157 0)
(159.70269 -0.21758422 0)
(159.76656 -0.26219208 0)
(159.84356 -0.30722844 0)
(159.93345 -0.3521926 0)
(160.03586 -0.39656826 0)
(160.15026 -0.43982805 0)
(160.27597 -0.48144277 0)
(160.41218 -0.52088651 0)
(160.55795 -0.55764584 0)
(160.7122 -0.59122526 0)
(160.87375 -0.62115625 0)
(161.04131 -0.64700291 0)
(161.21349 -0.66837055 0)
(161.38882 -0.68491119 0)
(161.56576 -0.69633131 0)
(161.74274 -0.70239682 0)
(161.91812 -0.70293947 0)
(162.09026 -0.69786099 0)
(162.25755 -0.68713759 0)
(162.41837 -0.67082283 0)
(162.57114 -0.64904984 0)
(162.71438 -0.62203253 0)
(162.84667 -0.59006513 0)
(162.96669 -0.55352147 0)
(163.07329 -0.51285144 0)
(163.16543 -0.46857816 0)
(163.24227 -0.42129154 0)
(163.30314 -0.37164198 0)
(163.34758 -0.32033296 0)
(163.37538 -0.26811016 0)
(163.38652 -0.21575242 0)
(163.38127 -0.16405815 0)
(163.3601 -0.11383407 0)
(163.32376 -0.065879921 0)
(163.27325 -0.020973435 0)
(163.20978 0.020148016 0)
(163.13481 0.056791626 0)
(163.04999 0.088327334 0)
(162.95718 0.11421234 0)
(162.85837 0.13399118 0)
(162.75569 0.14731919 0)
(162.65134 0.15397987 0)
(162.54759 0.15387748 0)
(162.44668 0.14704956 0)
(162.35083 0.1336762 0)
(162.26216 0.1140747 0)
(162.18267 0.088700308 0)
(162.11415 0.058140749 0)
(162.0582 0.023107848 0)
(162.01611 -0.015575986 0)
(161.9889 -0.05698627 0)
(161.97726 -0.10010945 0)
(161.98151 -0.14387389 0)
(162.0016 -0.18716937 0)
(162.03708 -0.22886238 0)
(162.08714 -0.26782245 0)
(162.15056 -0.30294591 0)
(162.22577 -0.3331813 0)
(162.31083 -0.35755178 0)
(162.40352 -0.3751768 0)
(162.50131 -0.38529315 0)
(162.60143 -0.3872732 0)
(162.70095 -0.38064059 0)
(162.79678 -0.36508235 0)
(162.88577 -0.34045671 0)
(162.96476 -0.30680128 0)
(163.03062 -0.26433772 0)
(163.08034 -0.21343772 0)
(163.11108 -0.15464708 0)
(163.12023 -0.088688586 0)
(163.10544 -0.016405984 0)
(163.06469 0.061238837 0)
(162.99632 0.14318731 0)
(162.89905 0.2283063 0)
(162.77201 0.31541599 0)
(162.61477 0.40331366 0)
(162.42727 0.49080228 0)
(162.20992 0.57672112 0)
(161.96349 0.65996714 0)
(161.68913 0.7395137 0)
(161.38834 0.81443044 0)
(161.06291 0.88389917 0)
(160.71489 0.94722524 0)
(160.34653 1.0038447 0)
(159.96025 1.0533269 0)
(159.55861 1.0953739 0)
(159.1442 1.1298156 0)
(158.71967 1.1566019 0)
(158.28763 1.1757927 0)
(157.85066 1.1875458 0)
(157.41124 1.1921037 0)
(156.97178 1.189779 0)
(156.53451 1.1809406 0)
(156.10157 1.1660002 0)
(155.67491 1.1453985 0)
(155.25633 1.1195939 0)
(154.84748 1.0890515 0)
(154.44984 1.0542338 0)
(154.06472 1.0155933 0)
(153.6933 0.97356584 0)
(153.33659 0.92856617 0)
(152.99549 0.88098447 0)
(152.67076 0.83118439 0)
(152.36305 0.77950237 0)
(152.0729 0.72624813 0)
(151.80076 0.67170658 0)
(151.54698 0.61614136 0)
(151.31186 0.5598003 0)
(151.0956 0.50292144 0)
(150.89836 0.44573916 0)
(150.72021 0.38849898 0)
(150.56119 0.33150423 0)
(150.42144 0.27516462 0)
(150.30096 0.21993349 0)
(150.19948 0.16615316 0)
(150.11552 0.11642081 0)
(150.05071 0.069827484 0)
(150.01192 0.032168435 0)
(159.59424 0.020842196 0)
(159.57228 -0.01943975 0)
(159.57108 -0.062983235 0)
(159.58118 -0.10945862 0)
(159.60425 -0.15834603 0)
(159.64056 -0.20914475 0)
(159.69036 -0.26133999 0)
(159.75373 -0.31438828 0)
(159.83061 -0.36772154 0)
(159.92076 -0.42074777 0)
(160.02381 -0.4728598 0)
(160.13923 -0.52344058 0)
(160.26635 -0.57187302 0)
(160.40435 -0.61754613 0)
(160.55228 -0.65986533 0)
(160.70905 -0.69825873 0)
(160.87345 -0.73218747 0)
(161.04416 -0.76115206 0)
(161.21976 -0.78470223 0)
(161.39876 -0.80244317 0)
(161.57957 -0.81404431 0)
(161.76057 -0.81924509 0)
(161.94009 -0.81786226 0)
(162.11644 -0.8097947 0)
(162.28794 -0.79502862 0)
(162.45292 -0.77364108 0)
(162.60976 -0.74580254 0)
(162.75691 -0.7117786 0)
(162.89289 -0.67192943 0)
(163.01633 -0.62670928 0)
(163.12602 -0.57666246 0)
(163.22088 -0.52242023 0)
(163.29999 -0.46469335 0)
(163.36267 -0.40426482 0)
(163.40841 -0.3419812 0)
(163.43695 -0.27873976 0)
(163.44827 -0.21547783 0)
(163.44261 -0.15315641 0)
(163.42044 -0.092746903 0)
(163.38253 -0.035213271 0)
(163.32987 0.01851223 0)
(163.26371 0.06753998 0)
(163.18555 0.11103029 0)
(163.0971 0.14822784 0)
(163.00026 0.17847791 0)
(162.89711 0.20123267 0)
(162.78984 0.21608774 0)
(162.68076 0.22277712 0)
(162.5722 0.22119047 0)
(162.46654 0.21138381 0)
(162.36607 0.19357984 0)
(162.27303 0.16817259 0)
(162.1895 0.13572453 0)
(162.11738 0.096960117 0)
(162.05834 0.052756495 0)
(162.01378 0.0041292479 0)
(161.98477 -0.047789206 0)
(161.97206 -0.10175216 0)
(161.976 -0.1564365 0)
(161.99659 -0.21047704 0)
(162.03337 -0.26248518 0)
(162.08552 -0.31107303 0)
(162.15181 -0.35488373 0)
(162.23062 -0.39262468 0)
(162.31996 -0.42309568 0)
(162.41751 -0.44521472 0)
(162.52067 -0.45804311 0)
(162.62657 -0.46080855 0)
(162.73214 -0.45292469 0)
(162.8342 -0.43400614 0)
(162.92946 -0.40387894 0)
(163.01461 -0.36259174 0)
(163.08644 -0.31041273 0)
(163.14177 -0.24780808 0)
(163.17768 -0.17545572 0)
(163.19142 -0.094243094 0)
(163.18058 -0.0052120344 0)
(163.14305 0.090436839 0)
(163.0771 0.19138657 0)
(162.98141 0.29623155 0)
(162.85511 0.40350774 0)
(162.69773 0.51172582 0)
(162.50926 0.61940604 0)
(162.29013 0.72511173 0)
(162.04117 0.82747794 0)
(161.7636 0.9252373 0)
(161.45899 1.0172436 0)
(161.12922 1.1024907 0)
(160.77643 1.1801268 0)
(160.40299 1.2494628 0)
(160.0114 1.3099756 0)
(159.60432 1.3613069 0)
(159.18443 1.4032572 0)
(158.75446 1.4357755 0)
(158.31711 1.458947 0)
(157.87502 1.4729774 0)
(157.43073 1.4781763 0)
(156.98667 1.4749394 0)
(156.54514 1.4637311 0)
(156.10827 1.4450671 0)
(155.67805 1.4194983 0)
(155.25628 1.3875961 0)
(154.8446 1.3499393 0)
(154.44448 1.3071025 0)
(154.05723 1.2596471 0)
(153.68399 1.2081135 0)
(153.32578 1.1530154 0)
(152.98345 1.0948361 0)
(152.65775 1.0340254 0)
(152.3493 0.97099963 0)
(152.05862 0.90614152 0)
(151.78614 0.83980246 0)
(151.53218 0.77230595 0)
(151.29703 0.70395259 0)
(151.08089 0.63502528 0)
(150.88389 0.56579564 0)
(150.70611 0.49653971 0)
(150.54765 0.42757277 0)
(150.40863 0.35926137 0)
(150.28906 0.29195474 0)
(150.18878 0.22595565 0)
(150.10697 0.16430953 0)
(150.04576 0.10454959 0)
(150.01052 0.051017085 0)
(159.59692 0.040133604 0)
(159.57071 -0.0080050998 0)
(159.56682 -0.059831582 0)
(159.57457 -0.11500878 0)
(159.59566 -0.17294972 0)
(159.63042 -0.23306094 0)
(159.67908 -0.2947186 0)
(159.74176 -0.3572706 0)
(159.8184 -0.42003848 0)
(159.90879 -0.4823197 0)
(160.01257 -0.54339816 0)
(160.12921 -0.60254944 0)
(160.25804 -0.65905221 0)
(160.39823 -0.71219489 0)
(160.54881 -0.76128744 0)
(160.70867 -0.80566828 0)
(160.87659 -0.844716 0)
(161.0512 -0.87785638 0)
(161.23106 -0.90457345 0)
(161.41462 -0.92441639 0)
(161.60025 -0.93700941 0)
(161.78626 -0.94205817 0)
(161.97094 -0.939358 0)
(162.15254 -0.9287994 0)
(162.3293 -0.91037393 0)
(162.49948 -0.88417837 0)
(162.66141 -0.85041776 0)
(162.81344 -0.80940754 0)
(162.95403 -0.76157322 0)
(163.08175 -0.70745004 0)
(163.19531 -0.64767864 0)
(163.29356 -0.58300183 0)
(163.37554 -0.51425618 0)
(163.44049 -0.44236399 0)
(163.48788 -0.36832337 0)
(163.51739 -0.29319346 0)
(163.52897 -0.21808217 0)
(163.52285 -0.14412681 0)
(163.49951 -0.0724795 0)
(163.45969 -0.0042836456 0)
(163.40442 0.059356339 0)
(163.33499 0.11737508 0)
(163.25294 0.16876884 0)
(163.16004 0.21264402 0)
(163.05827 0.2482051 0)
(162.94979 0.27481411 0)
(162.8369 0.2919782 0)
(162.72201 0.29937972 0)
(162.60757 0.29688655 0)
(162.49606 0.28456257 0)
(162.38993 0.26267401 0)
(162.29152 0.23169093 0)
(162.20304 0.19228533 0)
(162.1265 0.14532343 0)
(162.06369 0.09185395 0)
(162.0161 0.033094684 0)
(161.98489 -0.029599149 0)
(161.97086 -0.094737394 0)
(161.97445 -0.16073429 0)
(161.99563 -0.2259526 0)
(162.03401 -0.28872617 0)
(162.08874 -0.34738747 0)
(162.15854 -0.40030928 0)
(162.24175 -0.44594041 0)
(162.33631 -0.48284067 0)
(162.4398 -0.50971194 0)
(162.54951 -0.52542836 0)
(162.66244 -0.52906467 0)
(162.7754 -0.519919 0)
(162.88504 -0.497531 0)
(162.98792 -0.4616951 0)
(163.08059 -0.41247257 0)
(163.15965 -0.35018562 0)
(163.22181 -0.27540428 0)
(163.26398 -0.18894642 0)
(163.28331 -0.091877879 0)
(163.27724 0.014543567 0)
(163.24359 0.12888308 0)
(163.18056 0.24955802 0)
(163.08677 0.37487835 0)
(162.96132 0.50308431 0)
(162.80375 0.63238709 0)
(162.61406 0.76100996 0)
(162.39273 0.88722773 0)
(162.14065 1.0094025 0)
(161.85913 1.1260159 0)
(161.54983 1.2356972 0)
(161.21474 1.3372457 0)
(160.85613 1.4296476 0)
(160.47646 1.512086 0)
(160.07839 1.5839447 0)
(159.66466 1.644806 0)
(159.2381 1.694443 0)
(158.80151 1.7328075 0)
(158.3577 1.7600138 0)
(157.90937 1.7763199 0)
(157.45915 1.7821069 0)
(157.00952 1.7778579 0)
(156.56281 1.7641359 0)
(156.12118 1.7415633 0)
(155.68663 1.7108029 0)
(155.26098 1.6725395 0)
(154.84586 1.6274645 0)
(154.44273 1.5762628 0)
(154.05288 1.5196011 0)
(153.67744 1.4581198 0)
(153.31739 1.3924258 0)
(152.97356 1.3230884 0)
(152.64667 1.2506365 0)
(152.33732 1.175558 0)
(152.046 1.0983004 0)
(151.77311 1.0192739 0)
(151.51896 0.93885525 0)
(151.28381 0.85739368 0)
(151.06785 0.77521676 0)
(150.8712 0.69263941 0)
(150.69397 0.60998019 0)
(150.53626 0.52758679 0)
(150.3982 0.44583148 0)
(150.27975 0.36506684 0)
(150.18091 0.28565904 0)
(150.10117 0.21104529 0)
(150.04268 0.13725605 0)
(150.00971 0.068110344 0)
(159.60299 0.052733291 0)
(159.57271 -0.0033832322 0)
(159.56599 -0.063536114 0)
(159.57121 -0.12737835 0)
(159.59021 -0.19425684 0)
(159.62331 -0.26349278 0)
(159.67081 -0.33437744 0)
(159.73281 -0.4061606 0)
(159.80929 -0.47806468 0)
(159.90007 -0.54928688 0)
(160.00477 -0.61900972 0)
(160.12289 -0.68640794 0)
(160.25374 -0.75066098 0)
(160.3965 -0.81096049 0)
(160.55017 -0.86652361 0)
(160.71363 -0.91660074 0)
(160.88561 -0.96048869 0)
(161.06472 -0.99753857 0)
(161.24948 -1.0271682 0)
(161.43827 -1.0488697 0)
(161.62943 -1.0622209 0)
(161.82119 -1.0668922 0)
(162.01179 -1.0626562 0)
(162.19938 -1.0493936 0)
(162.38215 -1.0271003 0)
(162.55828 -0.99589197 0)
(162.726 -0.95600787 0)
(162.8836 -0.90781329 0)
(163.02945 -0.85179951 0)
(163.16203 -0.78858369 0)
(163.27998 -0.71890409 0)
(163.38207 -0.64361681 0)
(163.46728 -0.56368629 0)
(163.53478 -0.4801764 0)
(163.58397 -0.39423933 0)
(163.61451 -0.30709875 0)
(163.62632 -0.22003585 0)
(163.61959 -0.1343667 0)
(163.59478 -0.051428088 0)
(163.55268 0.027459536 0)
(163.4943 0.10101087 0)
(163.421 0.16798198 0)
(163.33436 0.22721118 0)
(163.23623 0.27765457 0)
(163.12867 0.31838819 0)
(163.01394 0.34865816 0)
(162.89446 0.36788956 0)
(162.77274 0.37570653 0)
(162.65141 0.37195192 0)
(162.53306 0.35669576 0)
(162.42029 0.33024527 0)
(162.31559 0.29314678 0)
(162.2213 0.24618328 0)
(162.1396 0.19036646 0)
(162.07238 0.12692279 0)
(162.02124 0.057276365 0)
(161.98747 -0.016980261 0)
(161.97193 -0.09410477 0)
(161.97512 -0.17223849 0)
(161.99707 -0.24945603 0)
(162.03737 -0.32380164 0)
(162.09517 -0.3933245 0)
(162.16916 -0.45611378 0)
(162.25762 -0.51034739 0)
(162.35839 -0.55433251 0)
(162.46895 -0.58654311 0)
(162.58645 -0.60565542 0)
(162.70775 -0.61058005 0)
(162.8295 -0.60049006 0)
(162.94815 -0.5748427 0)
(163.0601 -0.53339479 0)
(163.16171 -0.47621534 0)
(163.24939 -0.40368461 0)
(163.31967 -0.31647761 0)
(163.36931 -0.2155536 0)
(163.39527 -0.10216415 0)
(163.3949 0.02220639 0)
(163.36587 0.1558577 0)
(163.30631 0.29692385 0)
(163.21479 0.44341224 0)
(163.09036 0.59324913 0)
(162.93256 0.74432801 0)
(162.74143 0.89455768 0)
(162.5175 1.0419088 0)
(162.26173 1.1844569 0)
(161.97552 1.3204209 0)
(161.66067 1.4481963 0)
(161.3193 1.5663817 0)
(160.9538 1.6737983 0)
(160.56679 1.7695014 0)
(160.16107 1.8527841 0)
(159.73953 1.9231749 0)
(159.30511 1.9804275 0)
(158.86076 2.0245056 0)
(158.40938 2.0555638 0)
(157.95377 2.0739245 0)
(157.49663 2.0800534 0)
(157.04051 2.0745333 0)
(156.58777 2.0580388 0)
(156.14063 2.0313118 0)
(155.70109 1.9951381 0)
(155.27097 1.9503269 0)
(154.8519 1.8976925 0)
(154.44532 1.8380384 0)
(154.05251 1.7721448 0)
(153.67456 1.7007581 0)
(153.31243 1.6245835 0)
(152.96691 1.54428 0)
(152.63869 1.4604571 0)
(152.32832 1.3736742 0)
(152.03626 1.2844413 0)
(151.76289 1.1932216 0)
(151.50849 1.1004359 0)
(151.27329 1.0064685 0)
(151.05746 0.91167303 0)
(150.86112 0.81638243 0)
(150.68437 0.72092362 0)
(150.52733 0.62563491 0)
(150.3901 0.53085757 0)
(150.27268 0.43692127 0)
(150.17515 0.34419881 0)
(150.09715 0.25646089 0)
(150.04066 0.16845749 0)
(150.00921 0.084134992 0)
(159.61264 0.07417405 0)
(159.57733 0.0097848465 0)
(159.56734 -0.059125952 0)
(159.56967 -0.13216429 0)
(159.58627 -0.20859644 0)
(159.61751 -0.28765162 0)
(159.66369 -0.36851565 0)
(159.72496 -0.45032938 0)
(159.80132 -0.53220288 0)
(159.89259 -0.61321882 0)
(159.99842 -0.69244575 0)
(160.1183 -0.76894533 0)
(160.25155 -0.84178655 0)
(160.39732 -0.91005397 0)
(160.5546 -0.97286253 0)
(160.72224 -1.029366 0)
(160.89895 -1.0787718 0)
(161.08328 -1.120349 0)
(161.2737 -1.153443 0)
(161.46854 -1.1774831 0)
(161.66607 -1.1919954 0)
(161.86447 -1.1966104 0)
(162.06187 -1.1910739 0)
(162.25637 -1.1752533 0)
(162.44605 -1.1491461 0)
(162.62902 -1.1128847 0)
(162.8034 -1.0667411 0)
(162.9674 -1.0111302 0)
(163.11929 -0.94660962 0)
(163.25747 -0.87388008 0)
(163.38047 -0.79378053 0)
(163.48698 -0.70728467 0)
(163.57589 -0.61549071 0)
(163.64632 -0.51961154 0)
(163.69759 -0.42096253 0)
(163.72932 -0.32094257 0)
(163.74137 -0.22101847 0)
(163.73391 -0.12269899 0)
(163.7074 -0.027521013 0)
(163.66263 0.063002934 0)
(163.60064 0.14738681 0)
(163.52283 0.22419135 0)
(163.43084 0.29208307 0)
(163.32661 0.34983916 0)
(163.21229 0.39640775 0)
(163.09026 0.43090744 0)
(162.96308 0.45266894 0)
(162.83341 0.46125063 0)
(162.70402 0.45646362 0)
(162.57768 0.43838215 0)
(162.45715 0.40735387 0)
(162.3451 0.3640034 0)
(162.24404 0.30922912 0)
(162.15629 0.24419475 0)
(162.08391 0.17031349 0)
(162.02864 0.089226968 0)
(161.99187 0.0027776474 0)
(161.97456 -0.087025036 0)
(161.97728 -0.17803193 0)
(162.00011 -0.26801499 0)
(162.04265 -0.35471207 0)
(162.10403 -0.43585928 0)
(162.18292 -0.50924189 0)
(162.27749 -0.57274803 0)
(162.3855 -0.62441454 0)
(162.50431 -0.66247084 0)
(162.6309 -0.68538009 0)
(162.76197 -0.69187774 0)
(162.89395 -0.68100364 0)
(163.02312 -0.65212781 0)
(163.14565 -0.60496753 0)
(163.25768 -0.53959995 0)
(163.35541 -0.45647089 0)
(163.43516 -0.3563682 0)
(163.49349 -0.24040188 0)
(163.52718 -0.11002734 0)
(163.53343 0.033029568 0)
(163.50977 0.18680047 0)
(163.45424 0.34911773 0)
(163.36532 0.51766676 0)
(163.24204 0.69003955 0)
(163.08394 0.86379121 0)
(162.89109 1.036496 0)
(162.66407 1.2058018 0)
(162.40394 1.3694806 0)
(162.11224 1.5254739 0)
(161.79088 1.6719315 0)
(161.44214 1.8072424 0)
(161.06858 1.9300568 0)
(160.67301 2.0392993 0)
(160.25837 2.134173 0)
(159.82772 2.2141551 0)
(159.38417 2.2789849 0)
(158.93081 2.3286454 0)
(158.47064 2.3633398 0)
(158.0066 2.3834638 0)
(157.54147 2.3895768 0)
(157.07786 2.3823709 0)
(156.6182 2.3626412 0)
(156.16472 2.3312569 0)
(155.71946 2.2891344 0)
(155.28423 2.2372137 0)
(154.86066 2.1764369 0)
(154.45017 2.1077309 0)
(154.05401 2.0319927 0)
(153.67325 1.950078 0)
(153.30879 1.862793 0)
(152.9614 1.7708889 0)
(152.63171 1.6750589 0)
(152.32025 1.5759371 0)
(152.02744 1.4741 0)
(151.75359 1.3700693 0)
(151.49899 1.2643165 0)
(151.2638 1.1572686 0)
(151.04819 1.0493148 0)
(150.85226 0.94081561 0)
(150.67608 0.83211476 0)
(150.51977 0.72354972 0)
(150.38343 0.61544287 0)
(150.26703 0.50810346 0)
(150.17074 0.40187213 0)
(150.09423 0.30082996 0)
(150.03926 0.19857782 0)
(150.00887 0.099464443 0)
(159.62467 0.093692328 0)
(159.58411 0.020839451 0)
(159.57057 -0.056994052 0)
(159.56975 -0.13937752 0)
(159.58374 -0.22549606 0)
(159.61295 -0.3144868 0)
(159.65773 -0.40543984 0)
(159.71824 -0.49739242 0)
(159.79452 -0.58934603 0)
(159.8864 -0.68027293 0)
(159.99355 -0.76912905 0)
(160.11546 -0.85486342 0)
(160.25144 -0.93643392 0)
(160.40063 -1.0128163 0)
(160.562 -1.0830206 0)
(160.73438 -1.1461008 0)
(160.91641 -1.201171 0)
(161.10663 -1.2474144 0)
(161.30343 -1.2840992 0)
(161.50509 -1.3105877 0)
(161.7098 -1.3263497 0)
(161.91566 -1.3309718 0)
(162.12072 -1.3241689 0)
(162.32299 -1.3057918 0)
(162.52046 -1.2758364 0)
(162.71112 -1.2344494 0)
(162.89301 -1.1819341 0)
(163.06422 -1.1187537 0)
(163.22292 -1.0455318 0)
(163.36739 -0.96305354 0)