/*--------------------------------*- C++ -*----------------------------------*\
| =========                 |                                                 |
| \\      /  F ield         | foam-extend: Open Source CFD                    |
|  \\    /   O peration     | Version:     4.1                                |
|   \\  /    A nd           | Web:         http://www.foam-extend.org         |
|    \\/     M anipulation  |                                                 |
\*---------------------------------------------------------------------------*/
FoamFile
{
    version     2.0;
    format      ascii;
    class       surfaceScalarField;
    location    "0.8";
    object      phi;
}
// * * * * * * * * * * * * * * * * * * * * * * * * * * * * * * * * * * * * * //

dimensions      [0 3 -1 0 0 0 0];

internalField   nonuniform List<scalar> 
32976
(
-0.22685191
4.1401733e-05
-0.22691507
6.3164653e-05
-0.22697148
5.6410054e-05
-0.22701759
4.6104539e-05
-0.2270535
3.5916845e-05
-0.22708095
2.7451439e-05
-0.22710235
2.139944e-05
-0.22712051
1.8152377e-05
-0.22713846
1.7950296e-05
-0.2271594
2.0946465e-05
-0.22718664
2.7236987e-05
-0.22722351
3.6869557e-05
-0.22727336
4.9847034e-05
-0.22733949
6.6132239e-05
-0.22742513
8.5645609e-05
-0.2275334
0.00010826963
-0.22766725
0.00013384312
-0.22782941
0.00016216707
-0.22802245
0.0001930315
-0.22824864
0.00022619385
-0.22850998
0.00026134487
-0.22880815
0.00029816329
-0.22914444
0.0003362934
-0.22951981
0.00037536577
-0.22993479
0.00041498135
-0.23038953
0.00045473785
-0.23088374
0.00049420981
-0.23141672
0.00053298092
-0.23198734
0.00057061931
-0.23259405
0.00060671561
-0.2332349
0.00064085318
-0.23390755
0.00067264851
-0.23460929
0.000701734
-0.23533705
0.00072775975
-0.23608748
0.00075042876
-0.23685693
0.00076945772
-0.23764156
0.00078462923
-0.23843731
0.00079574626
-0.23923999
0.00080268596
-0.24004535
0.00080535052
-0.24084907
0.00080372136
-0.24164687
0.00079780825
-0.24243457
0.00078769551
-0.24320808
0.0007735085
-0.24396351
0.00075542788
-0.24469719
0.00073368216
-0.24540573
0.0007085442
-0.24608606
0.00068032805
-0.24673544
0.00064938034
-0.24735152
0.00061607673
-0.24793233
0.0005808132
-0.24847633
0.00054399847
-0.24898237
0.00050604527
-0.24944974
0.00046736283
-0.24987808
0.00042834576
-0.25026745
0.00038936757
-0.25061822
0.00035077154
-0.25093109
0.00031286267
-0.25120699
0.00027590317
-0.2514471
0.00024010909
-0.25165274
0.00020564114
-0.25182534
0.00017260223
-0.25196638
0.00014103519
-0.2520773
0.00011091911
-0.25215948
8.2188749e-05
-0.25221422
5.4735865e-05
-0.25224263
2.841309e-05
-0.25224558
2.9514924e-06
-0.25222318
-2.2403016e-05
-0.2521752
-4.7983955e-05
-0.25210183
-7.3366148e-05
-0.2520035
-9.8329325e-05
-0.25188063
-0.00012286965
-0.2517336
-0.00014703276
-0.25156274
-0.0001708611
-0.25136837
-0.00019436993
-0.25115083
-0.00021753574
-0.25091054
-0.00024029154
-0.25064801
-0.0002625274
-0.25036392
-0.00028409279
-0.25005912
-0.00030480384
-0.24973467
-0.0003244503
-0.24939186
-0.00034280508
-0.24903223
-0.00035963428
-0.24865752
-0.00037470712
-0.24826971
-0.00038780595
-0.24787098
-0.00039873503
-0.24746365
-0.0004073282
-0.2470502
-0.00041345509
-0.24663317
-0.00041702525
-0.24621518
-0.00041799137
-0.24579883
-0.00041634826
-0.2453867
-0.0004121334
-0.24498127
-0.00040542329
-0.24458494
-0.00039632969
-0.24419995
-0.0003849945
-0.24382837
-0.00037158395
-0.24347208
-0.00035628313
-0.24313279
-0.00033928827
-0.24281199
-0.0003208023
-0.24251096
-0.00030102825
-0.2422308
-0.0002801644
-0.2419724
-0.00025839974
-0.24173649
-0.00023591079
-0.24152363
-0.00021285774
-0.24133425
-0.00018938367
-0.24116863
-0.0001656128
-0.24102698
-0.00014165008
-0.2409094
-0.00011758238
-0.24081592
-9.3479419e-05
-0.24074653
-6.939406e-05
-0.24070116
-4.536614e-05
-0.24067972
-2.1438692e-05
-0.24068202
2.2985574e-06
-0.24070783
2.5812452e-05
-0.24075697
4.9136492e-05
-0.24082922
7.224746e-05
-0.24092429
9.5068157e-05
-0.24104161
0.00011732502
-0.24117976
0.00013814914
-0.241336
0.00015624088
-0.24151117
0.00017516969
-0.24171122
0.00020005282
0.00022422566
-0.25815063
-5.6303945e-05
-0.25803025
-5.720732e-05
-0.25789783
-7.6012704e-05
-0.25775385
-9.7875172e-05
-0.25759927
-0.00011866754
-0.25743563
-0.00013618446
-0.25726504
-0.00014919666
-0.2570899
-0.00015698731
-0.25691288
-0.00015906764
-0.25673683
-0.00015509812
-0.25656474
-0.00014485435
-0.25639967
-0.00012820617
-0.25624472
-0.00010510142
-0.25610301
-7.5574678e-05
-0.25597763
-3.9734187e-05
-0.25587159
2.231253e-06
-0.25578781
5.0059289e-05
-0.25572904
0.00010340023
-0.25569775
0.00016173546
-0.25569607
0.00022451744
-0.25572595
0.00029122234
-0.25578903
0.00036125008
-0.25588668
0.00043394073
-0.25601991
0.0005085927
-0.25618938
0.0005844486
-0.25639537
0.00066073317
-0.25663779
0.00073662855
-0.25691613
0.00081132312
-0.25722949
0.0008839781
-0.25757656
0.00095378694
-0.25795564
0.0010199325
-0.25836464
0.001081652
-0.25880112
0.001138212
-0.25926228
0.001188914
-0.259745
0.0012331527
-0.2602459
0.0012703544
-0.26076133
0.0013000645
-0.26128746
0.0013218743
-0.26182029
0.0013355115
-0.2623557
0.00134076
-0.26288953
0.0013375516
-0.2634176
0.001325882
-0.26393579
0.0013058887
-0.26444008
0.0012777951
-0.26492659
0.0012419353
-0.26539164
0.0011987403
-0.26583183
0.0011487328
-0.26624403
0.0010925197
-0.26662542
0.0010307774
-0.26697359
0.00096424348
-0.26728648
0.00089370045
-0.26756244
0.00081996053
-0.26780024
0.0007438486
-0.26799907
0.00066618643
-0.26815849
0.0005877716
-0.26827849
0.00050936329
-0.26835938
0.0004316642
-0.26840182
0.00035530337
-0.26840675
0.00028082838
-0.26837533
0.00020869783
-0.26830896
0.00013926852
-0.26820913
7.2773008e-05
-0.26807742
9.319271e-06
-0.2679154
-5.1093449e-05
-0.26772463
-0.00010858009
-0.26750654
-0.00016335403
-0.26726245
-0.00021568635
-0.26699357
-0.00026592189
-0.26670166
-0.00031431856
-0.26638844
-0.00036119682
-0.2660548
-0.00040700602
-0.26570106
-0.00045207743
-0.26532727
-0.0004966586
-0.26493336
-0.00054093592
-0.2645192
-0.00058502496
-0.26408461
-0.00062895801
-0.26362947
-0.00067267719
-0.26315373
-0.00071603233
-0.26265747
-0.00075878599
-0.26214094
-0.00080061852
-0.2616046
-0.00084114452
-0.26104913
-0.00087992617
-0.26047544
-0.00091649222
-0.25988472
-0.00095035792
-0.25927838
-0.00098104439
-0.25865809
-0.0010080983
-0.25802571
-0.0010311091
-0.25738332
-0.0010497242
-0.25673311
-0.0010636608
-0.25607742
-0.0010727144
-0.25541865
-0.0010767657
-0.25475922
-0.0010757776
-0.25410155
-0.0010697974
-0.25344803
-0.0010589496
-0.25280093
-0.0010434289
-0.25216243
-0.0010234903
-0.25153458
-0.00099943776
-0.25091925
-0.00097161479
-0.25031815
-0.00094038798
-0.24973281
-0.00090613967
-0.24916458
-0.00086925483
-0.24861464
-0.00083011157
-0.24808396
-0.00078907218
-0.2475734
-0.00074647752
-0.24708362
-0.00070263818
-0.24661517
-0.00065783375
-0.24616847
-0.00061230867
-0.24574385
-0.00056627163
-0.24534154
-0.00051989593
-0.24496169
-0.00047332211
-0.24460443
-0.00042665849
-0.2442698
-0.00037999051
-0.24395786
-0.00033338766
-0.24366867
-0.00028689058
-0.2434023
-0.00024055591
-0.24315869
-0.00019447268
-0.24293771
-0.00014873233
-0.24273916
-0.00010348488
-0.24256262
-5.9214874e-05
-0.24240734
-1.7131523e-05
-0.24227283
2.1730598e-05
-0.24216161
6.3950177e-05
-0.24206356
0.00010200639
9.6116579e-05
-0.26048532
-0.0002215242
-0.2602942
-0.00024832073
-0.26009287
-0.00027734252
-0.25988626
-0.0003044912
-0.2596774
-0.00032752465
-0.25946883
-0.00034475097
-0.25926298
-0.00035505198
-0.25906229
-0.00035767511
-0.25886925
-0.00035210271
-0.25868635
-0.00033800436
-0.25851603
-0.00031517364
-0.2583607
-0.00028353606
-0.25822268
-0.00024311781
-0.2581042
-0.00019406115
-0.25800733
-0.00013660241
-0.25793401
-7.1089522e-05
-0.25788598
2.028875e-06
-0.25786479
8.2213678e-05
-0.25787192
0.00016886921
-0.2579087
0.00026128991
-0.25797614
0.00035866247
-0.258075
0.00046011808
-0.25820577
0.00056470966
-0.25836862
0.00067144317
-0.25856343
0.0007792577
-0.25878977
0.00088707335
-0.2590469
0.00099375909
-0.25933378
0.0010981966
-0.25964903
0.0011992355
-0.25999102
0.0012957723
-0.26035778
0.0013866925
-0.26074709
0.0014709586
-0.26115645
0.0015475748
-0.26158313
0.001615596
-0.26202418
0.0016742056
-0.26247646
0.0017226328
-0.26293667
0.0017602714
-0.26340138
0.0017865805
-0.26386707
0.001801208
-0.26433019
0.0018038823
-0.26478718
0.0017945365
-0.26523449
0.0017731955
-0.26566869
0.0017400816
-0.26608643
0.001695539
-0.26648456
0.0016400673
-0.26686012
0.0015743032
-0.2672104
0.001499012
-0.26753296
0.0014150782
-0.26782567
0.001323484
-0.26808672
0.001225297
-0.26831467
0.0011216475
-0.26850841
0.0010137059
-0.26866722
0.00090265811
-0.26879072
0.00078968274
-0.26887887
0.00067592072
-0.26893196
0.000562454
-0.26895058
0.00045028003
-0.26893556
0.00034028411
-0.26888796
0.00023323604
-0.26880905
0.0001297827
-0.26870018
3.0402078e-05
-0.26856279
-6.462004e-05
-0.2683983
-0.00015516589
-0.26820813
-0.00024126663
-0.2679936
-0.00032310662
-0.26775596
-0.00040100175
-0.26749625
-0.00047539054
-0.26721539
-0.00054678085
-0.26691402
-0.00061568801
-0.26659255
-0.00068266739
-0.26625126
-0.00074829781
-0.26589026
-0.00081307706
-0.26550952
-0.00087740392
-0.26510888
-0.00094157231
-0.26468815
-0.0010057594
-0.26424709
-0.0010700099
-0.26378554
-0.0011342285
-0.2633034
-0.0011981777
-0.2628007
-0.0012614875
-0.26227765
-0.0013236622
-0.26173469
-0.0013841069
-0.26117247
-0.0014421471
-0.2605919
-0.001497058
-0.25999417
-0.0015480945
-0.25938069
-0.0015945203
-0.25875315
-0.001635638
-0.25811344
-0.0016708148
-0.25746366
-0.0016995056
-0.25680605
-0.0017212708
-0.25614298
-0.0017357889
-0.25547688
-0.0017428674
-0.25481022
-0.0017424372
-0.25414546
-0.0017345573
-0.253485
-0.0017194031
-0.25283118
-0.0016972556
-0.25218618
-0.0016684874
-0.25155207
-0.0016335452
-0.25093075
-0.0015929359
-0.25032394
-0.0015472013
-0.24973317
-0.0014969081
-0.2491598
-0.0014426276
-0.24860499
-0.0013849218
-0.24806973
-0.0013243296
-0.24755485
-0.0012613592
-0.24706101
-0.0011964736
-0.24658876
-0.0011300903
-0.24613849
-0.0010625751
-0.24571052
-0.00099424026
-0.24530507
-0.00092534531
-0.24492229
-0.00085610153
-0.24456228
-0.00078667222
-0.24422508
-0.00071718412
-0.24391074
-0.00064773325
-0.24361924
-0.0005783941
-0.24335054
-0.00050924657
-0.24310463
-0.0004403878
-0.24288143
-0.00037193306
-0.24268081
-0.00030410582
-0.24250251
-0.00023750946
-0.24234643
-0.00017321839
-0.24221309
-0.00011160678
-0.24210388
-4.5258723e-05
-0.2420095
7.6215543e-06
2.2221382e-05
-0.26062577
-0.00040716482
-0.26042382
-0.00045027108
-0.2602132
-0.00048796058
-0.25999813
-0.00051956771
-0.2597817
-0.00054394863
-0.25956656
-0.00055989705
-0.25935518
-0.00056643215
-0.25915002
-0.0005628369
-0.25895353
-0.00054858908
-0.25876817
-0.00052336342
-0.25859637
-0.00048697224
-0.25844052
-0.00043939036
-0.25830292
-0.0003807138
-0.2581858
-0.00031118717
-0.25809123
-0.00023117213
-0.25802115
-0.00014116807
-0.25797732
-4.1798442e-05
-0.25796131
6.6201681e-05
-0.25797445
0.0001820082
-0.25801784
0.0003046793
-0.25809234
0.00043316698
-0.25819855
0.00056633079
-0.25833678
0.00070293827
-0.25850704
0.00084170454
-0.25870905
0.00098126662
-0.25894222
0.0011202457
-0.25920567
0.0012572053
-0.25949821
0.0013907322
-0.25981835
0.001519379
-0.26016434
0.0016417637
-0.26053414
0.0017564954
-0.26092547
0.0018622847
-0.26133579
0.0019578986
-0.26176237
0.0020421702
-0.26220226
0.002114097
-0.26265236
0.0021727354
-0.26310944
0.0022173494
-0.26357015
0.0022472855
-0.26403107
0.002262128
-0.26448874
0.0022615621
-0.26493974
0.0022455305
-0.26538063
0.0022140914
-0.2658081
0.0021675518
-0.26621894
0.0021063727
-0.26661008
0.0020312117
-0.26697868
0.0019429006
-0.2673221
0.0018424352
-0.26763799
0.0017309632
-0.26792426
0.0016097577
-0.26817917
0.0014802023
-0.26840128
0.0013437607
-0.26858952
0.0012019494
-0.26874317
0.0010563054
-0.26886184
0.00090835583
-0.2689455
0.00075957961
-0.26899443
0.0006113784
-0.26900919
0.00046504404
-0.26899062
0.00032171538
-0.26893979
0.00018240548
-0.26885795
4.7944185e-05
-0.26874646
-8.1091375e-05
-0.26860673
-0.0002043494
-0.2684402
-0.00032169311
-0.26824828
-0.00043319514
-0.26803226
-0.0005391267
-0.26779332
-0.00063993341
-0.26753251
-0.00073620446
-0.26725067
-0.0008286188
-0.26694845
-0.00091790663
-0.26662629
-0.0010048324
-0.26628444
-0.0010901505
-0.26592298
-0.0011745353
-0.26554184
-0.0012585435
-0.26514082
-0.0013425856
-0.26471968
-0.0014269075
-0.26427812
-0.0015115708
-0.2638159
-0.0015964431
-0.26333288
-0.0016811971
-0.26282904
-0.0017653239
-0.26230456
-0.0018481431
-0.26175983
-0.0019288394
-0.26119549
-0.0020064895
-0.26061245
-0.0020801014
-0.26001188
-0.0021486563
-0.25939526
-0.0022111476
-0.25876427
-0.002266622
-0.25812087
-0.0023142145
-0.2574672
-0.0023531791
-0.25680556
-0.0023829139
-0.25613837
-0.0024029768
-0.25546813
-0.002413101
-0.25479738
-0.0024131872
-0.25412863
-0.0024033089
-0.25346434
-0.0023836973
-0.25280687
-0.0023547266
-0.25215846
-0.0023168938
-0.25152121
-0.0022707964
-0.25089703
-0.0022171123
-0.25028767
-0.0021565666
-0.24969466
-0.0020899178
-0.24911936
-0.0020179303
-0.24856292
-0.0019413558
-0.24802634
-0.0018609151
-0.24751041
-0.0017772875
-0.24701579
-0.0016910917
-0.24654299
-0.0016028856
-0.24609241
-0.001513157
-0.24566433
-0.0014223225
-0.24525895
-0.0013307275
-0.2448764
-0.001238652
-0.24451676
-0.0011463116
-0.24418007
-0.0010538709
-0.24386635
-0.0009614517
-0.2435756
-0.00086914933
-0.24330779
-0.00077705473
-0.24306291
-0.00068526841
-0.24284092
-0.00059392262
-0.24264173
-0.00050329378
-0.24246525
-0.00041399323
-0.24231165
-0.00032681218
-0.24218135
-0.00024190619
-0.24207517
-0.00015144318
-0.24198908
-7.8469597e-05
-3.1407274e-05
-0.26067618
-0.00060043873
-0.26047042
-0.00065602922
-0.26025637
-0.00070201233
-0.26003751
-0.00073843013
-0.25981683
-0.00076462534
-0.25959704
-0.00077968861
-0.25938072
-0.00078275603
-0.2591704
-0.00077315311
-0.25896863
-0.00075036326
-0.25877792
-0.00071407405
-0.25860077
-0.00066411937
-0.25843964
-0.00060052374
-0.2582969
-0.00052345228
-0.25817483
-0.00043325098
-0.2580756
-0.00033040529
-0.2580012
-0.00021556936
-0.25795346
-8.9541185e-05
-0.25793399
4.6736689e-05
-0.25794419
0.00019221175
-0.25798521
0.0003456963
-0.25805793
0.00050588007
-0.25816295
0.00067135287
-0.2583006
0.00084058815
-0.2584709
0.0010120041
-0.25867356
0.0011839294
-0.25890799
0.0013546791
-0.25917329
0.0015225049
-0.25946825
0.0016856925
-0.25979137
0.0018424918
-0.26014084
0.0019912375
-0.2605146
0.0021302582
-0.26091033
0.0022580092
-0.26132545
0.0023730173
-0.26175717
0.0024738914
-0.26220251
0.002559441
-0.26265832
0.0026285472
-0.26312132
0.0026803424
-0.26358809
0.0027140588
-0.26405518
0.0027292145
-0.26451906
0.0027254495
-0.26497625
0.0027027137
-0.26542325
0.0026610968
-0.26585669
0.0026009884
-0.26627328
0.0025229656
-0.26666991
0.0024278435
-0.26704366
0.0023166503
-0.26739184
0.0021906143
-0.26771203
0.0020511506
-0.2680021
0.0018998294
-0.26826026
0.0017383575
-0.26848504
0.0015685424
-0.26867535
0.001392258
-0.26883045
0.0012114051
-0.26894996
0.001027874
-0.26903388
0.00084349609
-0.26908251
0.00066000816
-0.26909648
0.0004790097
-0.26907667
0.00030190969
-0.26902425
0.00012998605
-0.26894054
-3.5764752e-05
-0.26882697
-0.00019466165
-0.26868504
-0.0003462761
-0.26851629
-0.00049044266
-0.2683222
-0.0006272905
-0.26810415
-0.00075717867
-0.26786339
-0.00088068921
-0.26760101
-0.00099858351
-0.26731789
-0.0011117444
-0.26701466
-0.0012211307
-0.26669176
-0.001327731
-0.26634941
-0.0014325062
-0.26598762
-0.0015363228
-0.26560626
-0.0016399043
-0.26520506
-0.0017437862
-0.26478368
-0.0018482896
-0.26434175
-0.001953496
-0.26387896
-0.0020592354
-0.26339507
-0.0021650859
-0.26289
-0.0022703911
-0.26236387
-0.0023742739
-0.26181703
-0.0024756837
-0.26125009
-0.002573431
-0.26066395
-0.0026662391
-0.26005981
-0.0027527969
-0.25943915
-0.0028318101
-0.25880371
-0.0029020534
-0.25815551
-0.0029624157
-0.25749675
-0.0030119394
-0.25682982
-0.0030498519
-0.25615721
-0.0030755865
-0.25548151
-0.0030888005
-0.25480533
-0.0030893658
-0.25413126
-0.0030773754
-0.25346184
-0.0030531229
-0.25279948
-0.0030170837
-0.25214648
-0.0029698897
-0.25150498
-0.002912299
-0.25087692
-0.0028451717
-0.25026406
-0.0027694269
-0.24966795
-0.0026860243
-0.24908995
-0.0025959309
-0.24853121
-0.002500096
-0.2479927
-0.0023994293
-0.2474752
-0.0022947868
-0.24697934
-0.0021869472
-0.24650562
-0.0020766115
-0.24605438
-0.0019643917
-0.2456259
-0.001850809
-0.24522033
-0.0017362939
-0.24483779
-0.0016211939
-0.24447833
-0.0015057733
-0.24414197
-0.0013902304
-0.24382871
-0.0012747069
-0.24353855
-0.0011593075
-0.24327149
-0.0010441189
-0.24302753
-0.0009292298
-0.24280668
-0.00081476687
-0.24260898
-0.00070100192
-0.24243452
-0.00058844467
-0.24228372
-0.0004776181
-0.24215686
-0.00036876256
-0.24205542
-0.00025288409
-0.24197857
-0.00015531573
-7.4532008e-05
-0.26073901
-0.00080056817
-0.26052848
-0.00086655679
-0.26031005
-0.0009204401
-0.26008659
-0.00096189816
-0.2598609
-0.00099031418
-0.25963569
-0.0010048926
-0.25941362
-0.0010048287
-0.2591973
-0.00098947611
-0.25898934
-0.00095832335
-0.25879234
-0.00091107316
-0.25860887
-0.00084758254
-0.25844147
-0.00076792704
-0.25829258
-0.00067234147
-0.25816456
-0.00056127423
-0.25805963
-0.00043533533
-0.25797986
-0.00029533584
-0.25792716
-0.00014224819
-0.25790319
2.2772357e-05
-0.25790942
0.00019844055
-0.25794705
0.00038332276
-0.258017
0.0005758375
-0.25811995
0.00077429616
-0.25825623
0.00097687376
-0.25842591
0.0011816842
-0.25862872
0.0013867404
-0.25886409
0.0015900435
-0.25913111
0.001789525
-0.25942858
0.0019831606
-0.25975497
0.0021688892
-0.26010849
0.0023447532
-0.26048702
0.0025087915
-0.26088821
0.0026591954
-0.26130943
0.0027942425
-0.26174785
0.0029123091
-0.26220042
0.0030120083
-0.26266391
0.003092038
-0.26313496
0.0031513922
-0.26361008
0.0031891814
-0.26408572
0.0032048521
-0.26455826
0.0031979943
-0.26502411
0.0031685617
-0.26547969
0.0031166727
-0.2659215
0.0030427996
-0.26634617
0.0029476361
-0.26675049
0.0028321582
-0.26713143
0.0026975953
-0.26748623
0.0025454155
-0.26781239
0.0023773111
-0.26810772
0.0021951604
-0.26837037
0.0020010075
-0.26859885
0.001797019
-0.26879203
0.0015854431
-0.26894919
0.0013685628
-0.26906997
0.00114865
-0.26915438
0.0009279075
-0.2692028
0.00070842613
-0.26921591
0.00049212658
-0.26919472
0.00028071712
-0.26914048
7.5739e-05
-0.26905459
-0.00012164763
-0.26893862
-0.00031063635
-0.26879417
-0.00049072663
-0.26862287
-0.00066173888
-0.26842631
-0.00082385218
-0.26820596
-0.00097753062
-0.26796314
-0.0011235067
-0.26769899
-0.0012627341
-0.26741441
-0.0013963204
-0.26711007
-0.0015254705
-0.26678638
-0.0016514205
-0.26644352
-0.0017753665
-0.26608146
-0.0018983902
-0.26569996
-0.0020213998
-0.26529868
-0.0021450693
-0.26487716
-0.002269805
-0.26443495
-0.0023957129
-0.2639716
-0.002522585
-0.26348678
-0.0026498986
-0.26298033
-0.0027768389
-0.26245229
-0.0029023162
-0.26190295
-0.0030250254
-0.26133289
-0.003143489
-0.26074301
-0.0032561221
-0.26013451
-0.0033612977
-0.25950891
-0.0034574114
-0.25886802
-0.0035429452
-0.25821391
-0.0036165245
-0.25754888
-0.0036769658
-0.25687542
-0.0037233162
-0.25619612
-0.0037548781
-0.25551369
-0.003771232
-0.25483084
-0.0037722231
-0.25415024
-0.0037579697
-0.25347453
-0.0037288367
-0.2528062
-0.003685412
-0.25214761
-0.0036284745
-0.25150096
-0.0035589569
-0.25086821
-0.0034779151
-0.25025116
-0.0033864752
-0.24965138
-0.0032858116
-0.2490702
-0.0031771049
-0.24850879
-0.0030615127
-0.24796807
-0.002940142
-0.24744883
-0.0028140327
-0.24695165
-0.002684129
-0.24647698
-0.0025512791
-0.24602515
-0.0024162213
-0.24559638
-0.0022795826
-0.24519079
-0.0021418785
-0.24480846
-0.0020035223
-0.24444941
-0.0018648244
-0.24411363
-0.0017260131
-0.24380109
-0.0015872453
-0.24351177
-0.0014486265
-0.24324566
-0.0013102305
-0.24300277
-0.0011721238
-0.24278313
-0.0010344074
-0.24258683
-0.00089730013
-0.24241411
-0.00076116022
-0.24226542
-0.00062630693
-0.24214111
-0.00049307535
-0.24204352
-0.00035047589
-0.24197304
-0.00022579794
-0.00011211821
-0.26082668
-0.0010063133
-0.26061063
-0.0010826021
-0.26038659
-0.0011444793
-0.2601572
-0.0011912921
-0.25992516
-0.0012223494
-0.25969319
-0.0012368653
-0.25946398
-0.0012340406
-0.25924022
-0.0012132345
-0.25902461
-0.0011739312
-0.25881984
-0.0011158451
-0.25862857
-0.0010388544
-0.25845341
-0.00094308476
-0.25829691
-0.00082884003
-0.25816152
-0.00069667138
-0.25804954
-0.00054731424
-0.25796314
-0.00038173867
-0.25790429
-0.00020109567
-0.25787476
-6.7567057e-06
-0.25787607
0.00019975561
-0.25790951
0.00041675619
-0.25797606
0.0006423858
-0.25807643
0.00087466691
-0.25821102
0.0011114694
-0.25837993
0.0013505932
-0.25858292
0.0015897267
-0.25881942
0.0018265466
-0.25908855
0.0020586542
-0.25938909
0.002283705
-0.25971952
0.0024993157
-0.26007799
0.0027032256
-0.26046237
0.002893173
-0.26087025
0.0030670742
-0.26129896
0.0032229472
-0.26174557
0.0033589248
-0.26220698
0.0034734139
-0.26267986
0.0035649197
-0.26316076
0.0036322886
-0.26364608
0.0036745015
-0.26413215
0.0036909268
-0.26461526
0.0036810981
-0.26509166
0.0036449691
-0.26555767
0.0035826844
-0.26600967
0.003494798
-0.26644416
0.0033821219
-0.2668578
0.003245797
-0.26724746
0.0030872598
-0.26761027
0.0029082275
-0.26794364
0.0027106803
-0.2682453
0.0024968195
-0.26851334
0.0022690425
-0.26874621
0.0020298938
-0.26894279
0.0017820167
-0.26910232
0.0015280983
-0.26922449
0.0012708153
-0.26930934
0.001012765
-0.26935733
0.00075641561
-0.26936923
0.00050402598
-0.26934616
0.00025764015
-0.26928948
1.9059111e-05
-0.26920073
-0.00021038839
-0.26908163
-0.0004297447
-0.26893391
-0.00063844303
-0.26875934
-0.00083630521
-0.26855964
-0.0010235546
-0.26833639
-0.0012007799
-0.26809101
-0.0013688875
-0.2678247
-0.0015290489
-0.26753839
-0.001682625
-0.26723277
-0.0018310945
-0.26690822
-0.0019759707
-0.26656487
-0.0021187156
-0.2662026
-0.0022606537
-0.26582111
-0.0024028995
-0.26541989
-0.0025462832
-0.26499839
-0.0026913079
-0.26455599
-0.0028381099
-0.26409213
-0.0029864419
-0.26360636
-0.0031356728
-0.26309838
-0.003284815
-0.26256815
-0.003432547
-0.26201589
-0.0035772844
-0.26144215
-0.0037172349
-0.26084779
-0.0038504759
-0.26023406
-0.0039750357
-0.2596025
-0.0040889711
-0.25895499
-0.0041904465
-0.25829372
-0.0042778013
-0.25762107
-0.0043496093
-0.25693967
-0.0044047248
-0.25625223
-0.0044423127
-0.25556159
-0.0044618744
-0.25487058
-0.0044632323
-0.25418201
-0.0044465369
-0.25349861
-0.0044122356
-0.25282298
-0.0043610424
-0.25215756
-0.0042938991
-0.25150459
-0.0042119293
-0.2508661
-0.0041164016
-0.25024391
-0.0040086659
-0.24963959
-0.0038901263
-0.24905451
-0.0037621913
-0.24848978
-0.003626239
-0.24794634
-0.003483584
-0.24742491
-0.0033354588
-0.24692606
-0.0031829793
-0.2464502
-0.0030271453
-0.24599759
-0.0028688242
-0.24556843
-0.0027087497
-0.24516278
-0.0025475214
-0.24478069
-0.0023856161
-0.24442213
-0.0022233869
-0.24408705
-0.002061087
-0.24377542
-0.0018988814
-0.24348718
-0.0017368683
-0.24322231
-0.001575099
-0.24298082
-0.0014136079
-0.24276278
-0.0012524517
-0.24256831
-0.0010917671
-0.24239771
-0.00093176116
-0.24225141
-0.0007726101
-0.24212983
-0.0006146521
-0.24203586
-0.00044445113
-0.24196992
-0.00029173708
-0.00014643487
-0.26093156
-0.0012186416
-0.26070898
-0.0013051779
-0.26047823
-0.0013752264
-0.26024179
-0.0014277345
-0.2600023
-0.0014618426
-0.25976246
-0.001476702
-0.25952503
-0.0014714756
-0.25929276
-0.0014455032
-0.25906844
-0.0013982519
-0.25885484
-0.0013294407
-0.25865473
-0.0012389644
-0.25847082
-0.0011269964
-0.25830575
-0.00099390817
-0.25816207
-0.00084035363
-0.25804219
-0.0006671944
-0.25794837
-0.00047556164
-0.25788267
-0.00026678945
-0.25784696
-4.2469143e-05
-0.25784284
0.00019563354
-0.25787166
0.0004455752
-0.25793448
0.00070521186
-0.25803208
0.00097226826
-0.25816491
0.0012443
-0.2583331
0.001518783
-0.25853645
0.0017930708
-0.25877441
0.0020645043
-0.2590461
0.0023303432
-0.2593503
0.0025879105
-0.25968547
0.0028344889
-0.26004975
0.0030675022
-0.26044095
0.0032843754
-0.26085662
0.0034827376
-0.261294
0.0036603347
-0.26175012
0.0038150438
-0.26222176
0.0039450544
-0.26270551
0.0040486674
-0.26319779
0.0041245717
-0.2636949
0.0041716091
-0.26419304
0.0041890617
-0.26468834
0.0041764
-0.26517694
0.0041335726
-0.26565501
0.0040607471
-0.26611877
0.0039585585
-0.26656458
0.0038279385
-0.26698898
0.0036701967
-0.26738871
0.0034869842
-0.26776076
0.0032802768
-0.26810243
0.0030523563
-0.26841137
0.0028057625
-0.2686856
0.0025432656
-0.26892351
0.0022678095
-0.26912395
0.0019824567
-0.26928618
0.0016903245
-0.26940989
0.0013945212
-0.26949519
0.0010980658
-0.2695426
0.00080383042
-0.26955301
0.00051443716
-0.26952767
0.00023229708
-0.26946808
-4.0526961e-05
-0.26937595
-0.00030252066
-0.26925312
-0.00055257201
-0.26910154
-0.00079003113
-0.26892311
-0.0010147268
-0.26871972
-0.0012269503
-0.26849307
-0.0014274273
-0.2682447
-0.0016172607
-0.26797588
-0.0017978699
-0.2676876
-0.0019709017
-0.26738055
-0.0021381436
-0.2670551
-0.002301423
-0.26671131
-0.0024625047
-0.26634897
-0.0026229889
-0.26596765
-0.0027842248
-0.26556671
-0.0029472203
-0.26514543
-0.0031125905
-0.26470303
-0.0032805086
-0.26423879
-0.003450687
-0.26375208
-0.0036223766
-0.2632425
-0.0037943997
-0.26270987
-0.0039651786
-0.26215433
-0.0041328207
-0.26157638
-0.0042951849
-0.26097688
-0.0044499756
-0.26035707
-0.0045948405
-0.25971858
-0.0047274637
-0.25906337
-0.0048456608
-0.25839371
-0.0049474592
-0.25771215
-0.005031169
-0.25702144
-0.0050954373
-0.25632447
-0.0051392835
-0.25562421
-0.0051621285
-0.25492367
-0.0051637758
-0.25422579
-0.0051444178
-0.25353343
-0.0051045982
-0.25284929
-0.0050451741
-0.25217592
-0.0049672691
-0.25151563
-0.0048722182
-0.25087051
-0.0047615232
-0.2502424
-0.0046367774
-0.24963289
-0.0044996334
-0.24904334
-0.0043517444
-0.24847486
-0.0041947237
-0.24792833
-0.0040301058
-0.24740447
-0.0038593257
-0.24690377
-0.0036836785
-0.24642659
-0.0035043209
-0.24597316
-0.0033222527
-0.2455436
-0.0031383149
-0.24513793
-0.0029531908
-0.24475613
-0.0027674186
-0.24439812
-0.0025813896
-0.24406383
-0.0023953767
-0.24375317
-0.0022095458
-0.24346606
-0.0020239784
-0.24320247
-0.0018386938
-0.24296239
-0.0016536811
-0.24274591
-0.0014689334
-0.24255319
-0.0012844864
-0.24238455
-0.0011004046
-0.24224042
-0.0009167427
-0.24212132
-0.000733746
-0.24203038
-0.00053538905
-0.24196768
-0.00035443728
-0.00017866843
-0.26105748
-0.0014378176
-0.26082752
-0.0015351395
-0.26058894
-0.001613803
-0.26034421
-0.0016724629
-0.26009597
-0.00171009
-0.25984693
-0.0017257378
-0.25959991
-0.0017184984
-0.25935774
-0.0016876704
-0.2591233
-0.0016326886
-0.25889948
-0.0015532674
-0.25868913
-0.0014493118
-0.25849509
-0.0013210388
-0.25832011
-0.0011688854
-0.25816686
-0.00099360743
-0.25803786
-0.00079619361
-0.25793548
-0.00057793861
-0.2578619
-0.00034036409
-0.25781909
-8.5285497e-05
-0.25780874
0.00018528053
-0.25783228
0.00046912407
-0.25789088
0.00076380781
-0.25798536
0.0010667466
-0.25811623
0.0013751728
-0.25828367
0.0016862257
-0.25848751
0.0019969116
-0.25872723
0.0023042225
-0.25900195
0.0026050632
-0.25931045
0.0028964111
-0.25965117
0.0031752006
-0.26002219
0.0034385263
-0.2604213
0.0036834861
-0.26084597
0.003907408
-0.26129339
0.0041077518
-0.26176047
0.004282126
-0.2622439
0.0044284894
-0.26274016
0.0045449262
-0.26324555
0.0046299565
-0.26375621
0.0046822721
-0.26426821
0.0047010598
-0.26477753
0.0046857188
-0.26528014
0.0046361869
-0.26577205
0.0045526506
-0.26624931
0.0044358245
-0.26670813
0.004286761
-0.26714488
0.0041069432
-0.26755614
0.0038982439
-0.26793877
0.0036629089
-0.26828995
0.0034035361
-0.26860721
0.0031230221
-0.26888848
0.0028245318
-0.2691321
0.0025114337
-0.26933688
0.0021872373
-0.26950208
0.0018555203
-0.26962741
0.0015198544
-0.26971306
0.0011837128
-0.26975963
0.00085040278
-0.26976814
0.00052294293
-0.26973998
0.00020413791
-0.26967683
-0.00010367486
-0.26958058
-0.00039876714
-0.26945329
-0.00067986805
-0.26929707
-0.00094624662
-0.26911406
-0.001197739
-0.26890629
-0.0014347188
-0.26867565
-0.0016580701
-0.26842379
-0.0018691218
-0.26815208
-0.0020695765
-0.26786158
-0.0022614058
-0.26755297
-0.0024467488
-0.2672266
-0.0026277905
-0.26688247
-0.0028066416
-0.26652024
-0.0029852178
-0.26613933
-0.0031651365
-0.26573894
-0.0033476102
-0.26531814
-0.0035333833
-0.26487598
-0.003722675
-0.26441151
-0.0039151553
-0.26392394
-0.0041099455
-0.26341268
-0.004305657
-0.26287743
-0.0045004268
-0.26231824
-0.0046920183
-0.26173552
-0.0048779011
-0.26113013
-0.0050553644
-0.26050334
-0.005221632
-0.25985683
-0.0053739745
-0.25919267
-0.0055098215
-0.25851327
-0.0056268573
-0.25782134
-0.0057231035
-0.25711979
-0.0057969832
-0.25641171
-0.005847361
-0.25570026
-0.005873576
-0.25498862
-0.0058754182
-0.25427991
-0.0058531341
-0.25357712
-0.0058073801
-0.25288312
-0.0057391769
-0.25220054
-0.0056498529
-0.25153178
-0.0055409788
-0.25087899
-0.0054143139
-0.25024405
-0.0052717182
-0.24962856
-0.0051151145
-0.24903389
-0.0049464206
-0.24846111
-0.0047675016
-0.24791109
-0.0045801266
-0.24738447
-0.0043859441
-0.24688171
-0.0041864373
-0.24640311
-0.0039829254
-0.24594882
-0.0037765441
-0.24551889
-0.0035682433
-0.24511329
-0.003358789
-0.24473193
-0.0031487781
-0.24437468
-0.0029386366
-0.24404141
-0.0027286513
-0.24373197
-0.0025189822
-0.24344626
-0.0023096866
-0.24318421
-0.002100743
-0.24294581
-0.0018920845
-0.24273112
-0.0016836265
-0.24254031
-0.0014752947
-0.2423737
-0.0012670198
-0.24223171
-0.0010587325
-0.24211493
-0.0008505217
-0.24202655
-0.00062376822
-0.24196625
-0.0004147358
-0.00020947033
-0.26120092
-0.0016648193
-0.26096261
-0.0017734499
-0.26071516
-0.0018612532
-0.26046102
-0.0019265955
-0.26020286
-0.0019682587
-0.25994342
-0.0019851724
-0.25968559
-0.0019763325
-0.25943228
-0.0019409758
-0.25918648
-0.0018784898
-0.25895117
-0.0017885731
-0.25872935
-0.0016711331
-0.25852397
-0.0015264254
-0.2583379
-0.0013549491
-0.25817395
-0.001157561
-0.25803476
-0.00093537769
-0.25792284
-0.00068985998
-0.25784049