/*--------------------------------*- C++ -*----------------------------------*\
| =========                 |                                                 |
| \\      /  F ield         | foam-extend: Open Source CFD                    |
|  \\    /   O peration     | Version:     4.1                                |
|   \\  /    A nd           | Web:         http://www.foam-extend.org         |
|    \\/     M anipulation  |                                                 |
\*---------------------------------------------------------------------------*/
FoamFile
{
    version     2.0;
    format      ascii;
    class       volScalarField;
    location    "0.8";
    object      rAU;
}
// * * * * * * * * * * * * * * * * * * * * * * * * * * * * * * * * * * * * * //

dimensions      [0 0 1 0 0 0 0];

internalField   nonuniform List<scalar> 
16796
(
0.00012758922
0.00012751163
0.00012746555
0.00012742664
0.00012739364
0.00012736766
0.00012734637
0.00012733035
0.00012731693
0.00012730645
0.00012729605
0.00012728595
0.00012727317
0.00012725787
0.00012723704
0.00012721083
0.00012717628
0.00012713362
0.00012707999
0.00012701578
0.00012693831
0.00012684816
0.00012674291
0.00012662343
0.00012648759
0.00012633659
0.00012616867
0.00012598538
0.00012578533
0.00012557044
0.00012533971
0.00012509503
0.0001248373
0.00012456641
0.00012428513
0.00012399325
0.00012369376
0.00012338668
0.00012307516
0.00012275934
0.00012244248
0.00012212488
0.00012180924
0.00012149682
0.00012118934
0.00012088834
0.00012059527
0.00012031161
0.00012003851
0.00011977715
0.00011952852
0.00011929348
0.00011907272
0.00011886692
0.00011867639
0.00011850147
0.00011834229
0.00011819891
0.00011807119
0.00011795906
0.00011786215
0.00011778014
0.00011771263
0.00011765919
0.00011761934
0.00011759261
0.00011757863
0.00011757688
0.00011757688
0.00011758712
0.00011760934
0.00011764344
0.00011768927
0.00011774637
0.00011781442
0.00011789303
0.00011798181
0.00011808032
0.00011818826
0.00011830503
0.00011843021
0.00011856323
0.00011870349
0.00011885033
0.000119003
0.00011916071
0.00011932261
0.00011948776
0.00011965523
0.00011982397
0.00011999308
0.00012016145
0.0001203281
0.00012049204
0.00012065233
0.00012080806
0.00012095837
0.00012110259
0.00012123992
0.0001213698
0.00012149169
0.00012160516
0.0001217098
0.00012180545
0.0001218918
0.00012196873
0.00012203617
0.0001220941
0.0001221425
0.00012218152
0.00012221115
0.00012223152
0.00012224275
0.00012223842
0.00012222314
0.00012219941
0.00012216727
0.00012212692
0.00012207865
0.00012202304
0.00012196114
0.00012189251
0.00012181518
0.000121704
0.0001157938
0.00011578845
0.00011582089
0.00011585898
0.00011589314
0.00011593335
0.00011597778
0.00011602737
0.00011608001
0.00011613642
0.00011619426
0.00011625408
0.0001163134
0.00011637265
0.00011642926
0.00011648359
0.00011653304
0.00011657794
0.00011660158
0.00011661447
0.00011661623
0.00011660757
0.0001165864
0.00011655365
0.00011650746
0.00011644903
0.00011637678
0.00011629219
0.00011619399
0.00011608396
0.00011596113
0.00011582722
0.00011568301
0.0001155283
0.00011536558
0.00011519452
0.00011501782
0.00011483534
0.0001146499
0.00011446148
0.00011427299
0.00011408455
0.00011389857
0.00011371607
0.00011353853
0.00011336729
0.00011320357
0.00011304866
0.00011290353
0.0001127692
0.00011264652
0.00011253624
0.00011243892
0.00011235516
0.00011228521
0.00011222935
0.0001121877
0.00011216027
0.00011214694
0.00011214764
0.00011216202
0.00011218979
0.00011223059
0.00011228402
0.00011233269
0.000112386
0.00011245156
0.00011252889
0.00011260822
0.00011269682
0.0001127956
0.00011290409
0.0001130221
0.00011314931
0.00011328557
0.00011343073
0.00011358465
0.00011374712
0.00011391813
0.00011409733
0.00011428458
0.0001144796
0.00011468206
0.00011489159
0.00011510771
0.0001153299
0.00011555757
0.00011579004
0.00011602657
0.00011626634
0.00011650863
0.00011675246
0.00011699698
0.00011724131
0.00011748454
0.00011772583
0.00011796429
0.00011819925
0.00011842987
0.00011865549
0.00011887551
0.00011908939
0.0001192966
0.00011949685
0.0001196897
0.00011987491
0.00012005226
0.00012022159
0.00012038275
0.00012053578
0.00012068053
0.00012081702
0.00012094524
0.00012105872
0.00012116182
0.00012125687
0.00012134383
0.00012142282
0.00012149392
0.0001215573
0.00012160046
0.0001216339
0.00012166115
0.00012167517
0.0001149304
0.0001149519
0.00011500625
0.00011506457
0.00011511721
0.00011517406
0.00011523342
0.0001152963
0.00011536067
0.00011542733
0.00011549411
0.0001155617
0.00011562783
0.00011569312
0.00011575527
0.00011581488
0.00011586961
0.00011592009
0.00011595003
0.00011594864
0.00011592906
0.00011589817
0.00011585428
0.00011579876
0.00011573017
0.00011565013
0.00011555747
0.00011545407
0.00011533902
0.00011521445
0.00011507966
0.00011493665
0.00011478639
0.00011462886
0.00011446667
0.00011429957
0.00011413026
0.00011395861
0.00011378736
0.00011361641
0.0001134485
0.00011328361
0.00011312392
0.00011297024
0.00011282379
0.00011268564
0.00011255672
0.00011243804
0.00011233027
0.0001122341
0.0001121501
0.00011207869
0.00011202018
0.00011197487
0.00011194274
0.00011192382
0.00011191801
0.00011192511
0.00011194482
0.00011197693
0.00011202094
0.00011207649
0.00011213636
0.0001121767
0.00011221146
0.00011225009
0.00011230025
0.00011236144
0.00011243333
0.00011251561
0.00011260796
0.00011271005
0.00011282174
0.0001129427
0.00011307281
0.00011321193
0.00011335993
0.00011351666
0.00011368214
0.00011385609
0.00011403843
0.00011422895
0.00011442739
0.00011463344
0.0001148467
0.00011506672
0.00011529296
0.00011552477
0.00011576147
0.00011600224
0.00011624638
0.0001164929
0.00011674094
0.00011698956
0.00011723786
0.0001174849
0.00011772976
0.00011797171
0.00011820982
0.00011844338
0.00011867172
0.00011889422
0.0001191103
0.0001193196
0.00011952164
0.00011971611
0.00011990277
0.00012008141
0.00012025185
0.00012041412
0.00012056805
0.00012071364
0.00012085089
0.00012097984
0.00012110046
0.00012121288
0.00012131702
0.00012141291
0.00012150046
0.00012157933
0.00012163637
0.00012168472
0.00012171771
0.00012172313
0.00011483798
0.00011485566
0.00011490092
0.00011495156
0.00011500566
0.00011506437
0.00011512592
0.00011519134
0.00011525866
0.00011532874
0.00011539943
0.00011547147
0.0001155426
0.00011561347
0.00011568173
0.00011574798
0.00011580985
0.0001158679
0.00011591978
0.00011593223
0.00011590119
0.0001158581
0.00011580142
0.00011573269
0.00011565061
0.00011555699
0.00011545083
0.00011533415
0.00011520622
0.00011506933
0.00011492293
0.00011476916
0.00011460912
0.00011444292
0.00011427325
0.00011409996
0.00011392581
0.00011375071
0.00011357744
0.0001134059
0.00011323884
0.0001130762
0.00011292012
0.00011277137
0.00011263109
0.00011250028
0.0001123798
0.00011227054
0.00011217308
0.00011208802
0.0001120158
0.00011195675
0.00011191106
0.00011187892
0.00011186021
0.00011185487
0.00011186267
0.00011188335
0.00011191652
0.00011196189
0.0001120189
0.00011208712
0.00011211158
0.00011211555
0.00011213197
0.00011216047
0.0001122008
0.0001122525
0.00011231521
0.00011238856
0.00011247223
0.00011256583
0.00011266921
0.00011278205
0.00011290419
0.0001130355
0.0001131759
0.00011332526
0.00011348364
0.00011365082
0.00011382679
0.0001140114
0.00011420448
0.00011440577
0.00011461496
0.00011483164
0.00011505532
0.0001152854
0.00011552122
0.00011576199
0.000116007
0.00011625524
0.00011650583
0.00011675781
0.00011701021
0.00011726205
0.00011751234
0.00011776028
0.00011800488
0.00011824536
0.00011848097
0.00011871103
0.0001189349
0.00011915216
0.00011936227
0.00011956489
0.00011975972
0.00011994653
0.00012012513
0.0001202955
0.00012045747
0.00012061104
0.00012075621
0.00012089298
0.00012102135
0.00012114143
0.00012125313
0.00012135646
0.00012145126
0.00012153719
0.00012161403
0.00012168534
0.0001217351
0.00012174126
0.00011476361
0.00011477624
0.00011481768
0.00011486575
0.00011491837
0.0001149766
0.00011503861
0.00011510541
0.00011517503
0.00011524834
0.0001153232
0.00011540033
0.00011547748
0.00011555526
0.00011563129
0.00011570612
0.00011577732
0.00011584539
0.00011590788
0.00011595104
0.00011591104
0.00011585835
0.00011579152
0.00011571217
0.00011561912
0.00011551427
0.00011539673
0.00011526866
0.00011512944
0.00011498145
0.00011482429
0.0001146602
0.00011449039
0.00011431507
0.00011413702
0.00011395619
0.00011377542
0.00011359469
0.00011341683
0.00011324179
0.00011307235
0.00011290849
0.00011275237
0.00011260475
0.00011246677
0.00011233941
0.00011222349
0.00011211988
0.00011202909
0.00011195167
0.00011188799
0.0001118383
0.0001118027
0.00011178129
0.00011177387
0.00011178024
0.00011180011
0.00011183308
0.00011187869
0.00011193653
0.00011200595
0.00011205871
0.00011204073
0.00011203393
0.00011203998
0.00011205852
0.00011208925
0.00011213167
0.00011218538
0.00011224998
0.00011232509
0.00011241032
0.00011250548
0.00011261025
0.00011272447
0.00011284803
0.00011298085
0.00011312288
0.00011327421
0.00011343468
0.00011360437
0.0001137832
0.00011397106
0.00011416778
0.00011437311
0.00011458671
0.00011480813
0.00011503682
0.00011527214
0.00011551331
0.0001157596
0.00011601001
0.00011626361
0.0001165194
0.00011677635
0.00011703343
0.00011728959
0.00011754393
0.00011779541
0.00011804316
0.00011828637
0.00011852429
0.00011875622
0.00011898168
0.00011920006
0.000119411
0.00011961416
0.00011980928
0.00011999613
0.0001201747
0.00012034479
0.00012050641
0.00012065954
0.0001208042
0.00012094037
0.00012106819
0.00012118752
0.00012129836
0.00012140051
0.00012149365
0.00012157759
0.00012165632
0.00012171768
0.00012173598
0.00011468295
0.00011469158
0.00011472953
0.00011477505
0.00011482615
0.00011488387
0.00011494634
0.00011501457
0.00011508661
0.00011516331
0.00011524254
0.00011532501
0.00011540846
0.00011549346
0.00011557762
0.00011566141
0.00011574236
0.00011582088
0.00011589447
0.00011596162
0.00011592314
0.00011586101
0.00011578414
0.00011569427
0.00011559029
0.00011547422
0.00011534528
0.00011520573
0.00011505505
0.00011489577
0.00011472758
0.00011455283
0.00011437285
0.00011418795
0.000114001
0.00011381204
0.00011362401
0.00011343694
0.00011325375
0.00011307444
0.00011290185
0.00011273598
0.00011257903
0.00011243176
0.00011229534
0.00011217072
0.00011205872
0.00011196015
0.00011187551
0.00011180527
0.00011174976
0.00011170913
0.00011168339
0.00011167256
0.00011167632
0.00011169438
0.00011172632
0.00011177166
0.00011182979
0.00011190021
0.00011198217
0.00011198958
0.00011195844
0.00011194088
0.00011193663
0.00011194528
0.00011196652
0.00011199979
0.00011204465
0.00011210064
0.00011216734
0.00011224433
0.00011233139
0.00011242819
0.00011253457
0.00011265044
0.00011277575
0.00011291049
0.00011305482
0.00011320866
0.00011337214
0.00011354528
0.00011372805
0.00011392037
0.00011412204
0.0001143328
0.00011455224
0.00011477986
0.00011501503
0.00011525697
0.00011550496
0.00011575795
0.00011601499
0.00011627502
0.00011653695
0.00011679968
0.00011706208
0.00011732319
0.00011758188
0.00011783721
0.00011808828
0.00011833427
0.00011857443
0.00011880822
0.00011903499
0.00011925431
0.00011946582
0.00011966924
0.00011986431
0.00012005101
0.00012022915
0.00012039872
0.00012055972
0.00012071217
0.00012085607
0.00012099156
0.00012111852
0.00012123693
0.00012134662
0.00012144735
0.00012153885
0.00012162582
0.00012169428
0.00012172239
0.00011459219
0.00011459696
0.00011463169
0.00011467487
0.00011472461
0.00011478197
0.0001148451
0.00011491501
0.00011498975
0.00011507017
0.00011515414
0.00011524238
0.00011533258
0.0001154253
0.00011551809
0.00011561139
0.00011570265
0.00011579221
0.00011587746
0.00011595871
0.00011593626
0.00011586478
0.00011577793
0.0001156775
0.0001155625
0.00011543505
0.00011529446
0.00011514313
0.00011498066
0.00011480966
0.00011462998
0.00011444406
0.00011425334
0.00011405825
0.00011386177
0.00011366404
0.00011346806
0.00011327398
0.00011308477
0.00011290051
0.00011272408
0.00011255555
0.00011239713
0.00011224962
0.00011211419
0.00011199181
0.00011188325
0.00011178934
0.0001117105
0.00011164717
0.00011159959
0.00011156787
0.00011155192
0.00011155165
0.00011156664
0.00011159648
0.00011164066
0.00011169854
0.00011176941
0.00011185266
0.0001119463
0.00011190692
0.00011186465
0.00011183648
0.0001118221
0.00011182108
0.00011183304
0.00011185737
0.00011189358
0.00011194116
0.00011199963
0.00011206853
0.00011214762
0.00011223654
0.00011233516
0.00011244338
0.00011256122
0.0001126887
0.00011282606
0.00011297329
0.00011313062
0.00011329816
0.00011347595
0.00011366402
0.00011386224
0.0001140704
0.00011428817
0.00011451506
0.00011475047
0.00011499362
0.00011524377
0.00011549985
0.00011576084
0.00011602564
0.00011629308
0.00011656199
0.00011683114
0.00011709951
0.00011736587
0.00011762919
0.00011788852
0.00011814295
0.00011839166
0.00011863405
0.00011886943
0.00011909732
0.00011931733
0.00011952915
0.00011973252
0.0001199274
0.00012011359
0.00012029109
0.00012045992
0.00012062009
0.00012077162
0.00012091467
0.00012104914
0.00012117502
0.0001212922
0.00012140048
0.00012149958
0.00012159519
0.00012167177
0.00012171005
0.00011449327
0.00011449452
0.00011452627
0.00011456731
0.00011461584
0.00011467298
0.00011473691
0.00011480866
0.00011488629
0.00011497065
0.00011505962
0.0001151539
0.00011525117
0.00011535195
0.00011545375
0.00011555695
0.00011565893
0.00011575995
0.00011585733
0.00011595125
0.00011595122
0.00011587033
0.00011577336
0.00011566218
0.00011553592
0.00011539679
0.00011524422
0.00011508071
0.00011490599
0.0001147228
0.00011453109
0.00011433344
0.00011413141
0.00011392553
0.0001137189
0.00011351174
0.00011330718
0.00011310544
0.00011290957
0.00011271974
0.00011253887
0.00011236709
0.00011220665
0.00011205838
0.00011192347
0.00011180288
0.0001116974
0.00011160781
0.00011153451
0.00011147788
0.00011143812
0.00011141523
0.00011140904
0.00011141937
0.00011144568
0.00011148745
0.00011154403
0.00011161466
0.00011169852
0.00011179483
0.00011188159
0.00011181334
0.00011175998
0.00011172129
0.00011169692
0.00011168639
0.00011168927
0.00011170488
0.00011173266
0.00011177203
0.00011182245
0.00011188342
0.00011195466
0.00011203581
0.00011212672
0.00011222734
0.00011233771
0.00011245792
0.00011258829
0.00011272891
0.00011288009
0.00011304205
0.00011321493
0.00011339884
0.00011359376
0.00011379953
0.00011401588
0.00011424235
0.00011447835
0.00011472312
0.00011497587
0.00011523549
0.00011550093
0.00011577099
0.00011604445
0.00011632002
0.00011659642
0.0001168725
0.00011714696
0.00011741868
0.00011768662
0.00011794981
0.00011820734
0.00011845857
0.00011870275
0.00011893936
0.000119168
0.00011938831
0.00011960003
0.00011980312
0.00011999737
0.00012018281
0.00012035944
0.00012052733
0.00012068649
0.00012083712
0.00012097912
0.00012111254
0.0001212373
0.00012135326
0.00012146016
0.00012156481
0.00012165007
0.00012169851
0.00011438527
0.00011438296
0.00011441183
0.00011445085
0.00011449831
0.00011455538
0.0001146203
0.0001146941
0.00011477487
0.00011486348
0.00011495779
0.0001150585
0.00011516326
0.00011527255
0.00011538386
0.00011549748
0.00011561074
0.00011572382
0.0001158339
0.00011594109
0.00011596864
0.00011587833
0.00011577114
0.00011564906
0.00011551129
0.00011536017
0.00011519523
0.00011501911
0.00011483164
0.00011463572
0.0001144314
0.0001142214
0.00011400739
0.00011379004
0.00011357255
0.00011335526
0.0001131414
0.00011293128
0.00011272805
0.00011253195
0.00011234597
0.00011217029
0.00011200723
0.00011185765
0.00011172274
0.00011160349
0.00011150069
0.00011141509
0.00011134706
0.00011129695
0.00011126486
0.00011125075
0.00011125435
0.00011127536
0.00011131314
0.00011136704
0.00011143626
0.00011151993
0.00011161707
0.00011172677
0.00011178873
0.00011170881
0.00011164442
0.00011159534
0.00011156116
0.00011154134
0.00011153538
0.00011154252
0.00011156211
0.00011159349
0.00011163607
0.00011168928
0.00011175281
0.00011182627
0.00011190953
0.00011200255
0.00011210543
0.00011221835
0.00011234169
0.00011247564
0.00011262064
0.00011277701
0.00011294502
0.00011312487
0.00011331661
0.0001135202
0.00011373538
0.00011396176
0.00011419875
0.00011444557
0.00011470141
0.00011496512
0.00011523556
0.00011551147
0.00011579152
0.00011607435
0.00011635855
0.0001166429
0.00011692597
0.00011720657
0.00011748356
0.00011775589
0.00011802259
0.00011828296
0.00011853617
0.00011878171
0.00011901911
0.00011924801
0.00011946814
0.00011967946
0.00011988176
0.00012007508
0.00012025947
0.00012043498
0.00012060168
0.00012075979
0.00012090926
0.00012105016
0.00012118249
0.00012130616
0.00012142095
0.00012153489
0.00012162906
0.00012168753
0.00011426903
0.00011426322
0.00011428929
0.00011432636
0.00011437283
0.00011442995
0.00011449598
0.000114572
0.00011465611
0.0001147492
0.00011484913
0.00011495659
0.00011506921
0.00011518743
0.0001153087
0.00011543324
0.0001155583
0.00011568397
0.00011580734
0.00011592839
0.0001159893
0.00011588945
0.00011577188
0.00011563865
0.00011548907
0.00011532557
0.00011514783
0.0001149586
0.00011475785
0.00011454859
0.00011433103
0.00011410801
0.00011388133
0.00011365178
0.0001134227
0.00011319454
0.00011297063
0.0001127514
0.00011254008
0.000112337
0.00011214523
0.00011196502
0.00011179873
0.00011164726
0.00011151186
0.0001113935
0.00011129299
0.00011121106
0.00011114806
0.00011110429
0.00011107979
0.00011107444
0.00011108787
0.00011111969
0.00011116912
0.00011123538
0.00011131754
0.00011141457
0.00011152533
0.00011164876
0.00011168497
0.00011159335
0.00011151801
0.00011145868
0.00011141489
0.00011138602
0.00011137149
0.00011137043
0.0001113821
0.00011140576
0.00011144073
0.00011148636
0.00011154232
0.00011160817
0.00011168381
0.00011176922
0.00011186457
0.0001119701
0.00011208631
0.0001122135
0.00011235224
0.00011250296
0.00011266607
0.00011284188
0.00011303055
0.0001132321
0.00011344635
0.00011367294
0.00011391128
0.00011416058
0.00011442
0.00011468832
0.00011496432
0.00011524666
0.0001155339
0.00011582458
0.00011611718
0.00011641035
0.00011670257
0.00011699254
0.00011727904
0.00011756092
0.00011783714
0.00011810694
0.00011836947
0.00011862413
0.00011887046
0.00011910809
0.00011933671
0.00011955631
0.00011976669
0.0001199679
0.00012016001
0.00012034312
0.00012051732
0.00012068286
0.00012083975
0.00012098812
0.000121128
0.00012125939
0.00012138214
0.0001215055
0.00012160865
0.00012167696
0.00011414397
0.00011413458
0.00011415783
0.000114193
0.00011423857
0.00011429583
0.0001143631
0.00011444152
0.0001145292
0.00011462704
0.00011473292
0.0001148475
0.0001149684
0.00011509603
0.00011522777
0.00011536379
0.00011550125
0.00011564015
0.00011577747
0.00011591307
0.0001160138
0.00011590433
0.00011577619
0.00011563153
0.00011546979
0.00011529351
0.00011510248
0.00011489959
0.00011468495
0.0001144617
0.0001142302
0.00011399342
0.00011375331
0.00011351079
0.00011326931
0.00011302948
0.00011279472
0.00011256559
0.0001123454
0.00011213459
0.00011193631
0.00011175088
0.00011158072
0.00011142679
0.00011129036
0.00011117244
0.00011107383
0.00011099527
0.00011093707
0.00011089949
0.00011088251
0.00011088594
0.00011090931
0.00011095211
0.00011101345
0.00011109238
0.00011118783
0.0001112986
0.00011142341
0.00011156099
0.00011157027
0.00011146696
0.00011138076
0.00011131133
0.00011125815
0.00011122051
0.0001111977
0.00011118876
0.00011119283
0.00011120905
0.00011123664
0.0001112749
0.00011132342
0.00011138175
0.00011144978
0.00011152755
0.00011161528
0.0001117133
0.00011182223
0.00011194251
0.00011207484
0.00011221981
0.00011237796
0.00011254972
0.00011273538
0.00011293504
0.00011314859
0.0001133757
0.00011361578
0.00011386802
0.00011413154
0.00011440505
0.00011468724
0.00011497665
0.00011527175
0.00011557093
0.00011587257
0.00011617518
0.00011647714
0.00011677703
0.00011707352
0.0001173654
0.00011765154
0.00011793111
0.00011820321
0.00011846723
0.00011872265
0.00011896911
0.00011920631
0.00011943421
0.00011965267
0.00011986174
0.00012006152
0.00012025215
0.00012043377
0.00012060666
0.0001207709
0.00012092666
0.00012107405
0.00012121314
0.00012134385
0.00012147667
0.00012158876
0.00012166673
0.00011401037
0.00011399734
0.00011401775
0.00011405101
0.00011409569
0.00011415315
0.00011422178
0.00011430273
0.00011439417
0.000114497
0.00011460913
0.00011473118
0.00011486077
0.00011499827
0.00011514099
0.00011528906
0.00011543953
0.00011559231
0.00011574426
0.00011589511
0.00011603357
0.0001159236
0.00011578466
0.00011562827
0.00011545397
0.00011526442
0.00011505957
0.00011484241
0.00011461321
0.00011437526
0.00011412907
0.00011387774
0.00011362338
0.00011336705
0.00011311234
0.00011285999
0.00011261354
0.00011237366
0.0001121438
0.00011192448
0.00011171893
0.00011152757
0.00011135289
0.00011119589
0.0001110579
0.00011093995
0.00011084285
0.00011076735
0.00011071373
0.00011068221
0.00011067272
0.00011068497
0.00011071842
0.00011077242
0.00011084595
0.00011093792
0.00011104707
0.00011117204
0.00011131135
0.00011146355
0.00011144445
0.00011132945
0.00011123249
0.00011115316
0.00011109086
0.00011104475
0.00011101402
0.00011099756
0.00011099438
0.00011100349
0.00011102399
0.00011105509
0.00011109632
0.00011114721
0.00011120763
0.00011127768
0.00011135765
0.00011144799
0.00011154944
0.00011166259
0.00011178831
0.00011192735
0.00011208041
0.00011224808
0.00011243075
0.00011262863
0.00011284167
0.00011306958
0.00011331179
0.00011356745
0.00011383562
0.00011411491
0.00011440394
0.00011470111
0.00011500475
0.00011531315
0.00011562451
0.00011593723
0.00011624955
0.00011655995
0.00011686698
0.00011716933
0.0001174658
0.00011775551
0.00011803749
0.0001183111
0.00011857581
0.00011883124
0.0001190771
0.00011931337
0.0001195399
0.00011975681
0.00011996421
0.0001201623
0.00012035125
0.00012053142
0.00012070291
0.00012086599
0.00012102082
0.00012116754
0.00012130617
0.00012144841
0.00012156935
0.00012165677
0.00011386786
0.00011385107
0.00011386856
0.00011389987
0.00011394367
0.00011400138
0.00011407145
0.00011415508
0.00011425047
0.00011435855
0.00011447723
0.00011460713
0.00011474585
0.00011489371
0.00011504799
0.00011520871
0.00011537286
0.00011554023
0.00011570757
0.00011587448
0.00011603753
0.00011594798
0.00011579796
0.00011562948
0.00011544217
0.00011523884
0.00011501955
0.00011478746
0.00011454298
0.00011428955
0.00011402784
0.00011376111
0.00011349162
0.00011322058
0.00011295172
0.00011268594
0.00011242689
0.00011217539
0.00011193498
0.00011170631
0.00011149271
0.00011129468
0.00011111478
0.0001109541
0.00011081399
0.00011069553
0.00011059957
0.00011052682
0.00011047757
0.00011045201
0.00011045
0.00011047118
0.00011051489
0.00011058038
0.00011066646
0.00011077189
0.00011089523
0.00011103492
0.00011118929
0.00011135667
0.0001113074
0.00011118074
0.00011107313
0.00011098413
0.00011091301
0.0001108588
0.00011082055
0.00011079697
0.00011078693
0.00011078929
0.00011080301
0.00011082719
0.00011086129
0.0001109048
0.0001109576
0.00011101982
0.00011109186
0.00011117427
0.00011126797
0.00011137371
0.00011149255
0.00011162542
0.00011177321
0.00011193667
0.00011211633
0.00011231251
0.00011252524
0.00011275426
0.000112999
0.00011325857
0.00011353196
0.00011381769
0.00011411426
0.00011441993
0.00011473289
0.00011505125
0.00011537308
0.00011569663
0.00011602
0.00011634153
0.00011665966
0.000116973
0.00011728025
0.00011758047
0.00011787264
0.0001181561
0.00011843029
0.00011869483
0.00011894942
0.00011919409
0.0001194287
0.0001196534
0.00011986837
0.00012007383
0.00012027002
0.00012045735
0.00012063599
0.00012080627
0.00012096843
0.00012112269
0.00012126915
0.00012142073
0.00012155039
0.00012164706
0.00011371651
0.0001136958
0.00011371025
0.00011373955
0.00011378243
0.00011384039
0.00011391196
0.00011399838
0.00011409789
0.00011421145
0.00011433698
0.0001144751
0.00011462339
0.00011478212
0.00011494851
0.00011512253
0.00011530106
0.00011548378
0.00011566731
0.0001158511
0.00011603158
0.00011597817
0.00011581677
0.00011563578
0.00011543497
0.00011521726
0.00011498288
0.00011473512
0.00011447457
0.00011420481
0.0001139267
0.00011364365
0.00011335808
0.00011307137
0.00011278741
0.00011250722
0.00011223462
0.00011197056
0.0001117187
0.00011147981
0.00011125732
0.00011105184
0.000110866
0.00011070098
0.00011055818
0.00011043873
0.00011034349
0.0001102732
0.00011022813
0.00011020843
0.00011021392
0.00011024415
0.00011029835
0.00011037565
0.00011047471
0.0001105941
0.00011073219
0.00011088721
0.00011105726
0.00011124043
0.00011115885
0.00011102054
0.00011090245
0.00011080404
0.00011072445
0.00011066257
0.00011061725
0.00011058704
0.00011057061
0.00011056664
0.00011057393
0.00011059146
0.00011061859
0.00011065477
0.0001106999
0.00011075416
0.00011081802
0.00011089222
0.00011097781
0.00011107578
0.00011118738
0.00011131376
0.00011145603
0.0001116151
0.00011179169
0.00011198622
0.00011219881
0.00011242923
0.0001126769
0.00011294091
0.00011322014
0.00011351302
0.00011381788
0.00011413285
0.00011445593
0.00011478508
0.0001151182
0.00011545335
0.0001157885
0.00011612184
0.0001164517
0.00011677657
0.00011709508
0.00011740622
0.00011770892
0.00011800249
0.00011828636
0.00011856014
0.00011882356
0.00011907666
0.00011931934
0.0001195518
0.00011977425
0.00011998699
0.0001201903
0.00012038466
0.00012057031
0.00012074766
0.00012091702
0.00012107869
0.00012123285
0.00012139366
0.00012153186
0.00012163758
0.00011355607
0.00011353126
0.00011354252
0.00011356968
0.00011361157
0.00011366978
0.00011374287
0.00011383218
0.00011393597
0.00011405525
0.00011418793
0.00011433466
0.00011449297
0.0001146631
0.00011484223
0.00011503022
0.00011522388
0.00011542275
0.00011562334
0.00011582493
0.00011602379
0.00011601497
0.00011584184
0.00011564789
0.00011543302
0.0001152003
0.00011495009
0.00011468587
0.00011440837
0.00011412138
0.0001138259
0.00011352553
0.00011322287
0.00011291946
0.00011261935
0.00011232373
0.00011203656
0.00011175894
0.00011149466
0.00011124462
0.00011101237
0.00011079861
0.00011060609
0.00011043605
0.00011028996
0.00011016901
0.00011007409
0.00011000596
0.00010996489
0.00010995099
0.00010996402
0.00011000347
0.00011006846
0.00011015796
0.00011027048
0.00011040442
0.00011055791
0.00011072895
0.0001109154
0.00011111507
0.00011099857
0.00011084866
0.00011072028
0.00011061276
0.00011052512
0.00011045605
0.0001104042
0.00011036791
0.00011034561
0.00011033578
0.00011033704
0.00011034821
0.00011036856
0.00011039747
0.00011043485
0.00011048095
0.00011053635
0.00011060195
0.00011067901
0.00011076874
0.00011087265
0.00011099215
0.00011112855
0.00011128301
0.00011145641
0.0001116493
0.0001118619
0.00011209402
0.00011234507
0.00011261406
0.0001128998
0.00011320057
0.00011351455
0.00011383968
0.00011417379
0.00011451462
0.00011485988
0.00011520748
0.00011555519
0.00011590108
0.00011624332
0.00011658031
0.00011691058
0.00011723306
0.00011754664
0.0001178506
0.00011814435
0.00011842751
0.00011869984
0.00011896139
0.00011921213
0.00011945228
0.00011968212
0.00011990201
0.00012011231
0.00012031355
0.00012050607
0.00012069032
0.00012086671
0.00012103563
0.00012119734
0.00012136721
0.00012151377
0.00012162833
0.0001133865
0.00011335736
0.00011336523
0.00011339011
0.00011343091
0.0001134893
0.00011356393
0.00011365619
0.00011376441
0.00011388961
0.00011402975
0.00011418546
0.00011435425
0.00011453634
0.00011472884
0.00011493152
0.00011514109
0.00011535698
0.00011557554
0.0001157959
0.00011601416
0.00011605922
0.00011587395
0.00011566654
0.000115437
0.00011518855
0.00011492172
0.00011464016
0.00011434479
0.00011403956
0.00011372569
0.00011340694
0.00011308609
0.00011276488
0.00011244752
0.00011213537
0.00011183255
0.00011154031
0.00011126259
0.00011100043
0.00011075748
0.00011053459
0.00011033459
0.00011015881
0.00011000882
0.00010988585
0.00010979083
0.00010972456
0.0001096873
0.00010967914
0.0001096998
0.00010974867
0.00010982477
0.00010992694
0.00011005349
0.00011020262
0.00011037224
0.00011056009
0.00011076375
0.00011098073
0.00011082618
0.00011066474
0.0001105263
0.00011041005
0.00011031484
0.00011023915
0.0001101814
0.00011013965
0.0001101121
0.00011009696
0.00011009265
0.0001100978
0.00011011156
0.00011013326
0.00011016279
0.00011020047
0.00011024704
0.00011030357
0.00011037157
0.00011045251
0.00011054819
0.00011066029
0.00011079041
0.00011093995
0.00011110997
0.00011130121
0.00011151396
0.00011174808
0.00011200295
0.00011227753
0.00011257049
0.00011287998
0.00011320396
0.0001135402
0.0001138863
0.00011423977
0.00011459814
0.00011495908
0.00011532021
0.00011567941
0.00011603475
0.00011638447
0.00011672705
0.00011706132
0.00011738614
0.00011770076
0.0001180046
0.00011829728
0.00011857858
0.00011884861
0.00011910736
0.00011935513
0.00011959226
0.00011981917
0.00012003629
0.00012024424
0.00012044343
0.0001206344
0.00012081764
0.00012099361
0.00012116267
0.00012134142
0.00012149613
0.0001216193
0.00011320764
0.00011317392
0.00011317818
0.00011320058
0.00011324015
0.00011329863
0.00011337478
0.00011347004
0.00011358281
0.00011371414
0.00011386204
0.00011402711
0.00011420687
0.00011440149
0.00011460802
0.00011482615
0.00011505248
0.0001152863
0.00011552383
0.00011576402
0.00011600277
0.00011611188
0.00011591404
0.00011569259
0.00011544769
0.00011518273
0.00011489841
0.00011459856
0.0001142843
0.00011395977
0.00011362638
0.0001132881
0.00011294789
0.0001126077
0.0001122719
0.00011194205
0.00011162243
0.00011131445
0.00011102221
0.00011074688
0.00011049227
0.00011025934
0.00011005102
0.00010986876
0.0001097142
0.00010958866
0.00010949312
0.0001094284
0.00010939478
0.00010939232
0.00010942071
0.00010947926
0.00010956686
0.00010968221
0.00010982344
0.00010998852
0.00011017512
0.00011038068
0.00011060248
0.0001108309
0.00011064137
0.00011046848
0.00011032025
0.0001101957
0.00011009349
0.00011001184
0.0001099489
0.00010990243
0.00010987032
0.00010985051
0.00010984115
0.00010984067
0.00010984806
0.00010986257
0.00010988411
0.00010991308
0.00010995037
0.00010999727
0.00011005556
0.00011012703
0.0001102138
0.00011031789
0.00011044121
0.00011058542
0.00011075184
0.00011094136
0.00011115438
0.0001113908
0.00011164998
0.00011193079
0.00011223176
0.00011255084
0.00011288582
0.00011323419
0.00011359333
0.00011396051
0.000114333
0.00011470827
0.00011508373
0.00011545709
0.00011582626
0.00011618938
0.00011654482
0.00011689135
0.00011722779
0.00011755336
0.00011786748
0.00011816981
0.00011846016
0.00011873865
0.00011900537
0.00011926066
0.00011950494
0.0001197387