/*--------------------------------*- C++ -*----------------------------------*\
| =========                 |                                                 |
| \\      /  F ield         | foam-extend: Open Source CFD                    |
|  \\    /   O peration     | Version:     4.1                                |
|   \\  /    A nd           | Web:         http://www.foam-extend.org         |
|    \\/     M anipulation  |                                                 |
\*---------------------------------------------------------------------------*/
FoamFile
{
    version     2.0;
    format      ascii;
    class       volVectorField;
    location    "0.8";
    object      U;
}
// * * * * * * * * * * * * * * * * * * * * * * * * * * * * * * * * * * * * * //

dimensions      [0 1 -1 0 0 0 0];

internalField   nonuniform List<vector> 
16796
(
(140.62255 -0.037818524 0)
(140.6702 -0.044033657 0)
(140.70651 -0.043237062 0)
(140.73837 -0.041596368 0)
(140.76353 -0.039995404 0)
(140.78281 -0.038796015 0)
(140.79753 -0.038145362 0)
(140.80933 -0.03811806 0)
(140.82003 -0.038752326 0)
(140.83158 -0.040068132 0)
(140.84601 -0.042074117 0)
(140.86536 -0.044768738 0)
(140.89173 -0.048142505 0)
(140.92718 -0.052178983 0)
(140.97375 -0.056854987 0)
(141.03339 -0.062143889 0)
(141.10801 -0.06801619 0)
(141.19936 -0.074436725 0)
(141.30911 -0.081364579 0)
(141.43874 -0.088746017 0)
(141.5896 -0.096517247 0)
(141.76282 -0.10460908 0)
(141.95933 -0.11294632 0)
(142.17983 -0.12144922 0)
(142.42479 -0.13003465 0)
(142.69442 -0.13861669 0)
(142.98868 -0.14710805 0)
(143.30725 -0.15542066 0)
(143.64958 -0.16346714 0)
(144.01484 -0.17116151 0)
(144.40192 -0.17842065 0)
(144.80951 -0.18516515 0)
(145.23602 -0.1913208 0)
(145.67967 -0.19681934 0)
(146.13846 -0.20159963 0)
(146.61021 -0.20560871 0)
(147.0926 -0.20880252 0)
(147.58316 -0.21114675 0)
(148.07933 -0.21261738 0)
(148.57849 -0.21320116 0)
(149.07797 -0.21289589 0)
(149.57511 -0.21171052 0)
(150.06726 -0.209665 0)
(150.55185 -0.20679009 0)
(151.02641 -0.20312677 0)
(151.48858 -0.19872556 0)
(151.93617 -0.19364563 0)
(152.36717 -0.18795372 0)
(152.77977 -0.18172287 0)
(153.17239 -0.17503096 0)
(153.54369 -0.16795913 0)
(153.89259 -0.16059017 0)
(154.21825 -0.15300663 0)
(154.52009 -0.14528912 0)
(154.79778 -0.13751443 0)
(155.05124 -0.12975377 0)
(155.28061 -0.12207118 0)
(155.48621 -0.11452191 0)
(155.66858 -0.10715152 0)
(155.82836 -0.099995344 0)
(155.96634 -0.093075652 0)
(156.08339 -0.086403012 0)
(156.1804 -0.079976847 0)
(156.25831 -0.073779493 0)
(156.31798 -0.067778108 0)
(156.36027 -0.061913515 0)
(156.38588 -0.056109331 0)
(156.39546 -0.050261338 0)
(156.38957 -0.044226317 0)
(156.36775 -0.038032511 0)
(156.33005 -0.03185741 0)
(156.27675 -0.025806097 0)
(156.20809 -0.019907801 0)
(156.12434 -0.014164978 0)
(156.02571 -0.0085729042 0)
(155.9124 -0.003128626 0)
(155.78461 0.0021646445 0)
(155.64256 0.0072955791 0)
(155.48655 0.012244261 0)
(155.31692 0.016982699 0)
(155.13416 0.021475968 0)
(154.93886 0.025683844 0)
(154.73174 0.029562757 0)
(154.51368 0.033067906 0)
(154.2857 0.036155417 0)
(154.04896 0.038784421 0)
(153.80475 0.040918933 0)
(153.55448 0.042529462 0)
(153.29963 0.043594273 0)
(153.04177 0.044100254 0)
(152.78251 0.044043369 0)
(152.52346 0.04342872 0)
(152.26625 0.042270233 0)
(152.01244 0.040589992 0)
(151.76356 0.038417313 0)
(151.52104 0.035787613 0)
(151.28622 0.032741134 0)
(151.06033 0.029321587 0)
(150.84449 0.02557482 0)
(150.63968 0.021547532 0)
(150.44676 0.01728607 0)
(150.26647 0.012835395 0)
(150.09942 0.0082382085 0)
(149.94611 0.0035342651 0)
(149.80694 -0.0012401066 0)
(149.68221 -0.0060522464 0)
(149.57215 -0.010873262 0)
(149.4769 -0.015677952 0)
(149.39654 -0.020444074 0)
(149.33113 -0.025152714 0)
(149.28066 -0.029786515 0)
(149.24511 -0.034326721 0)
(149.22442 -0.03875105 0)
(149.21855 -0.043033166 0)
(149.2273 -0.047163468 0)
(149.2506 -0.051126078 0)
(149.28831 -0.054876249 0)
(149.34019 -0.058335369 0)
(149.40586 -0.061338085 0)
(149.48553 -0.063551107 0)
(149.57962 -0.064627321 0)
(149.68701 -0.065218901 0)
(149.79209 -0.064132338 0)
(149.87378 -0.051484192 0)
(160.10138 -0.0060320245 0)
(160.01746 -0.01072989 0)
(159.93955 -0.005129408 0)
(159.85377 0.0020582028 0)
(159.76101 0.0090787281 0)
(159.66205 0.015085827 0)
(159.55808 0.01965881 0)
(159.45051 0.022552725 0)
(159.34091 0.023603441 0)
(159.231 0.022697632 0)
(159.12261 0.019760326 0)
(159.01762 0.01474634 0)
(158.91793 0.0076385107 0)
(158.82549 -0.0015527249 0)
(158.74222 -0.012790565 0)
(158.67003 -0.026010584 0)
(158.61074 -0.041120587 0)
(158.56613 -0.057998265 0)
(158.53788 -0.076487694 0)
(158.52734 -0.096423526 0)
(158.53581 -0.11763076 0)
(158.5644 -0.13991378 0)
(158.61405 -0.16306114 0)
(158.68549 -0.18684495 0)
(158.77926 -0.21102445 0)
(158.89564 -0.23534805 0)
(159.0347 -0.25955706 0)
(159.19625 -0.28338816 0)
(159.37986 -0.30657753 0)
(159.58483 -0.3288635 0)
(159.81024 -0.34999072 0)
(160.0549 -0.36971304 0)
(160.31741 -0.3877976 0)
(160.59614 -0.40402773 0)
(160.88926 -0.41820616 0)
(161.19473 -0.43015849 0)
(161.51038 -0.43973544 0)
(161.83388 -0.44681577 0)
(162.16279 -0.45130799 0)
(162.49459 -0.45315237 0)
(162.8267 -0.45232197 0)
(163.15654 -0.44882343 0)
(163.48152 -0.44269714 0)
(163.7991 -0.43401692 0)
(164.10683 -0.42288895 0)
(164.40237 -0.40945023 0)
(164.6835 -0.3938664 0)
(164.94819 -0.37632892 0)
(165.19461 -0.35705167 0)
(165.42112 -0.33626698 0)
(165.62633 -0.31422124 0)
(165.80909 -0.29116995 0)
(165.96852 -0.26737256 0)
(166.10397 -0.24308698 0)
(166.21506 -0.21856408 0)
(166.30166 -0.19404218 0)
(166.36386 -0.16974202 0)
(166.40198 -0.14586138 0)
(166.41651 -0.12257254 0)
(166.40811 -0.1000186 0)
(166.37759 -0.078310727 0)
(166.32584 -0.057524897 0)
(166.25384 -0.037697785 0)
(166.16255 -0.018825727 0)
(166.05298 -0.00086547252 0)
(165.92603 0.016242532 0)
(165.78258 0.032588378 0)
(165.6234 0.04832216 0)
(165.44917 0.063660979 0)
(165.26139 0.078734663 0)
(165.0608 0.093540608 0)
(164.84767 0.10809394 0)
(164.62212 0.12244124 0)
(164.38413 0.13662926 0)
(164.13363 0.15069025 0)
(163.8705 0.16463406 0)
(163.59465 0.17844409 0)
(163.30603 0.1920759 0)
(163.00464 0.20545782 0)
(162.69057 0.21849348 0)
(162.36404 0.23106552 0)
(162.0254 0.24304054 0)
(161.67515 0.25427476 0)
(161.31393 0.26462011 0)
(160.94256 0.27393048 0)
(160.56199 0.28206767 0)
(160.17333 0.28890684 0)
(159.7778 0.29434125 0)
(159.37672 0.298286 0)
(158.97152 0.30068069 0)
(158.56365 0.30149095 0)
(158.15464 0.30070885 0)
(157.74598 0.29835226 0)
(157.33916 0.29446317 0)
(156.93564 0.28910536 0)
(156.5368 0.28236127 0)
(156.14396 0.27432864 0)
(155.75832 0.2651167 0)
(155.381 0.25484242 0)
(155.01302 0.24362685 0)
(154.65525 0.23159163 0)
(154.30847 0.21885582 0)
(153.97337 0.20553324 0)
(153.6505 0.19173017 0)
(153.34032 0.17754356 0)
(153.04322 0.16305986 0)
(152.75949 0.14835422 0)
(152.48936 0.13349019 0)
(152.23299 0.11852017 0)
(151.99052 0.10348589 0)
(151.76202 0.088419237 0)
(151.54754 0.073345344 0)
(151.34711 0.058287667 0)
(151.16074 0.043269798 0)
(150.98853 0.028308263 0)
(150.83049 0.013411436 0)
(150.68651 -0.0013971054 0)
(150.55643 -0.016053966 0)
(150.44004 -0.030339444 0)
(150.33767 -0.043741266 0)
(150.24935 -0.055873364 0)
(150.17399 -0.068902069 0)
(150.10296 -0.079621358 0)
(150.03323 -0.070216367 0)
(161.58183 0.052286438 0)
(161.44218 0.058563108 0)
(161.32083 0.069182765 0)
(161.19392 0.080223067 0)
(161.06473 0.090282214 0)
(160.93496 0.098504449 0)
(160.80612 0.10437595 0)
(160.6797 0.10757055 0)
(160.55727 0.10786562 0)
(160.44035 0.10510612 0)
(160.33047 0.099191392 0)
(160.22916 0.090064772 0)
(160.13787 0.077710155 0)
(160.05802 0.062151392 0)
(159.99095 0.043450077 0)
(159.93791 0.021708362 0)
(159.90004 -0.0029309335 0)
(159.87837 -0.030284815 0)
(159.87378 -0.0601244 0)
(159.88722 -0.092190526 0)
(159.91939 -0.12620447 0)
(159.97086 -0.1618561 0)
(160.042 -0.19881106 0)
(160.13302 -0.23670943 0)
(160.24394 -0.27517166 0)
(160.37459 -0.31380111 0)
(160.52461 -0.35219001 0)
(160.69345 -0.38992301 0)
(160.88035 -0.42658357 0)
(161.08438 -0.46175801 0)
(161.30442 -0.4950421 0)
(161.53917 -0.52604555 0)
(161.78717 -0.55439832 0)
(162.04679 -0.57975563 0)
(162.31627 -0.60180284 0)
(162.59371 -0.6202612 0)
(162.87711 -0.63489155 0)
(163.16437 -0.64549918 0)
(163.45335 -0.65193674 0)
(163.74184 -0.65410763 0)
(164.02763 -0.65196781 0)
(164.30851 -0.64552736 0)
(164.5823 -0.63485086 0)
(164.8469 -0.62005696 0)
(165.1003 -0.60131693 0)
(165.34058 -0.5788522 0)
(165.56599 -0.55293089 0)
(165.77492 -0.52386334 0)
(165.96595 -0.49199655 0)
(166.13787 -0.45770787 0)
(166.28965 -0.42139766 0)
(166.42052 -0.38348135 0)
(166.52989 -0.34438089 0)
(166.61744 -0.30451579 0)
(166.68303 -0.26429399 0)
(166.72675 -0.22410296 0)
(166.74887 -0.18430129 0)
(166.74985 -0.14520961 0)
(166.73027 -0.1071064 0)
(166.69086 -0.070226368 0)
(166.63244 -0.034753053 0)
(166.5559 -0.00080187049 0)
(166.46211 0.031575004 0)
(166.35198 0.062383262 0)
(166.22633 0.091656347 0)
(166.08599 0.11948956 0)
(165.93168 0.1460104 0)
(165.764 0.17136844 0)
(165.58343 0.19572855 0)
(165.3903 0.21931038 0)
(165.18481 0.24236111 0)
(164.96708 0.26507512 0)
(164.73714 0.2875954 0)
(164.49491 0.31002517 0)
(164.24029 0.33242614 0)
(163.97313 0.35481481 0)
(163.6933 0.37715992 0)
(163.40072 0.3993821 0)
(163.09534 0.42135597 0)
(162.77726 0.44291465 0)
(162.44666 0.4638562 0)
(162.10388 0.48395195 0)
(161.7494 0.50295591 0)
(161.38388 0.52061486 0)
(161.00812 0.53667869 0)
(160.62309 0.55091023 0)
(160.2299 0.56309434 0)
(159.8298 0.57304567 0)
(159.42414 0.58061486 0)
(159.01434 0.58569302 0)
(158.60191 0.58821423 0)
(158.18838 0.58815631 0)
(157.77527 0.58553975 0)
(157.3641 0.58042513 0)
(156.95635 0.5729092 0)
(156.5534 0.56312003 0)
(156.1566 0.5512113 0)
(155.76717 0.53735635 0)
(155.38622 0.52174199 0)
(155.01478 0.50456253 0)
(154.65373 0.48601416 0)
(154.30386 0.46628977 0)
(153.96583 0.44557454 0)
(153.6402 0.4240422 0)
(153.32743 0.40185201 0)
(153.02789 0.37914674 0)
(152.74188 0.35605116 0)
(152.4696 0.33267153 0)
(152.21123 0.30909548 0)
(151.96688 0.28539322 0)
(151.73661 0.26161805 0)
(151.52049 0.23780834 0)
(151.31852 0.21399132 0)
(151.13072 0.19018714 0)
(150.95707 0.16641851 0)
(150.79758 0.14270895 0)
(150.65216 0.11907595 0)
(150.52074 0.095565064 0)
(150.40327 0.07236461 0)
(150.30009 0.049861328 0)
(150.2107 0.028138706 0)
(150.13429 0.004159324 0)
(150.06834 -0.016723028 0)
(150.01867 -0.023148553 0)
(161.67736 0.13152638 0)
(161.52556 0.14575124 0)
(161.39829 0.15900516 0)
(161.26584 0.17055243 0)
(161.13168 0.17974906 0)
(160.99752 0.18600675 0)
(160.86492 0.18889956 0)
(160.73542 0.18812695 0)
(160.61053 0.18348553 0)
(160.49178 0.17484569 0)
(160.38069 0.16213787 0)
(160.27876 0.14534758 0)
(160.18744 0.12451104 0)
(160.10814 0.09971326 0)
(160.04221 0.071085799 0)
(159.99089 0.038805137 0)
(159.95532 0.0030923072 0)
(159.93655 -0.035795711 0)
(159.93548 -0.077568348 0)
(159.95285 -0.12188461 0)
(159.98929 -0.16836847 0)
(160.04525 -0.21660933 0)
(160.121 -0.2661653 0)
(160.21666 -0.31656778 0)
(160.33214 -0.36732697 0)
(160.46716 -0.41793576 0)
(160.62128 -0.46787659 0)
(160.79385 -0.5166255 0)
(160.98404 -0.56366 0)
(161.19084 -0.6084635 0)
(161.41308 -0.65053349 0)
(161.64941 -0.68938664 0)
(161.89833 -0.72456662 0)
(162.15822 -0.75565016 0)
(162.4273 -0.78225299 0)
(162.7037 -0.80403697 0)
(162.98544 -0.82071473 0)
(163.27048 -0.83205577 0)
(163.55672 -0.83789019 0)
(163.84203 -0.83811304 0)
(164.12425 -0.83268676 0)
(164.40126 -0.82164317 0)
(164.67096 -0.80508423 0)
(164.93132 -0.78318138 0)
(165.1804 -0.75617392 0)
(165.41634 -0.72436583 0)
(165.63745 -0.68812129 0)
(165.84218 -0.6478589 0)
(166.02914 -0.60404435 0)
(166.19715 -0.55718212 0)
(166.34521 -0.50780576 0)
(166.47256 -0.45646727 0)
(166.57863 -0.40372561 0)
(166.66308 -0.35013483 0)
(166.72578 -0.2962316 0)
(166.76682 -0.24252324 0)
(166.78646 -0.18947665 0)
(166.78514 -0.13750377 0)
(166.76346 -0.086964121 0)
(166.72214 -0.038158724 0)
(166.662 0.0086992288 0)
(166.58392 0.053486938 0)
(166.48878 0.096165127 0)
(166.37747 0.13674435 0)
(166.25083 0.17533793 0)
(166.10964 0.2121114 0)
(165.95459 0.24727971 0)
(165.78626 0.28108134 0)
(165.60513 0.31375779 0)
(165.41151 0.34556317 0)
(165.20564 0.37675907 0)
(164.9876 0.40757916 0)
(164.7574 0.4382156 0)
(164.51495 0.46881188 0)
(164.26009 0.49945402 0)
(163.99265 0.5301635 0)
(163.71247 0.56089337 0)
(163.41941 0.59152779 0)
(163.11342 0.62188516 0)
(162.79454 0.65172476 0)
(162.46295 0.68075602 0)
(162.11896 0.70865046 0)
(161.76306 0.73505511 0)
(161.39589 0.75960703 0)
(161.01827 0.78194787 0)
(160.63119 0.80173803 0)
(160.23578 0.81866944 0)
(159.83332 0.8324766 0)
(159.42518 0.8429454 0)
(159.01285 0.84991935 0)
(158.59786 0.85330315 0)
(158.18177 0.85306367 0)
(157.76615 0.8492284 0)
(157.35255 0.84188174 0)
(156.94246 0.83115938 0)
(156.53733 0.81724136 0)
(156.13849 0.80034405 0)
(155.7472 0.78071166 0)
(155.36458 0.75860747 0)
(154.99165 0.73430552 0)
(154.62931 0.70808253 0)
(154.27833 0.68021084 0)
(153.93939 0.65095214 0)
(153.61303 0.6205523 0)
(153.29969 0.58923736 0)
(152.99975 0.55721062 0)
(152.71347 0.5246509 0)
(152.44107 0.49171185 0)
(152.18269 0.45852231 0)
(151.93843 0.42518754 0)
(151.70835 0.39179175 0)
(151.4925 0.35840177 0)
(151.29088 0.3250706 0)
(151.1035 0.29184373 0)
(150.93036 0.25877098 0)
(150.77145 0.22591261 0)
(150.62671 0.19334658 0)
(150.49611 0.16121153 0)
(150.37971 0.12979542 0)
(150.27778 0.099509149 0)
(150.18949 0.070535838 0)
(150.11462 0.039904556 0)
(150.05368 0.015624248 0)
(150.01331 0.002241692 0)
(161.7116 0.20647015 0)
(161.55553 0.22734866 0)
(161.42619 0.24501715 0)
(161.2915 0.25942742 0)
(161.15484 0.27023565 0)
(161.01791 0.27700396 0)
(160.88232 0.27935202 0)
(160.74968 0.27698146 0)
(160.62154 0.26967571 0)
(160.49948 0.25729261 0)
(160.38507 0.23975779 0)
(160.27983 0.21706192 0)
(160.18527 0.18925812 0)
(160.10284 0.15646124 0)
(160.03392 0.11884622 0)
(159.9798 0.07664791 0)
(159.94167 0.030162358 0)
(159.92061 -0.020264367 0)
(159.91754 -0.074245408 0)
(159.93327 -0.13133951 0)
(159.96841 -0.1910598 0)
(160.02345 -0.25286901 0)
(160.09865 -0.3161973 0)
(160.19414 -0.380443 0)
(160.30983 -0.4449806 0)
(160.44546 -0.50916599 0)
(160.60054 -0.57234499 0)
(160.77444 -0.63385858 0)
(160.96631 -0.69305249 0)
(161.17511 -0.7492828 0)
(161.39966 -0.80192571 0)
(161.63859 -0.85038362 0)
(161.89038 -0.89409441 0)
(162.15335 -0.9325386 0)
(162.42572 -0.96524619 0)
(162.70559 -0.99180517 0)
(162.99094 -1.0118668 0)
(163.27971 -1.025153 0)
(163.56975 -1.0314604 0)
(163.8589 -1.0306661 0)
(164.14498 -1.0227301 0)
(164.42581 -1.0076982 0)
(164.69927 -0.98570302 0)
(164.96327 -0.95696332 0)
(165.21584 -0.92178233 0)
(165.45509 -0.88054415 0)
(165.67928 -0.83370858 0)
(165.88682 -0.78180418 0)
(166.0763 -0.7254196 0)
(166.2465 -0.6651934 0)
(166.3964 -0.60180207 0)
(166.52522 -0.53594695 0)
(166.63238 -0.46833972 0)
(166.71754 -0.39968742 0)
(166.78058 -0.33067651 0)
(166.8216 -0.26195756 0)
(166.84089 -0.19413091 0)
(166.83893 -0.12772538 0)
(166.81636 -0.063218251 0)
(166.77396 -0.00099339624 0)
(166.71258 0.058686346 0)
(166.63317 0.11565596 0)
(166.53664 0.16984441 0)
(166.42396 0.22129808 0)
(166.29601 0.27014149 0)
(166.15361 0.31658554 0)
(165.99751 0.36090983 0)
(165.8283 0.40344336 0)
(165.64645 0.44454122 0)
(165.45231 0.48456977 0)
(165.24606 0.523886 0)
(165.02777 0.56280976 0)
(164.79741 0.60160526 0)
(164.55484 0.64046855 0)
(164.29987 0.67951644 0)
(164.03225 0.71877844 0)
(163.75179 0.7581924 0)
(163.45829 0.79760456 0)
(163.15166 0.83677406 0)
(162.8319 0.87538187 0)
(162.49914 0.91304322 0)
(162.15369 0.94932336 0)
(161.79602 0.98375537 0)
(161.42678 1.0158592 0)
(161.04679 1.045161 0)
(160.65707 1.0712116 0)
(160.25878 1.0936034 0)
(159.85324 1.1119846 0)
(159.44188 1.1260712 0)
(159.02622 1.1356545 0)
(158.60784 1.1406062 0)
(158.18835 1.1408792 0)
(157.76939 1.1365057 0)
(157.35254 1.1275921 0)
(156.93935 1.1143116 0)
(156.53127 1.0968951 0)
(156.12969 1.0756206 0)
(155.73587 1.0508021 0)
(155.35096 1.022778 0)
(154.97599 0.99190043 0)
(154.61185 0.95852467 0)
(154.25933 0.92299981 0)
(153.91908 0.88566072 0)
(153.59163 0.84682124 0)
(153.27743 0.80676885 0)
(152.97682 0.76576094 0)
(152.69006 0.72402228 0)
(152.41733 0.68174408 0)
(152.15877 0.63908416 0)
(151.91446 0.5961686 0)
(151.68445 0.55309412 0)
(151.46875 0.50993191 0)
(151.26738 0.46673263 0)
(151.08033 0.42353317 0)
(150.9076 0.3803657 0)
(150.74919 0.33726546 0)
(150.60507 0.29428727 0)
(150.47528 0.25155021 0)
(150.35996 0.20929109 0)
(150.25936 0.16779861 0)
(150.17271 0.12726933 0)
(150.10059 0.084442977 0)
(150.04489 0.049142915 0)
(150.0106 0.022094967 0)
(161.75341 0.2897018 0)
(161.59291 0.3145962 0)
(161.46087 0.33493965 0)
(161.32342 0.35070836 0)
(161.18378 0.36166801 0)
(161.0436 0.36747262 0)
(160.90455 0.36779017 0)
(160.76825 0.36234633 0)
(160.63632 0.35093841 0)
(160.51038 0.33343788 0)
(160.39205 0.30978976 0)
(160.2829 0.28001235 0)
(160.18448 0.24419574 0)
(160.09828 0.2025018 0)
(160.02573 0.15516212 0)
(159.96818 0.10247707 0)
(159.92683 0.044814608 0)
(159.90283 -0.017393066 0)
(159.89713 -0.083663314 0)
(159.91056 -0.15345486 0)
(159.9438 -0.22617365 0)
(159.99732 -0.30118396 0)
(160.07146 -0.37780184 0)
(160.16633 -0.45531015 0)
(160.28187 -0.53296465 0)
(160.41782 -0.61000047 0)
(160.57373 -0.68564276 0)
(160.74894 -0.75911238 0)
(160.94261 -0.82963757 0)
(161.15369 -0.89646014 0)
(161.38098 -0.95884699 0)
(161.62308 -1.016097 0)
(161.87846 -1.0675519 0)
(162.14542 -1.1126044 0)
(162.42211 -1.1507059 0)
(162.70661 -1.1813768 0)
(162.99685 -1.2042123 0)
(163.29072 -1.2188911 0)
(163.58602 -1.2251802 0)
(163.88052 -1.2229417 0)
(164.17198 -1.212136 0)
(164.45817 -1.1928251 0)
(164.73689 -1.1651741 0)
(165.00601 -1.1294508 0)
(165.26348 -1.0860236 0)
(165.50736 -1.035358 0)
(165.73584 -0.97800996 0)
(165.9473 -0.91461853 0)
(166.14027 -0.84589507 0)
(166.3135 -0.77261134 0)
(166.46594 -0.69558515 0)
(166.5968 -0.61566446 0)
(166.70549 -0.53370986 0)
(166.79167 -0.45057618 0)
(166.85525 -0.36709297 0)
(166.89634 -0.28404599 0)
(166.9153 -0.20215809 0)
(166.91262 -0.12206698 0)
(166.88904 -0.044352532 0)
(166.84538 0.030542645 0)
(166.78257 0.10231599 0)
(166.70161 0.17077857 0)
(166.6035 0.23585571 0)
(166.48925 0.29760877 0)
(166.35981 0.35620392 0)
(166.21606 0.41190817 0)
(166.05876 0.46506953 0)
(165.88855 0.51609356 0)
(165.70591 0.5654211 0)
(165.51118 0.61350649 0)
(165.30454 0.66079111 0)
(165.08602 0.70767473 0)
(164.85555 0.75449136 0)
(164.61293 0.80149037 0)
(164.3579 0.84882111 0)
(164.09017 0.89652225 0)
(163.80946 0.94451628 0)
(163.51551 0.99260963 0)
(163.20818 1.0404986 0)
(162.8874 1.0877808 0)
(162.55328 1.1339709 0)
(162.20609 1.1785208 0)
(161.84629 1.2208421 0)
(161.47453 1.2603304 0)
(161.09165 1.2963895 0)
(160.69869 1.3284551 0)
(160.29687 1.3560155 0)
(159.88754 1.3786303 0)
(159.47219 1.3959443 0)
(159.05242 1.4076979 0)
(158.62986 1.4137325 0)
(158.20621 1.4139918 0)
(157.78314 1.4085189 0)
(157.36231 1.3974497 0)
(156.9453 1.3810038 0)
(156.53364 1.3594723 0)
(156.12872 1.3332049 0)
(155.73184 1.3025957 0)
(155.34418 1.2680687 0)
(154.96677 1.2300644 0)
(154.60052 1.1890268 0)
(154.24618 1.1453917 0)
(153.90442 1.0995766 0)
(153.57576 1.051973 0)
(153.26061 1.002939 0)
(152.95931 0.95279543 0)
(152.67207 0.90182264 0)
(152.39908 0.85025922 0)
(152.14043 0.79830243 0)
(151.89618 0.74610999 0)
(151.66637 0.69380314 0)
(151.45098 0.64147112 0)
(151.25001 0.58917689 0)
(151.06345 0.53696434 0)
(150.89127 0.48486599 0)
(150.73348 0.43291088 0)
(150.59006 0.38114227 0)
(150.46108 0.32965123 0)
(150.34671 0.27859416 0)
(150.24718 0.22811949 0)
(150.16183 0.17835229 0)
(150.09194 0.12515581 0)
(150.0399 0.079223611 0)
(150.0092 0.0386831 0)
(161.81023 0.37253116 0)
(161.64546 0.40211852 0)
(161.51002 0.42621216 0)
(161.36901 0.44460768 0)
(161.22556 0.45704896 0)
(161.08131 0.46320578 0)
(160.93793 0.46275538 0)
(160.7971 0.4554236 0)
(160.66049 0.44100441 0)
(160.52976 0.41936843 0)
(160.40658 0.39046643 0)
(160.29259 0.35433187 0)
(160.18939 0.31108084 0)
(160.09854 0.26091327 0)
(160.02151 0.20411085 0)
(159.95969 0.14103707 0)
(159.91438 0.072132715 0)
(159.88673 -0.0020821063 0)
(159.87777 -0.081026946 0)
(159.88837 -0.16405687 0)
(159.91924 -0.25046268 0)
(159.9709 -0.33947967 0)
(160.04371 -0.43029222 0)
(160.13781 -0.52204713 0)
(160.25317 -0.61386173 0)
(160.38953 -0.70483167 0)
(160.54644 -0.79404321 0)
(160.72326 -0.88058004 0)
(160.91913 -0.96353675 0)
(161.133 -1.0420258 0)
(161.36365 -1.115191 0)
(161.60965 -1.1822148 0)
(161.86943 -1.2423312 0)
(162.14126 -1.2948345 0)
(162.42325 -1.3390883 0)
(162.71341 -1.3745371 0)
(163.00963 -1.4007125 0)
(163.30973 -1.4172439 0)
(163.61144 -1.4238635 0)
(163.91247 -1.4204143 0)
(164.2105 -1.406854 0)
(164.50322 -1.3832589 0)
(164.78835 -1.3498263 0)
(165.06369 -1.3068737 0)
(165.32711 -1.2548374 0)
(165.57659 -1.1942681 0)
(165.81028 -1.1258241 0)
(166.02647 -1.0502626 0)
(166.22364 -0.96842754 0)
(166.40051 -0.88123573 0)
(166.55599 -0.7896601 0)
(166.68926 -0.69471095 0)
(166.79974 -0.59741511 0)
(166.88708 -0.49879408 0)
(166.95122 -0.39984031 0)
(166.99231 -0.30149561 0)
(167.01073 -0.2046241 0)
(167.00708 -0.1100001 0)
(166.98214 -0.018317273 0)
(166.93682 0.069909036 0)
(166.87213 0.15431426 0)
(166.78917 0.23467925 0)
(166.68902 0.31092875 0)
(166.57276 0.38314959 0)
(166.44144 0.45156065 0)
(166.29598 0.51650064 0)
(166.13721 0.57840761 0)
(165.96579 0.63779121 0)
(165.78222 0.69520417 0)
(165.58684 0.75121241 0)
(165.37979 0.80636277 0)
(165.16107 0.8611506 0)
(164.93055 0.91599074 0)
(164.68797 0.97119355 0)
(164.43299 1.0269457 0)
(164.16523 1.0832968 0)
(163.88432 1.1401533 0)
(163.58994 1.1972783 0)
(163.28184 1.2542995 0)
(162.95992 1.3107227 0)
(162.62422 1.3659524 0)
(162.27499 1.4193158 0)
(161.91265 1.4700911 0)
(161.53787 1.5175371 0)
(161.15151 1.5609234 0)
(160.75465 1.5995587 0)
(160.34853 1.6328173 0)
(159.9346 1.6601608 0)
(159.51441 1.6811559 0)
(159.08963 1.695486 0)
(158.66199 1.7029584 0)
(158.23325 1.7035048 0)
(157.80516 1.697178 0)
(157.37946 1.6841437 0)
(156.9578 1.6646681 0)
(156.54174 1.6391041 0)
(156.13274 1.6078744 0)
(155.73212 1.5714548 0)
(155.34109 1.530356 0)
(154.96068 1.4851078 0)
(154.59181 1.4362431 0)
(154.23524 1.3842838 0)
(153.89161 1.3297293 0)
(153.56144 1.2730461 0)
(153.2451 1.2146607 0)
(152.94291 1.1549535 0)
(152.65508 1.0942563 0)
(152.38173 1.0328502 0)
(152.12294 0.97096658 0)
(151.87876 0.9087892 0)
(151.64917 0.84645788 0)
(151.43416 0.78407404 0)
(151.2337 0.72170743 0)
(151.04775 0.65940452 0)
(150.87628 0.59719729 0)
(150.71931 0.53511376 0)
(150.57682 0.47319715 0)
(150.44891 0.41153008 0)
(150.33574 0.35023643 0)
(150.23753 0.28943078 0)
(150.15374 0.22926833 0)
(150.08603 0.1646624 0)
(150.03678 0.10725784 0)
(150.00838 0.053501318 0)
(161.87838 0.45922337 0)
(161.70856 0.49270311 0)
(161.56908 0.51979163 0)
(161.42381 0.54013303 0)
(161.27586 0.55342248 0)
(161.12686 0.55931908 0)
(160.97848 0.5574982 0)
(160.83245 0.54768486 0)
(160.69048 0.5296738 0)
(160.5543 0.50334091 0)
(160.42563 0.46864937 0)
(160.30617 0.4256542 0)
(160.19759 0.37450345 0)
(160.10149 0.31544027 0)
(160.01943 0.24880091 0)
(159.95285 0.17501514 0)
(159.9031 0.09459989 0)
(159.8714 0.0081649242 0)
(159.85882 -0.083610142 0)
(159.8663 -0.17997585 0)
(159.89457 -0.28010847 0)
(159.94421 -0.38312997 0)
(160.01561 -0.48810451 0)
(160.10894 -0.59405229 0)
(160.22418 -0.69996136 0)
(160.3611 -0.80479461 0)
(160.51926 -0.9075055 0)
(160.698 -1.007045 0)
(160.89648 -1.1023773 0)
(161.11363 -1.1924878 0)
(161.3482 -1.2763982 0)
(161.59874 -1.3531749 0)
(161.86364 -1.4219434 0)
(162.14111 -1.4818983 0)
(162.42924 -1.5323138 0)
(162.72596 -1.572556 0)
(163.0291 -1.602091 0)
(163.3364 -1.620496 0)
(163.64552 -1.6274665 0)
(163.95409 -1.622824 0)
(164.2597 -1.6065217 0)
(164.55996 -1.5786492 0)
(164.8525 -1.5394346 0)
(165.13502 -1.489245 0)
(165.40531 -1.4285845 0)
(165.66127 -1.35809 0)
(165.90096 -1.2785233 0)
(166.1226 -1.1907615 0)
(166.32462 -1.0957831 0)
(166.50567 -0.99465232 0)
(166.66464 -0.88849979 0)
(166.80067 -0.77850066 0)
(166.91317 -0.66585041 0)
(167.00182 -0.55173926 0)
(167.06656 -0.4373241 0)
(167.1076 -0.32370388 0)
(167.12537 -0.21188285 0)
(167.12052 -0.10277766 0)
(167.09396 0.0028146615 0)
(167.04666 0.1043104 0)
(166.97975 0.20128312 0)
(166.89441 0.29347798 0)
(166.79184 0.38082027 0)
(166.67322 0.46341074 0)
(166.53968 0.54151631 0)
(166.39224 0.61554791 0)
(166.23175 0.68603576 0)
(166.05894 0.7535976 0)
(165.87433 0.81890382 0)
(165.67823 0.88264058 0)
(165.47078 0.94547091 0)
(165.25192 1.0079965 0)
(165.02145 1.0707226 0)
(164.77903 1.1340287 0)
(164.52423 1.1981444 0)
(164.25656 1.2631339 0)
(163.97555 1.3288874 0)
(163.68078 1.3951221 0)
(163.37191 1.4613912 0)
(163.04876 1.5271011 0)
(162.71131 1.5915359 0)
(162.35976 1.6538867 0)
(161.99452 1.7132863 0)
(161.61625 1.7688449 0)
(161.22585 1.8196864 0)
(160.82442 1.8649832 0)
(160.4133 1.9039874 0)
(159.99398 1.9360573 0)
(159.56812 1.9606782 0)
(159.13747 1.9774764 0)
(158.70387 1.9862272 0)
(158.26917 1.9868552 0)
(157.83523 1.9794298 0)
(157.40384 1.9641547 0)
(156.97675 1.9413531 0)
(156.55559 1.9114502 0)
(156.14185 1.8749534 0)
(155.7369 1.8324312 0)
(155.34197 1.7844925 0)
(154.95812 1.7317668 0)
(154.58626 1.6748857 0)
(154.22715 1.6144661 0)
(153.8814 1.5510965 0)
(153.54952 1.4853252 0)
(153.23187 1.4176518 0)
(152.92871 1.3485204 0)
(152.64022 1.2783162 0)
(152.3665 1.2073639 0)
(152.10759 1.1359281 0)
(151.8635 1.0642162 0)
(151.63418 0.99238217 0)
(151.41959 0.92053282 0)
(151.21967 0.84873472 0)
(151.03438 0.77702285 0)
(150.86366 0.70540989 0)
(150.70752 0.63389775 0)
(150.56595 0.56249566 0)
(150.43906 0.49123633 0)
(150.32702 0.42017482 0)
(150.23005 0.34936621 0)
(150.14772 0.27893973 0)
(150.08187 0.20278293 0)
(150.03471 0.13374789 0)
(150.00787 0.06723243 0)
(161.9597 0.54832763 0)
(161.78438 0.58636247 0)
(161.64023 0.61713863 0)
(161.48996 0.64014771 0)
(161.33673 0.65501126 0)
(161.18215 0.66134983 0)
(161.02793 0.65881534 0)
(160.87585 0.6471166 0)
(160.72766 0.626038 0)
(160.58515 0.59545216 0)
(160.45012 0.55532782 0)
(160.32433 0.50573602 0)
(160.20951 0.44685232 0)
(160.10736 0.37895981 0)
(160.01949 0.30244714 0)
(159.94741 0.21780944 0)
(159.89255 0.12564042 0)
(159.85619 0.026640698 0)
(159.83947 -0.078407732 0)
(159.84336 -0.18864685 0)
(159.86868 -0.30313268 0)
(159.91604 -0.42085622 0)
(159.98585 -0.54074399 0)
(160.07833 -0.6616748 0)
(160.19349 -0.78249205 0)
(160.33111 -0.9020127 0)
(160.49075 -1.0190448 0)
(160.67177 -1.132395 0)
(160.87331 -1.2408866 0)
(161.09427 -1.3433681 0)
(161.33339 -1.43873 0)
(161.58919 -1.5259145 0)
(161.86 -1.603931 0)
(162.144 -1.6718677 0)
(162.43919 -1.7289029 0)
(162.74347 -1.774319 0)
(163.05457 -1.8075115 0)
(163.37016 -1.8280014 0)
(163.6878 -1.8354434 0)
(164.00504 -1.829635 0)
(164.31936 -1.8105233 0)
(164.62828 -1.7782098 0)
(164.92932 -1.7329545 0)
(165.22009 -1.6751755 0)
(165.49826 -1.6054483 0)
(165.76164 -1.5245008 0)
(166.0082 -1.4332052 0)
(166.23609 -1.3325672 0)
(166.44365 -1.2237107 0)
(166.62947 -1.1078602 0)
(166.7924 -0.98631836 0)
(166.93155 -0.8604414 0)
(167.04631 -0.73161103 0)
(167.13638 -0.60120467 0)
(167.20172 -0.47056269 0)
(167.24258 -0.34095971 0)
(167.25948 -0.21355917 0)
(167.25315 -0.089437284 0)
(167.22458 0.030497411 0)
(167.17487 0.14557657 0)
(167.10527 0.25530768 0)
(167.01708 0.35940638 0)
(166.91162 0.45780747 0)
(166.79021 0.55064879 0)
(166.65406 0.63826203 0)
(166.50427 0.72114776 0)
(166.34181 0.79994681 0)
(166.16741 0.87540381 0)
(165.98163 0.94832544 0)
(165.78477 1.0195363 0)
(165.57695 1.0898327 0)
(165.35804 1.1599378 0)
(165.12776 1.2304599 0)
(164.88566 1.3018569 0)
(164.63121 1.3744076 0)
(164.36379 1.4481929 0)
(164.08281 1.5230857 0)
(163.78773 1.5987521 0)
(163.47809 1.6746622 0)
(163.15362 1.7501111 0)
(162.81423 1.8242478 0)
(162.46007 1.8961117 0)
(162.09152 1.9646725 0)
(161.70925 2.0288745 0)
(161.31418 2.0876792 0)
(160.90747 2.1401068 0)
(160.49053 2.1852737 0)
(160.06495 2.2224235 0)
(159.63249 2.2509516 0)
(159.19501 2.2704215 0)
(158.75447 2.2805733 0)
(158.31283 2.281324 0)
(157.87207 2.2727613 0)
(157.43408 2.2551305 0)
(157.00068 2.2288168 0)
(156.57358 2.1943239 0)
(156.15435 2.1522501 0)
(155.7444 2.1032639 0)
(155.34497 2.0480788 0)
(154.95716 1.9874307 0)
(154.58186 1.9220555 0)
(154.21983 1.8526705 0)
(153.87168 1.7799584 0)
(153.53787 1.7045534 0)
(153.21874 1.6270317 0)
(152.9145 1.5479047 0)
(152.62531 1.4676142 0)
(152.35122 1.3865315 0)
(152.09224 1.3049581 0)
(151.84831 1.2231286 0)
(151.61937 1.1412158 0)
(151.40534 1.0593368 0)
(151.20612 0.97756164 0)
(151.02165 0.89592129 0)
(150.85185 0.81441801 0)
(150.6967 0.73303678 0)
(150.5562 0.65176061 0)
(150.43047 0.57058011 0)
(150.31963 0.48949274 0)
(150.22394 0.40849576 0)
(150.14303 0.32765304 0)
(150.0788 0.23978183 0)
(150.03325 0.15911222 0)
(150.00751 0.080247115 0)
(162.05233 0.64022749 0)
(161.87077 0.68265832 0)
(161.72132 0.71693702 0)
(161.56539 0.74243738 0)
(161.40615 0.75870944 0)
(161.24526 0.7653268 0)
(161.08446 0.76190955 0)
(160.92556 0.74814464 0)
(160.77037 0.72380293 0)
(160.62077 0.68875243 0)
(160.4786 0.64296715 0)
(160.34572 0.58653475 0)
(160.22393 0.51965941 0)
(160.11501 0.44266577 0)
(160.02064 0.35599701 0)
(159.94243 0.26021601 0)
(159.88186 0.15599624 0)
(159.84031 0.044131616 0)
(159.81898 -0.074489964 0)
(159.8189 -0.19889881 0)
(159.84095 -0.32802815 0)
(159.88578 -0.46074181 0)
(159.95386 -0.59583697 0)
(160.04545 -0.7320527 0)
(160.16056 -0.86809127 0)
(160.29901 -1.0026238 0)
(160.46038 -1.1343124 0)
(160.644 -1.261818 0)
(160.84901 -1.3838203 0)
(161.07431 -1.4990275 0)
(161.3186 -1.6061948 0)
(161.58034 -1.7041357 0)
(161.85785 -1.7917387 0)
(162.14923 -1.8679802 0)
(162.45242 -1.9319374 0)
(162.76524 -1.9828035 0)
(163.08534 -2.0198983 0)
(163.41029 -2.0426816 0)
(163.73757 -2.050763 0)
(164.0646 -2.0439122 0)
(164.38878 -2.0220665 0)
(164.70749 -1.9853372 0)