/*--------------------------------*- C++ -*----------------------------------*\
| =========                 |                                                 |
| \\      /  F ield         | foam-extend: Open Source CFD                    |
|  \\    /   O peration     | Version:     4.1                                |
|   \\  /    A nd           | Web:         http://www.foam-extend.org         |
|    \\/     M anipulation  |                                                 |
\*---------------------------------------------------------------------------*/
FoamFile
{
    version     2.0;
    format      ascii;
    class       volScalarField;
    location    "0.7";
    object      p;
}
// * * * * * * * * * * * * * * * * * * * * * * * * * * * * * * * * * * * * * //

dimensions      [0 2 -2 0 0 0 0];

internalField   nonuniform List<scalar> 
4393
(
-46.414062
-92.97234
-146.73142
-201.51663
-258.50129
-317.99606
-380.38382
-445.97408
-514.99109
-587.54496
-663.60368
-742.96484
-825.23037
-909.78777
-995.80189
-1082.2203
-1167.7926
-1251.1015
-1330.6003
-1404.6517
-1471.5646
-1529.6289
-1577.1502
-1612.4907
-1634.123
-1640.7041
-1631.1796
-1604.9297
-1561.8474
-1502.4327
-1427.8969
-1340.1451
-1241.6717
-1135.3768
-1024.3408
-911.59822
-799.94827
-691.82345
-589.22074
-493.68822
-406.35325
-327.97685
-259.01953
-199.70713
-150.10098
-110.17011
-79.695178
-57.765627
-43.561873
-45.161903
-92.386557
-146.0189
-200.6529
-257.46847
-316.80847
-379.0694
-444.57286
-513.55493
-586.13779
-662.30101
-741.85226
-824.40053
-909.33579
-995.81968
-1082.7908
-1168.985
-1252.9686
-1333.1781
-1407.9602
-1475.6094
-1534.4006
-1582.623
-1618.6171
-1640.8266
-1647.8748
-1638.6723
-1612.5241
-1569.2597
-1509.3724
-1434.0788
-1345.3192
-1245.6535
-1138.0676
-1025.732
-911.76107
-799.01408
-689.96021
-586.61088
-490.51078
-402.7716
-324.1318
-255.02923
-195.67693
-146.12773
-106.29031
-75.893833
-54.796292
-44.198664
-44.357679
-91.489887
-144.76075
-199.03402
-255.4988
-314.52759
-376.53901
-441.87692
-510.80054
-583.45574
-659.84494
-739.79542
-822.92952
-908.64105
-996.08373
-1084.1762
-1171.6249
-1256.9616
-1338.5882
-1414.8194
-1483.9209
-1544.1401
-1593.7335
-1630.9988
-1654.319
-1662.2375
-1653.5762
-1627.5571
-1583.9181
-1523.0805
-1446.2552
-1355.4518
-1253.3668
-1143.1647
-1028.2019
-911.75611
-796.80676
-685.8934
-581.05156
-483.81339
-395.25296
-316.0571
-246.60985
-187.08055
-137.4786
-97.61864
-67.190696
-46.637169
-37.855185
-43.566996
-90.194258
-142.85722
-196.55205
-252.47287
-311.02079
-372.64325
-437.71609
-506.53331
-579.27729
-655.98627
-736.51896
-820.5198
-907.39011
-996.27246
-1086.0551
-1175.399
-1262.7825
-1346.5543
-1424.9818
-1496.2896
-1558.6865
-1610.3848
-1649.6212
-1674.6906
-1684.0141
-1676.2674
-1650.5214
-1606.3657
-1544.1151
-1464.9673
-1371.038
-1265.2407
-1151.0245
-1032.0424
-911.82826
-793.54778
-679.84625
-572.79191
-473.89312
-384.16271
-304.20676
-234.32553
-174.61316
-125.00398
-85.22304
-54.956026
-34.869479
-26.7259
-42.74192
-88.576999
-140.38709
-193.2777
-248.45057
-306.33766
-367.42187
-432.12056
-500.77431
-573.61539
-650.73184
-732.02694
-817.17739
-905.59652
-996.41214
-1088.4697
-1180.3649
-1270.5005
-1357.151
-1438.5203
-1512.7812
-1578.096
-1632.6244
-1674.5288
-1701.9911
-1713.2707
-1706.8415
-1681.5537
-1636.7714
-1572.6413
-1490.3276
-1392.0911
-1281.1573
-1161.3891
-1036.8659
-911.4855
-788.66991
-671.20304
-561.1874
-460.08741
-368.82259
-287.88228
-217.44779
-157.504
-107.88365
-68.229493
-38.234825
-18.619875
-10.864014
-41.733414
-86.52801
-137.23886
-189.09428
-243.30488
-300.33777
-360.71864
-424.91662
-493.3319
-566.26189
-643.86099
-726.09336
-812.68154
-903.05799
-996.33287
-1091.2942
-1186.4486
-1280.0955
-1370.411
-1455.5187
-1533.5307
-1602.5597
-1660.7103
-1706.0614
-1736.6595
-1750.5589
-1745.9655
-1721.4265
-1675.9844
-1609.5307
-1523.1579
-1419.3128
-1301.6531
-1174.6193
-1042.8806
-910.82682
-782.21448
-659.99544
-546.29814
-442.51073
-349.41534
-267.33786
-196.29569
-136.12295
-86.518246
-47.024897
-17.305344
1.9572912
9.4955636
-40.591585
-84.118552
-133.47739
-184.05092
-237.06309
-293.02214
-352.50424
-416.04111
-484.10666
-557.08061
-635.20323
-718.5198
-806.81671
-899.55652
-995.82988
-1094.3497
-1193.5031
-1291.451
-1386.2416
-1475.9002
-1558.4734
-1632.029
-1694.6229
-1744.2515
-1778.8099
-1796.1052
-1793.9984
-1770.6323
-1724.5981
-1655.4038
-1564.0011
-1453.0654
-1326.8413
-1190.5642
-1049.7036
-909.29812
-773.52522
-645.52742
-527.43635
-420.51561
-325.35234
-242.05248
-170.41937
-110.09464
-60.613211
-21.397027
7.9655741
26.88372
34.250433
-39.182184
-81.197217
-128.94312
-177.98308
-229.553
-284.20739
-342.58057
-405.27806
-472.8629
-545.81669
-624.48868
-709.03054
-799.3167
-894.85626
-994.72049
-1097.5252
-1201.4973
-1304.6123
-1404.7525
-1499.8253
-1587.8122
-1666.7496
-1734.6647
-1789.4841
-1828.9465
-1850.5712
-1851.7884
-1830.2129
-1783.8126
-1711.5228
-1614.0356
-1494.2938
-1357.3379
-1209.4941
-1057.3111
-906.67103
-762.26547
-627.43608
-504.27113
-393.83662
-296.44601
-211.91341
-139.76812
-79.413203
-30.188755
8.6271224
37.549408
56.101621
63.305824
-37.649781
-77.922981
-123.78414
-171.01514
-220.8672
-273.94673
-330.95371
-392.57919
-459.49221
-532.29882
-611.4852
-697.34167
-789.86391
-888.6334
-992.70672
-1100.5759
-1210.2526
-1319.463
-1425.8735
-1527.2521
-1621.522
-1706.7167
-1780.8708
-1841.8738
-1887.3166
-1914.3975
-1920.02
-1901.1201
-1854.814
-1779.1849
-1674.4629
-1543.8852
-1393.5775
-1231.3737
-1065.279
-902.26354
-747.63013
-604.90393
-476.04882
-361.82717
-262.17445
-176.52368
-104.06017
-43.897548
4.8532428
43.082594
71.431484
89.549387
96.571648
-35.745277
-73.997247
-117.67997
-162.81469
-210.65991
-261.87675
-317.23715
-377.52927
-443.54626
-516.04422
-595.67944
-682.92126
-777.93153
-880.40298
-989.38952
-1103.2256
-1219.6306
-1335.9899
-1449.6843
-1558.3169
-1659.7703
-1752.122
-1833.4758
-1901.7424
-1954.3974
-1988.2981
-1999.7218
-1984.7453
-1939.336
-1860.3159
-1747.1099
-1603.2453
-1436.3428
-1256.3487
-1073.2432
-895.39133
-728.79761
-577.11251
-442.04223
-323.89389
-222.08775
-135.56651
-63.092102
-3.4352622
44.555567
81.960419
109.56131
127.1413
133.94446
-33.795327
-69.799189
-111.01661
-153.75219
-199.27425
-248.30144
-301.68274
-360.31408
-425.13152
-497.06987
-576.99469
-665.60468
-763.28889
-869.91103
-984.5496
-1105.3419
-1229.6079
-1354.2611
-1476.3006
-1593.1369
-1702.6474
-1803.0276
-1892.5438
-1969.2214
-2030.4853
-2072.8522
-2091.8821
-2082.5751
-2039.3741
-1957.2454
-1834.2312
-1674.0663
-1486.4664
-1284.3902
-1080.5171
-884.98895
-704.57592
-542.92406
-401.27179
-279.2579
-175.60933
-88.646686
-16.619591
42.099047
88.95425
125.23159
151.86188
168.76639
175.29861
-31.319578
-64.741773
-103.1535
-143.1525
-185.99879
-232.46627
-283.48358
-340.06412
-403.30657
-474.35706
-554.33708
-644.23748
-744.75694
-856.0216
-977.1884
-1106.1525
-1239.6794
-1374.0137
-1505.6303
-1631.7104
-1750.1827
-1859.4682
-1958.1275
-2044.443
-2115.9035
-2168.7243
-2197.6887
-2196.464
-2157.5126
-2073.1145
-1938.9487
-1758.7033
-1545.0834
-1315.4454
-1086.1866
-869.69194
-673.49364
-500.98582
-352.61743
-227.06483
-122.13544
-35.373406
35.578964
92.798936
138.04958
172.83008
198.22011
214.28072
220.47771
-28.932518
-59.569138
-94.888698
-131.83374
-171.65795
-215.1882
-263.43229
-317.52705
-378.75117
-448.49556
-528.18937
-619.18863
-722.60719
-838.96839
-967.6062
-1106.1272
-1250.5173
-1396.0563
-1538.4875
-1674.7295
-1802.8699
-1921.7238
-2030.3372
-2127.4603
-2210.8365
-2276.4662
-2318.2945
-2328.4334
-2296.8639
-2211.9724
-2065.4446
-1860.2927
-1613.5733
-1349.2481
-1088.8693
-847.61259
-633.62344
-449.60678
-294.74018
-166.33952
-61.012199
24.648336
93.702441
148.72129
191.79928
224.64593
248.48058
263.50087
269.28753
-25.831555
-53.288134
-85.124968
-118.62187
-154.99337
-195.10781
-240.04621
-291.071
-349.65668
-417.47609
-496.32742
-588.02098
-694.22488
-816.0658
-953.2429
-1103.0516
-1260.3774
-1419.0844
-1573.8718
-1721.3575
-1859.9573
-1989.1037
-2108.5524
-2217.7873
-2315.0894
-2396.4129
-2454.8425
-2480.771
-2461.2567
-2379.1887
-2219.5416
-1983.2125
-1693.7036
-1385.2485
-1086.5621
-816.20787
-582.50727
-386.7383
-226.10041
-96.0226
8.4235024
91.780621
157.89692
209.86372
250.10229
280.51415
302.43754
316.1973
321.48958
-22.986016
-47.101186
-75.187249
-104.92122
-137.47945
-173.76298
-214.9174
-262.32716
-317.67213
-382.94133
-460.36635
-552.30615
-661.14326
-788.89486
-935.9455
-1099.2966
-1272.2399
-1446.4926
-1615.2105
-1774.6743
-1923.9305
-2063.3833
-2193.8158
-2315.8456
-2428.7829
-2528.8789
-2608.4
-2655.9108
-2655.2616
-2581.851
-2409.45
-2133.6822
-1787.6911
-1422.3682
-1076.3074
-772.01527
-517.00064
-309.91128
-144.95412
-14.996195
86.808835
166.31861
228.22732
276.14282
312.78315
340.20374
359.82734
372.08846
376.79581
-19.232068
-39.562517
-63.478318
-89.020682
-117.27475
-149.14679
-185.82339
-228.79237
-279.9331
-341.57658
-416.45665
-507.58503
-618.24347
-751.75132
-909.76015
-1089.1588
-1280.9565
-1473.6019
-1657.9799
-1830.0744
-1990.134
-2140.0672
-2282.0038
-2418.0857
-2549.2504
-2672.4729
-2779.1977
-2856.1371
-2884.1677
-2829.3036
-2647.0053
-2320.8674
-1898.3282
-1458.6637
-1053.7426
-710.3371
-433.12334
-216.21072
-49.393603
77.852491
174.69253
248.43923
304.63939
347.36782
379.57454
403.40672
420.3214
430.83608
434.86467
-15.90795
-32.364526
-51.8853
-72.940302
-96.520084
-123.51916
-155.14666
-192.97697
-239.0814
-296.15965
-367.531
-456.97484
-568.85121
-708.30718
-879.23171
-1078.8812
-1294.9093
-1510.5698
-1713.2125
-1898.5358
-2068.8943
-2228.4214
-2380.826
-2530.1714
-2680.0764
-2829.2965
-2968.8745
-3084.0434
-3153.8136
-3133.7376
-2949.703
-2558.9274
-2029.0945
-1490.7336
-1012.3917
-624.80679
-325.89446
-102.28294
62.569686
183.53312
272.44992
338.13748
386.91588
423.21242
450.10021
469.72825
483.52094
492.04229
495.29915
-11.482905
-23.58975
-38.292409
-54.435332
-72.843294
-94.356244
-120.15997
-151.86096
-191.66083
-242.59211
-308.59988
-394.3131
-505.26722
-649.0219
-833.31015
-1056.9884
-1302.8609
-1545.852
-1767.9123
-1964.7421
-2142.7057
-2309.5864
-2470.9876
-2633.2808
-2804.4028
-2986.4414
-3170.026
-3338.1847
-3469.6025
-3510.9659
-3343.8595
-2870.5474
-2183.9289
-1512.6939
-942.60327
-506.84821
-189.2037
35.572031
192.84337
302.79991
380.16689
435.1478
474.62756
503.18614
523.85947
538.67915
548.95403
555.24915
557.64708
-7.5449695
-15.398419
-25.213486
-36.27148
-49.206428
-64.764852
-84.063449
-108.6899
-140.91887
-184.08975
-242.87294
-322.93971
-431.08913
-577.8829
-777.47952
-1033.1595
-1320.7286
-1601.1081
-1847.6821
-2056.4331
-2241.0236
-2414.913
-2585.0752
-2759.1657
-2951.1191
-3168.4424
-3401.4989
-3630.3319
-3839.6095
-3979.1346
-3867.7192
-3293.8557
-2367.641
-1515.2723
-830.15357
-345.05211
-15.788866
201.16008
342.97781
435.93158
497.49175
538.85431
567.08303
586.60881
600.21586
609.67237
616.07623
619.94119
621.40444
-2.4941524
-5.6565045
-10.10718
-15.57624
-22.447492
-31.344347
-43.274426
-59.747389
-83.00683
-116.55512
-165.73524
-237.33158
-339.12982
-484.56476
-697.61207
-991.9079
-1333.6166
-1659.4328
-1929.8789
-2141.8805
-2322.8204
-2495.2558
-2666.4056
-2842.7768
-3048.6055
-3302.7966
-3598.7222
-3913.842
-4241.0589
-4552.8743
-4582.6876
-3903.1704
-2589.0626
-1483.0336
-653.29504
-124.24897
202.58059
397.90196
513.72516
582.43103
623.45842
648.19726
663.28449
672.59294
678.39305
682.02537
684.27575
685.55184
686.0221
2.9594959
3.9720252
4.5436633
4.3686922
3.3821681
1.1490196
-3.1254919
-10.727883
-23.652925
-45.256191
-81.361371
-140.10663
-230.23037
-367.31382
-589.76522
-934.77129
-1357.7022
-1750.5189
-2054.6561
-2266.6344
-2439.5673
-2611.1756
-2788.1617
-2968.9765
-3193.5041
-3499.61
-3882.9106
-4312.7163
-4763.533
-5291.1504
-5573.4347
-4825.0021
-2837.0267
-1376.0501
-376.79691
174.99644
474.20984
627.87716
704.37067
740.64344
756.29646
761.59089
761.89961
760.04024
757.48149
754.97005
752.88408
751.47376
750.91601
8.2840952
13.261148
19.316594
25.148532
31.009168
36.664975
41.581621
44.750098
44.499656
37.793697
18.452691
-23.530129
-98.121786
-220.04635
-443.83331
-853.32474
-1397.14
-1876.2618
-2210.512
-2392.5556
-2530.1264
-2685.2759
-2862.2809
-3027.329
-3238.1827
-3573.1035
-4023.3075
-4561.3514
-5089.3186
-5959.9615
-6823.2905
-6299.0843
-3073.701
-1170.7494
36.62539
572.72747
805.05704
890.20214
911.8172
907.32842
893.26567
876.87837
861.2643
847.6599
836.45909
827.67181
821.19243
817.07341
815.48092
17.842927
25.857381
36.755939
47.710552
59.404412
71.786587
84.614742
97.240416
108.50432
116.22029
114.95556
93.709439
41.626867
-49.486589
-244.54628
-714.97329
-1441.7146
-2033.4677
-2413.1584
-2545.288
-2642.7299
-2786.738
-2981.5084
-3113.119
-3276.1822
-3677.2491
-4223.9529
-4961.298
-5678.8941
-7242.4292
-8881.6099
-9067.813
-3577.7502
-1037.992
635.29495
1099.142
1197.3761
1178.9914
1129.5317
1077.288
1030.5838
991.3606
959.4336
934.01561
914.22897
899.25841
888.47416
881.70938
879.10731
22.150909
30.888327
46.12457
62.220968
80.149639
100.0822
122.26246
146.71537
173.22915
201.20667
227.38863
240.6926
225.94921
180.38112
45.550542
-483.09285
-1555.0439
-2311.4502
-2773.5986
-2770.3456
-2749.5039
-2812.7575
-3021.9017
-3099.3486
-3206.6824
-3762.7984
-4232.578
-5184.8101
-6470.4246
-7863.0007
-9588.6411
-12102.914
-4822.6792
-72.331547
1722.8852
1811.998
1641.1429
1478.7536
1346.2191
1243.1905
1163.5429
1101.9412
1054.2955
1017.6054
989.67374
968.85758
954.01184
944.75356
941.20023
36.942839
46.52967
66.451204
87.299807
110.72907
137.05406
166.87936
200.69018
238.82884
281.6293
327.54366
365.31984
371.77446
347.23812
293.86002
-190.88152
-1817.9341
-2616.8988
-3115.5685
-2771.5529
-2627.0513
-2732.1893
-3130.5291
-3270.256
-3301.95
0
0
0
0
0
0
0
0
6202.3662
3402.4383
2582.472
2068.2133
1755.8337
1545.0996
1396.063
1286.9764
1205.4304
1143.7535
1096.9711
1061.7232
1035.6406
1017.1271
1005.6136
1001.1992
35.372795
42.175372
64.0138
87.052866
113.17535
142.70279
176.53489
215.62434
261.01418
314.35685
377.51826
445.90572
502.67926
560.71925
710.87345
553.24852
-1996.5988
-2776.6794
-3648.0341
-2967.6019
-3044.0041
-3012.2798
0
0
0
0
0
0
0
0
0
0
10129.336
6286.1218
4123.8788
3000.2649
2361.2628
1969.1337
1709.0087
1527.5255
1396.2503
1299.0089
1225.9598
1170.8238
1129.4262
1098.8665
1077.21
1063.7545
1058.5972
44.270204
54.944471
80.937708
106.95777
136.12733
169.00172
206.83422
251.05531
303.44964
367.01875
447.05714
546.02342
653.17354
754.26053
842.42406
568.41399
-3108.7243
-3580.9683
-3204.8972
0
0
0
0
0
0
0
0
0
0
0
1780.2873
3364.2069
5755.8408
5235.9239
3961.2638
3100.0798
2507.071
2107.6785
1830.5998
1632.9426
1488.384
1380.688
1299.529
1238.1545
1192.0137
1157.9209
1133.7447
1118.718
1112.9571
22.192056
42.159865
66.355812
91.260993
118.71963
149.50553
184.69221
225.44421
273.06012
329.74776
399.41164
477.89998
537.31023
535.89956
557.76988
702.57864
0
0
0
0
0
0
-1132.3423
-1103.7999
-1011.5865
-917.84456
-790.38381
-495.60923
-95.272218
696.74796
2026.0812
3361.5649
4750.7289
4489.6755
3714.6633
3058.5774
2552.5758
2182.1438
1911.3784
1711.601
1562.2992
1449.4805
1363.6439
1298.2987
1248.9389
1212.3422
1186.3283
1170.1363
1163.9248
19.956819
50.011957
74.952128
100.517
127.92621
158.01251
191.42601
228.60089
269.49606
313.32871
357.79553
396.44677
406.00306
337.86654
141.68942
-338.48808
-1284.7817
-1227.7867
-1147.3942
-1100.7603
-1051.3569
-1021.8852
-1010.6442
-803.57162
-838.96688
-583.46572
-362.63452
-204.91789
258.77339
904.53682
1959.976
3049.0242
3956.3237
3851.7064
3404.146
2933.4725
2528.3578
2205.9263
1956.6255
1765.3519
1618.4644
1505.3211
1418.0494
1350.9481
1299.8913
1261.834
1234.6803
1217.7411
1211.2368
20.663853
46.477308
72.103795
97.946552
125.25214
154.77154
187.08571
222.56099
261.18362
302.04529
341.9284
373.60799
384.67253
352.99397
205.03799
-228.14272
-792.57739
-921.23335
-962.82192
-966.42276
-888.07336
-842.59113
-818.81705
-692.06978
-621.21593
-417.81427
-179.42111
77.458754
510.59693
1096.1709
1895.8932
2721.3136
3334.6521
3356.6332
3105.4971
2777.0085
2463.2425
2193.7102
1973.5091
1797.599
1658.441
1548.8758
1462.9756
1396.1206
1344.7862
1306.2624
1278.644
1261.3654
1254.7229
14.98751
36.213471
58.770782
81.255391
104.2453
127.97947
152.46321
177.33645
201.69698
223.58075
238.76982
240.03067
218.06832
159.00491
14.849338
-284.15719
-607.16589
-732.72823
-784.78163
-794.54868
-753.38768
-703.7383
-642.49964
-538.02827
-424.15415
-238.51267
-11.770921
269.60809
668.33022
1187.4432
1822.9684
2450.6403
2889.2951
2966.8648
2834.8069
2612.8591
2376.0578
2157.5676
1969.0916
1812.298
1684.392
1581.3018
1499.0211
1434.1035
1383.7367
1345.6427
1318.1799
1300.9409
1294.3045
23.834743
46.435359
70.172173
93.629663
117.50841
141.9153
166.66969
191.14266
214.01509
232.71974
242.57239
236.53959
205.83588
135.22006
-7.459511
-236.77512
-460.39665
-580.05469
-635.63535
-644.79444
-616.08926
-568.54873
-497.53829
-394.71888
-264.60955
-83.194978
138.89691
415.8475
776.75994
1223.5071
1735.2522
2221.5033
2557.0119
2658.3676
2599.4544
2454.6991
2280.0478
2107.007
1949.6455
1813.3743
1698.7072
1604.0299
1527.0302
1465.3855
1417.0161
1380.118
1353.3531
1336.4896
1329.9879
12.011248
29.906783
50.001829
69.995743
89.990909
109.86651
129.3142
147.66297
163.66382
175.07148
178.18883
167.91728
137.47545
74.472603
-40.25415
-203.72428
-359.03738
-456.98538
-506.3216
-514.47919
-489.17795
-440.25537
-365.94059
-262.85376
-128.79277
46.708747
261.59796
524.93391
849.41803
1232.0843
1648.3908
2032.5744
2301.737
2411.3926
2397.9578
2308.3844
2183.0244
2048.8293
1920.2765
1804.3645
1703.7379
1618.5882
1547.9824
1490.5886
1445.0161
1409.9333
1384.3169
1368.1127
1361.855
21.401277
40.619788
60.832491
80.336611
99.412369
117.79151
134.96025
150.026
161.53979
167.21969
163.82544
147.41127
112.92543
52.099717
-43.748011
-165.82246
-279.22312
-356.35296
-395.92382
-400.69442
-375.42817
-324.96873
-248.91914
-145.52941
-12.022168
156.54357
360.80982
605.77305
895.70467
1224.173
1567.6312
1878.2849
2101.7907
2211.9991
2226.9761
2176.6069
2089.7047
1987.9414
1884.9844
1788.2835
1701.6426
1626.4775
1562.9039
1510.4083
1468.2074
1435.4093
1411.2952
1395.9774
1390.0519
11.851294
27.947583
45.929037
63.571187
80.769977
97.170847
112.24452
125.13823
134.52084
138.40001
134.10097
118.41994
87.347251
35.50878
-40.188298
-130.63183
-213.7364
-272.05084
-301.07527
-300.8573
-273.69635
-221.87095
-145.27115
-42.751993
87.752204
248.666
440.77118
666.05895
924.33515
1207.5
1494.9502
1751.9468
1942.4266
2049.5777
2082.3047
2059.7825
2002.5361
1927.5033
1846.7295
1767.5806
1694.3059
1629.0913
1572.8022
1525.5651
1487.1046
1456.9176
1434.564
1420.3027
1414.7764
17.132058
33.221241
50.194154
66.328829
81.667819
95.82918
108.26012
118.1408
124.28901
125.07771
118.49009
102.22547
73.539026
29.458615
-30.169729
-97.575834
-158.34095
-200.67503
-219.60429
-213.75879
-183.78602
-130.5745
-53.997943
46.725005
172.86917
325.53989
504.93866
711.01157
941.18644
1186.9311
1431.0116
1648.1017
1813.7347
1916.3099
1960.0484
1957.341
1922.8166
1869.5619
1807.7131
1744.1955
1683.319
1627.6738
1578.623
1536.7676
1502.2376
1474.8585
1454.4341
1441.3457
1436.2649
11.954045
26.345387
42.073912
57.176328
71.48516
84.572459
95.883081
104.64375
109.80218
110.00442
103.67965
89.140564
64.60831
28.743731
-17.196178
-66.892027
-110.44862
-139.43566
-149.20791
-137.76994
-104.77058
-50.305585
25.839523
124.16871
245.3148
389.5542
556.41675
744.55888
950.24311
1165.2527
1375.4897
1562.3329
1708.7335
1806.2679
1856.7194
1868.1414
1850.9847
1815.3075
1769.4418
1719.6063
1669.9846
1623.3017
1581.225
1544.6875
1514.1289
1489.6422
1471.2367
1459.3883
1454.7805
13.662676
27.341203
41.843048
55.511776
68.266066
79.710518
89.343403
96.497325
100.31115
99.740327
93.642036
80.872522
60.411789
31.93792
-2.7620337
-38.660321
-68.695093
-86.609117
-88.318101
-71.644693
-35.70733
19.832965
95.255781
190.84849
306.77509
442.74729
597.73765
769.64236
954.26566
1144.0866
1327.6883
1491.2042
1622.4155
1714.9766
1769.3887
1790.9055
1787.0187
1765.4391
1732.9439
1694.9365
1655.3489
1616.8859
1581.3676
1549.9431
1523.2778
1501.6746
1485.3093
1474.7257
1470.6024
11.342565
24.00784
37.614834
50.45998
62.38124
72.984824
81.80694
88.267437
91.664273
91.204066
86.085141
75.599318
59.300215
37.493219
12.106794
-12.832104
-32.085797
-40.841935
-35.608468
-14.246672
24.362247
80.771725
155.2793
247.99769
358.75677
486.87853
630.94193
788.44347
955.13375
1124.3269
1286.7955
1432.0514
1551.0924
1639.0026
1695.6113
1724.3468
1730.6012
1720.2844
1698.8818
1671.0028
1640.2341
1609.1821
1579.7091
1553.091
1530.1491
1511.3454
1496.9859
1487.6567
1484.0156
11.396867
23.276496
35.893476
47.71385
58.61499
68.242906
76.195181
81.992034
85.086216
84.902155
80.91307
72.744195
60.345124
44.366646
26.681006
10.544944
-0.022608687
-1.221065
9.9060978
35.349191
76.289621
133.36088
206.83987
296.69797
402.52906
523.39158
657.61893
802.54476
954.08611
1106.3941
1251.9838
1382.7819
1491.9789
1575.6779
1633.3637
1667.2627
1681.2726
1679.9308
1667.6669
1648.3801
1625.2723
1600.8043
1576.8085
1554.6219
1535.1662
1519.0198
1506.5877
1498.4749
1495.3036
10.33276
21.495187
33.387906
44.519466
54.753922
63.766832
71.212094
76.70214
79.826544
80.193774
77.501141
71.631679
62.808745
51.86623
40.548099
31.531647
28.000321
33.017175
49.085571
78.00327
120.9166
178.45889
250.86101
337.98
439.24497
553.54427
679.08041
813.17191
952.00803
1090.5084
1222.5539
1341.8122
1443.0016
1522.968
1581.0301
1618.6152
1638.5534
1644.3405
1639.5554
1627.4885
1610.9608
1592.2548
1573.1398
1554.9646
1538.7088
1525.0335
1514.4171
1507.4629
1504.7418
9.9298289
20.456384
31.639676
42.088796
51.688128
60.150516
67.185933
72.490266
75.769114
76.779265
75.39165
71.677535
66.037425
59.386809
53.320148
50.079452
52.252925
62.357801
82.52263
114.34499
158.88717
216.73813
288.0697
372.64677
469.78525
578.27156
696.25823
821.1344
949.39792
1076.6385
1197.7978
1307.8096
1402.4767
1479.1957
1537.215
1577.4266
1601.895
1613.3283
1614.6278
1608.5719
1597.6359
1583.9099
1569.0805
1554.4768
1541.1059
1529.6859
1520.7509
1514.8868
1512.5935
9.3456217
19.344538
29.977475
39.914879
49.049705
57.128878
63.914382
69.176598
72.719983
74.422227
74.2899
72.532215
69.662104
66.619953
64.85864
66.291257
73.073075
87.311898
110.83126
145.04051
190.8987
248.92977
319.24286
401.5293
495.02906
598.47427
710.01978
827.1685
946.72223
1064.8345
1177.2646
1279.8737
1369.245
1443.1868
1500.9282
1542.9997
1570.9154
1586.7904
1592.992
1591.8758
1585.6164
1576.1182
1564.9764
1553.4843
1542.6552
1533.2466
1525.8398
1520.9936
1519.1085
8.9241007
18.465764
28.619156
38.118905
46.870549
54.652599
61.272617
66.563703
70.410544
72.785587
73.797689
73.753623
73.234455
73.175279
74.904339
80.08558
90.555516
108.113
134.33699
170.47045
217.36789
275.48246
344.86339
425.14414
515.51528
614.68629
720.84435
831.62104
944.09449
1054.8791
1160.3599
1257.0789
1342.186
1413.7983
1471.1509
1514.53
1545.0543
1564.3949
1574.5044
1577.3968
1574.9934
1569.0311
1561.0126
1552.1893
1543.5651
1535.9223
1529.8901
1526.0033
1524.5225
8.5382507
17.723199
27.50866
36.678936
45.148749
52.724962
59.254825
64.623915
68.781508
71.773608
73.785235
75.190911
76.611197
78.962411
83.469169
91.608002
104.98049
125.15338
153.51342
191.1636
238.86315
296.99816
365.56478
444.15201
531.91958
627.57366
729.34734
834.99715
941.83782
1046.8498
1146.8901
1238.9988
1320.7368
1390.4508
1447.3931
1491.6842
1524.1601
1546.1634
1559.3291
1565.4014
1566.0945
1563.0018
1557.5408
1550.9207
1544.1275
1537.9577
1533.1061
1530.1224
1529.0681
8.1689729
17.081821
26.585319
35.507652
43.76925
51.201692
57.685007
63.146452
67.584974
71.101529
73.936083
76.509002
79.462653
83.69108
90.337009
100.73857
116.32646
138.49615
168.48772
207.29227
255.58886
313.70572
381.59503
458.81261
544.49972
637.36918
735.70177
837.36341
939.86001
1040.4523
1136.3447
1224.9361
1304.0812
1372.2949
1428.8491
1473.7538
1507.6464
1531.6317
1547.1095
1555.6182
1558.7102
1557.8638
1554.4264
1549.5732
1544.2736
1539.3268
1535.5089
1533.4615
1532.9714
7.7966444
16.58297
25.909174
34.670697
42.794499
50.136131
56.602642
62.15336
66.82397
70.754935
74.224298
77.682233
81.782024
87.396683
95.607076
107.65314
124.84689
148.46339
179.63685
219.27494
267.99488
326.07966
393.4479
469.63206
553.76316
644.56421
740.35779
839.09669
938.43073
1035.8234
1128.724
1214.7792
1292.0464
1359.158
1415.4038
1460.7218
1495.6149
1521.0231
1538.1793
1548.4735
1553.339
1554.1676
1552.2521
1548.7425
1544.5921
1540.5714
1537.5052
1536.286
1536.5717
7.2933075
16.147373
25.393057
34.069602
42.112704
49.402373
55.866442
61.48641
66.322067
70.538919
74.438335
78.487567
83.344129
89.86529
99.092008
112.20424
130.44044
154.99705
186.93799
227.11548
276.10492
334.15848
401.17227
476.66384
559.75887
649.18932
743.30789
840.12692
937.39169
1032.6971
1123.6482
1208.0477
1284.0801
1350.453
1406.469
1452.0232
1487.5349
1513.8401
1532.0646
1543.502
1549.5076
1551.4134
1550.4721
1547.8191
1544.4017
1540.9358
1538.2412
1537.8118
1540.0054
6.0706661
15.815224
25.112057
33.781005
41.793419
49.061339
55.526816
61.183548
66.103629
70.465091
74.581055
78.927517
84.16486
91.145174
100.8942
114.55579
133.32072
158.34847
190.67311
231.11994
280.24351
338.2803
405.11495
480.25744
562.83093
651.57219
744.84966
840.7062
936.93547
1031.1982
1121.1764
1204.75
1280.1664
1346.1703
1402.0721
1447.7462
1483.5717
1510.3337
1529.1062
1541.1355
1547.7337
1550.2021
1549.7813
1547.6103
1544.6463
1541.5645
1539.1506
1539.6748
1545.5175
-2227.9577
-2483.7562
-2699.6526
-2881.6185
-3024.1628
-3106.5315
-3108.7243
-3029.8966
-2858.0568
-2664.737
-3204.9984
-3204.8972
-3197.9809
-3186.9031
-3172.7062
-3159.8775
-3148.0025
-3157.4503
-3158.0957
-3130.7694
-3182.6699
-3181.5294
-3166.731
-3149.7265
-3132.7715
-3123.742
-3105.4099
-3112.6406
-3099.5055
-3045.9971
-3137.2794
-3134.6156
-3126.0557
-3117.4133
-3108.6742
-3111.7457
-3100.6682
-3098.62
-3085.1722
-3048.2791
-3077.6623
-3076.2293
-3071.6866
-3065.7995
-3057.3612
-3057.9125
-3057.4798
-3056.7569
-3055.2241
-3058.9366
-3029.4896
-3028.6977
-3022.8527
-3012.5765
-2997.1442
-2967.6019
-2989.7867
-3002.1952
-3008.9547
-3022.4072
-3012.5171
-3014.2292
-3017.4405
-3020.7846
-3031.5048
-3007.1582
-3007.0129
-3003.559
-2988.8035
-2965.9533
-3027.2827
-3028.9582
-3035.1435
-3044.0041
-3068.2057
-3075.8279
-3056.3433
-3030.2474
-3000.3766
-2964.9666
-3847.9794
-3860.2921
-3831.2505
-3786.8376
-3749.2753
-3717.2076
-3695.7019
-3681.9735
-3673.032
-3674.775
-2987.0323
-2985.8203
-2977.9789
-2961.1787
-2921.8771
-2947.1384
-2959.0751
-2961.1709
-2950.5668
-2923.348
-3009.2207
-3012.2798
-3018.6119
-3037.9291
-3014.1741
-3005.3603
-3001.2892
-2993.7682
-2979.6834
-2964.4634
-3047.8709
-3050.2929
-3055.3748
-3079.8364
-3092.6872
-3068.7309
-3042.0825
-3021.8495
-3003.0104
-2986.543
-2998.6662
-2994.8338
-2975.9067
-2950.5468
-2973.4415
-2990.9937
-3002.3384
-3009.8583
-3012.2066
-3019.2916
-3032.0924
-3034.5521
-3033.6784
-2996.7559
-3005.9101
-3019.5526
-3030.4106
-3037.7237
-3040.8591
-3050.5037
-3155.6432
-3163.4306
-3187.6582
-3186.1478
-3158.269
-3130.5291
-3109.9023
-3094.5886
-3079.2572
-3062.1118
-3140.8227
-3135.9844
-3128.5269
-3148.6863
-3149.2628
-3143.4817
-3137.2988
-3131.9231
-3125.9959
-3127.9754
-3161.6542
-3160.9215
-3136.6033
-3146.7909
-3158.2594
-3166.4241
-3170.885
-3172.7395
-3172.0867
-3176.8498
-3276.2944
-3288.7141
-3284.6183
-3270.256
-3254.9363
-3242.9037
-3234.1855
-3228.4122
-3221.6236
-3213.0957
-3281.9512
-3286.0411
-3293.525
-3285.405
-3275.7066
-3270.1622
-3269.8968
-3274.3216
-3279.3582
-3291.6677
-3185.8196
-3171.712
-3189.047
-3214.9203
-3244.3779
-3273.0508
-3300.0011
-3324.5561
-3344.6992
-3369.6653
-3325.5661
-3301.95
-3311.5539
-3331.8547
-3358.6085
-3383.8436
-3406.2957
-3424.7156
-3437.2263
-3452.9398
-3701.1765
-3692.1581
-3661.4588
-3627.3871
-3602.3069
-3582.8182
-3570.7234
-3563.5608
-3557.4423
-3554.576
-3016.3427
-3014.826
-3009.4841
-2997.9825
-2992.6024
-2999.9659
-2999.5476
-2994.0888
-2984.7549
-2983.6541
-3540.0096
-3548.6032
-3563.0494
-3610.3151
-3666.4648
-3718.3182
-3739.4293
-3721.3539
-3637.83
-3466.149
-3268.0786
-3268.3236
-3271.2841
-3276.135
-3277.2249
-3276.3101
-3274.3618
-3269.1513
-3265.0398
-3218.6515
-3179.6178
-3227.5195
-3289.5385
-3394.1627
-3505.4498
-3592.2957
-3634.7718
-3595.0649
-3447.1898
-3214.9128
-3479.5756
-3489.6184
-3510.5766
-3547.2962
-3580.9683
-3609.6696
-3618.3047
-3617.7489
-3582.0511
-3469.7963
-3366.6336
-3371.0127
-3385.1978
-3409.1507
-3430.1022
-3447.7463
-3455.8702
-3445.4651
-3432.9213
-3381.2904
11318.494
10715.307
10129.336
9489.7042
8832.6163
8179.3157
7544.9636
6936.5733
6347.1395
5770.1071
8301.4034
8224.1042
8100.8589
7839.2299
7501.3633
7110.9492
6689.2895
6254.2663
5816.1149
5359.7311
-3709.0308
-3727.4692
-3744.8806
-3750.8473
-3759.5354
-3762.7984
-3767.5924
-3771.0269
-3772.3513
-3775.8442
-3705.4005
-3709.2512
-3744.6015
-3775.834
-3814.8934
-3842.064
-3865.9889
-3882.0175
-3890.6641
-3894.8526
-3946.1088
-3938.8683
-3955.0927
-3962.6642
-3991.0403
-4009.4163
-4029.2402
-4042.2142
-4047.6321
-4043.1818
-4222.0168
-4211.6594
-4225.9273
-4216.5096
-4232.578
-4234.4568
-4240.977
-4242.0237
-4238.4506
-4234.0892
-4544.4711
-4526.3281
-4538.0737
-4511.0354
-4514.8199
-4496.971
-4484.5115
-4464.4836
-4436.816
-4404.4559
-4900.7002
-4873.474
-4883.082
-4836.6579
-4828.2256
-4789.7355
-4756.9043
-4713.4824
-4658.8136
-4598.6044
-5281.4438
-5242.9887
-5251.6303
-5184.8101
-5165.2603
-5107.1711
-5055.7762
-4992.3081
-4916.0544
-4830.7451
-5682.4528
-5630.3724
-5639.1989
-5550.175
-5519.3591
-5441.1309
-5370.4658
-5288.0325
-5198.0608
-5115.5133
-6104.6339
-6035.5054
-6045.3566
-5931.3596
-5887.8903
-5787.4818
-5693.1163
-5583.0901
-5457.7802
-5322.1839
-6548.0859
-6457.9916
-6470.4246
-6328.7772
-6271.5248
-6148.6409
-6030.4805
-5896.3714
-5746.7694
-5585.0151
-7018.921
-6901.7829
-6917.5493
-6744.0644
-6669.9205
-6522.3309
-6376.4329
-6214.2119
-6035.7253
-5849.86
-7516.0116
-7365.7728
-7387.8926
-7179.4516
-7085.2914
-6911.233
-6733.4422
-6537.3647
-6318.7497
-6081.4764
-8057.6752
-7863.0007