/*--------------------------------*- C++ -*----------------------------------*\
| =========                 |                                                 |
| \\      /  F ield         | foam-extend: Open Source CFD                    |
|  \\    /   O peration     | Version:     4.1                                |
|   \\  /    A nd           | Web:         http://www.foam-extend.org         |
|    \\/     M anipulation  |                                                 |
\*---------------------------------------------------------------------------*/
FoamFile
{
    version     2.0;
    format      ascii;
    class       surfaceScalarField;
    location    "0.7";
    object      phi;
}
// * * * * * * * * * * * * * * * * * * * * * * * * * * * * * * * * * * * * * //

dimensions      [0 3 -1 0 0 0 0];

internalField   nonuniform List<scalar> 
8438
(
-0.59744488
0.0016734302
-0.5991836
0.0017387162
-0.60095722
0.0017736167
-0.60277474
0.00181752
-0.60464592
0.0018711809
-0.60658119
0.0019352763
-0.60858997
0.0020087753
-0.61067986
0.0020898868
-0.61285597
0.0021761133
-0.61512023
0.0022642633
-0.61747068
0.0023504479
-0.6199008
0.0024301154
-0.62239895
0.0024981545
-0.62494804
0.0025490862
-0.62752538
0.0025773406
-0.630103
0.0025776207
-0.6326482
0.0025452021
-0.63512443
0.0024762327
-0.63749229
0.0023678622
-0.63971053
0.0022182333
-0.64173693
0.0020264067
-0.6435292
0.0017922677
-0.64504571
0.0015165093
-0.64624646
0.0012007516
-0.64709432
0.00084785466
-0.64755675
0.00046243422
-0.647608
5.1243903e-05
-0.64723067
-0.0003773281
-0.64641977
-0.00081089322
-0.64518679
-0.0012329836
-0.6435606
-0.0016261927
-0.64158725
-0.0019733522
-0.6393278
-0.0022594434
-0.6368543
-0.0024734991
-0.63424449
-0.0026098158
-0.63157629
-0.0026681953
-0.62892301
-0.0026532866
-0.62634967
-0.0025733376
-0.62391094
-0.002438726
-0.62165036
-0.0022605795
-0.61960069
-0.0020496773
-0.61778499
-0.0018156954
-0.61621822
-0.0015667733
-0.61490879
-0.0013094236
-0.61385979
-0.0010490034
-0.61306941
-0.0007903802
-0.61253396
-0.00053545134
-0.61225858
-0.00027537971
-1.3628596e-05
-0.61123706
0.0031390517
-0.61269606
0.0031977116
-0.6141822
0.0032597554
-0.61570874
0.0033440639
-0.61728814
0.0034505784
-0.61893159
0.0035787323
-0.62064896
0.0037261374
-0.62244819
0.0038891179
-0.62433474
0.0040626677
-0.62631088
0.0042404035
-0.62837497
0.0044145317
-0.63052076
0.0045759044
-0.63273682
0.0047142171
-0.63500612
0.0048183915
-0.63730592
0.0048771412
-0.63960802
0.0048797198
-0.64187938
0.0048165545
-0.64408301
0.0046798642
-0.64617907
0.0044639241
-0.64812587
0.0041650338
-0.6498808
0.0037813357
-0.65140113
0.0033125973
-0.65264477
0.0027601508
-0.65357115
0.0021271267
-0.65414236
0.001419072
-0.65432488
0.0006449563
-0.65409201
-0.00018163316
-0.65342789
-0.0010414472
-0.65232939
-0.0019093892
-0.65080744
-0.0027549333
-0.64889009
-0.0035435434
-0.64662308
-0.0042403692
-0.64406779
-0.0048147241
-0.64129711
-0.005244184
-0.63838978
-0.0055171478
-0.63542465
-0.0056333186
-0.63247565
-0.0056022922
-0.62960805
-0.005440938
-0.62687642
-0.0051703528
-0.62432396
-0.0048130362
-0.62198298
-0.0043906645
-0.61987609
-0.0039225854
-0.61801787
-0.0034249886
-0.61641653
-0.0029107673
-0.61507537
-0.0023901632
-0.61399464
-0.0018711073
-0.61317384
-0.0013562488
-0.61260471
-0.00084451759
-0.00037353516
-0.61228254
0.0045545358
-0.61369628
0.004611453
-0.61513484
0.0046983174
-0.61661318
0.0048224021
-0.61814459
0.0049819907
-0.61974088
0.0051750215
-0.62141238
0.0053976373
-0.62316756
0.005644291
-0.62501242
0.0059075279
-0.62694985
0.006177833
-0.62897885
0.006443538
-0.63109382
0.0066908737
-0.63328385
0.0069042453
-0.63553226
0.0070668018
-0.63781643
0.0071613094
-0.64010804
0.0071713284
-0.64237372
0.0070822382
-0.64457608
0.0068822185
-0.64667481
0.0065626543
-0.64862782
0.006118045
-0.65039213
0.0055456529
-0.65192463
0.0048450894
-0.65318263
0.0040181581
-0.65412468
0.0030691762
-0.65471152
0.0020059143
-0.65490776
0.00084118631
-0.65468423
-0.0004051597
-0.65402088
-0.001704796
-0.65291026
-0.0030200126
-0.6513613
-0.0043038915
-0.6494019
-0.0055029383
-0.64707952
-0.0065627508
-0.64445898
-0.007435262
-0.6416177
-0.0080854722
-0.63863924
-0.0084956034
-0.63560678
-0.0086657775
-0.63259748
-0.0086115974
-0.62967858
-0.0083598327
-0.62690541
-0.0079435215
-0.62432092
-0.0073975245
-0.62195649
-0.0067550971
-0.61983344
-0.0060456388
-0.61796489
-0.0052935349
-0.61635765
-0.0045180066
-0.6150141
-0.0037337178
-0.61393438
-0.0029508256
-0.61311677
-0.0021738606
-0.61255275
-0.001408534
-0.00068133666
-0.61263943
0.005940636
-0.6140328
0.0060048272
-0.61545164
0.0061171572
-0.6169109
0.0062816594
-0.61842434
0.006495433
-0.62000448
0.0067551552
-0.62166241
0.0070555679
-0.62340744
0.007389326
-0.62524651
0.0077465946
-0.62718344
0.0081147639
-0.62921816
0.0084782631
-0.63134587
0.0088185778
-0.6335562
0.009114578
-0.63583267
0.0093432687
-0.63815236
0.0094810038
-0.64048621
0.0095051724
-0.64279969
0.0093957193
-0.64505404
0.0091365721
-0.64720759
0.0087162036
-0.64921697
0.0081274223
-0.65103805
0.00736674
-0.65262661
0.0064336438
-0.6539387
0.0053302484
-0.65493118
0.0040616547
-0.65556249
0.002637229
-0.65579417
0.0010728663
-0.65559325
-0.00060608232
-0.6549356
-0.0023624442
-0.65381006
-0.0041455509
-0.65222301
-0.0058909413
-0.65020204
-0.0075239141
-0.6477972
-0.008967589
-0.64507873
-0.010153731
-0.64213126
-0.011032944
-0.63904601
-0.01158085
-0.63591292
-0.011798872
-0.63281415
-0.011710361
-0.62981994
-0.011354044
-0.62698664
-0.010776826
-0.62435671
-0.010027455
-0.62196001
-0.0091517922
-0.6198158
-0.0081898455
-0.61793496
-0.0071743763
-0.61632218
-0.0061307922
-0.61497812
-0.0050777721
-0.61390136
-0.004027586
-0.6130883
-0.0029869258
-0.61253354
-0.001963296
-0.00096992256
-0.61306399
0.0072996864
-0.61443414
0.0073749774
-0.61583072
0.0075137343
-0.61726887
0.0077198077
-0.61876284
0.0079894117
-0.62032594
0.0083182526
-0.62197021
0.0086998376
-0.62370605
0.0091251675
-0.6255416
0.0095821463
-0.62748198
0.010055135
-0.62952835
0.010524636
-0.631677
0.01096723
-0.63391834
0.01135592
-0.63623613
0.011661051
-0.63860702
0.0118519
-0.64100085
0.011898997
-0.64338143
0.011776299
-0.64570806
0.0114632
-0.64793713
0.010945279
-0.65002359
0.010213882
-0.65192188
0.009265031
-0.65358644
0.0080982049
-0.65497185
0.0067156562
-0.65603293
0.0051227341
-0.65672521
0.0033295129
-0.65700619
0.0013538418
-0.65683774
-0.00077453452
-0.65618996
-0.003010218
-0.6550461
-0.0052894102
-0.6534085
-0.0075285495
-0.6513039
-0.0096285061
-0.64878591
-0.01148558
-0.64593248
-0.013007168
-0.64283866
-0.014126764
-0.63960667
-0.014812839
-0.63633601
-0.015069531
-0.63311578
-0.014930588
-0.63002011
-0.014449719
-0.62710648
-0.013690449
-0.62441642
-0.012717518
-0.62197746
-0.011590758
-0.61980583
-0.010361474
-0.61790925
-0.0090709523
-0.61628952
-0.007750521
-0.61494488
-0.0064224139
-0.61387173
-0.0051007403
-0.61306512
-0.0037935319
-0.61252116
-0.0025072616
-0.0012462784
-0.61360127
0.0086265008
-0.61494176
0.0087154676
-0.61631003
0.0088820117
-0.6177214
0.0091311787
-0.6191907
0.00945871
-0.62073211
0.0098596639
-0.62235883
0.010326556
-0.62408262
0.010848954
-0.62591316
0.011412686
-0.62785723
0.011999204
-0.62991767
0.012585082
-0.63209227
0.013141823
-0.6343725
0.013636153
-0.63674252
0.014031076
-0.63917851
0.01428789
-0.64164881
0.014369295
-0.64411499
0.014242482
-0.64653373
0.013881937
-0.64885888
0.01327043
-0.65104323
0.012398236
-0.65303955
0.011261345
-0.65480081
0.0098594689
-0.65627998
0.0081948286
-0.65742958
0.0062723249
-0.65820158
0.0041015208
-0.65854836
0.0017006216
-0.65842503
-0.00089786414
-0.65779385
-0.003641402
-0.65663009
-0.0064531722
-0.65492998
-0.0092286552
-0.65271854
-0.011839943
-0.65005382
-0.014150301
-0.64702437
-0.016036616
-0.64373978
-0.017411361
-0.64031741
-0.018235207
-0.63686971
-0.018517232
-0.63349482
-0.018305476
-0.63027162
-0.017672923
-0.6272586
-0.016703467
-0.62449551
-0.015480609
-0.62200641
-0.014079851
-0.61980331
-0.012564577
-0.61788958
-0.010984688
-0.61626303
-0.0093770634
-0.6149185
-0.007766947
-0.61384953
-0.0061697117
-0.61304951
-0.00459355
-0.61251417
-0.0030425986
-0.001515502
-0.61425437
0.0099173382
-0.61555926
0.01002036
-0.61689284
0.010215591
-0.61827112
0.010509456
-0.61970971
0.010897305
-0.62122387
0.011373822
-0.62282814
0.011930823
-0.62453592
0.012556734
-0.62635881
0.013235579
-0.6283057
0.013946094
-0.6303816
0.014660976
-0.63258625
0.015346478
-0.63491267
0.015962569
-0.63734564
0.016464054
-0.63986079
0.01680304
-0.64242456
0.016933061
-0.64499553
0.016813448
-0.64752688
0.016413287
-0.64996918
0.015712731
-0.6522726
0.014701658
-0.65438803
0.013376778
-0.65626707
0.011738503
-0.65786114
0.0097889014
-0.65912039
0.0075315701
-0.65999281
0.0049739425
-0.66042455
0.002132367
-0.66036214
-0.00096028109
-0.65975736
-0.0042461745
-0.6585744
-0.0076361383
-0.65680036
-0.011002696
-0.65445683
-0.014183465
-0.65160724
-0.016999893
-0.64835443
-0.019289425
-0.64482786
-0.02093793
-0.64116546
-0.021897607
-0.63749675
-0.022185947
-0.63393127
-0.021870955
-0.63055336
-0.021050837
-0.627422
-0.019834828
-0.62457395
-0.018328659
-0.62202832
-0.016625475
-0.61979139
-0.014801508
-0.61786088
-0.012915195
-0.61622955
-0.011008399
-0.61488788
-0.0091086178
-0.61382595
-0.0072316437
-0.61303478
-0.0053847133
-0.61250834
-0.0035690372
-0.0017788963
-0.61501774
0.011163758
-0.61627978
0.011282402
-0.61757188
0.011507686
-0.61891046
0.011848034
-0.62031198
0.012298825
-0.62179288
0.01285472
-0.62336925
0.013507201
-0.62505646
0.014243941
-0.62686841
0.01504753
-0.6288166
0.015894284
-0.63090878
0.016753155
-0.63314731
0.017585012
-0.63552728
0.018342538
-0.63803451
0.018971278
-0.64064402
0.019412556
-0.64331985
0.019608882
-0.6460166
0.019510202
-0.64868284
0.019079532
-0.6512649
0.018294788
-0.65370979
0.017146548
-0.65596648
0.015633465
-0.65798542
0.013757446
-0.65971693
0.011520412
-0.661109
0.0089236378
-0.66210539
0.005970334
-0.66264502
0.0026719993
-0.66266374
-0.00094156048
-0.66209976
-0.004810162
-0.66090195
-0.008833944
-0.65904395
-0.012860692
-0.65654111
-0.016686315
-0.65346292
-0.020078075
-0.64993142
-0.022820924
-0.64610324
-0.024766113
-0.64214398
-0.025856868
-0.63820539
-0.026124541
-0.63441099
-0.025665346
-0.63085094
-0.024610892
-0.62758355
-0.023102215
-0.62464073
-0.021271478
-0.62203458
-0.019231625
-0.61976375
-0.017072339
-0.61781875
-0.014860203
-0.616186
-0.012641141
-0.61485081
-0.010443811
-0.61379918
-0.00828327
-0.61301924
-0.006164659
-0.61250254
-0.0040857309
-0.0020366412
-0.61589247
0.012362362
-0.61710568
0.012495611
-0.6183494
0.012751409
-0.61964119
0.013139824
-0.62099855
0.013656186
-0.62243926
0.014295431
-0.62398119
0.015049128
-0.62564193
0.015904686
-0.62743817
0.016843766
-0.62938458
0.017840697
-0.63149238
0.01886095
-0.63376732
0.019859955
-0.63620735
0.020782568
-0.63879989
0.021563816
-0.64151948
0.022132152
-0.6443271
0.022416501
-0.64717212
0.022355223
-0.64999695
0.02190436
-0.65274242
0.021040255
-0.6553518
0.01975593
-0.65777224
0.018053903
-0.65995367
0.015938873
-0.66184608
0.013412823
-0.66339599
0.010473547
-0.66454302
0.0071173724
-0.665218
0.0033469729
-0.66534382
-0.0008157385
-0.66484118
-0.0053128029
-0.66363818
-0.010036946
-0.6616886
-0.014810271
-0.65899676
-0.019378156
-0.65563859
-0.023436237
-0.6517619
-0.026697616
-0.64756071
-0.028967311
-0.64323795
-0.03017962
-0.63897414
-0.030388356
-0.63490952
-0.029729969
-0.63113977
-0.028380637
-0.62772054
-0.02652144
-0.62467613
-0.024315891
-0.62200889
-0.02189887
-0.61970749
-0.019373734
-0.61775339
-0.016814307
-0.61612535
-0.014269177
-0.61480252
-0.01176664
-0.61376624
-0.0093195524
-0.6130012
-0.0069297004
-0.61249629
-0.0045906433
-0.0022879785
-0.61687192
0.013501227
-0.61802757
0.013651256
-0.61921517
0.01393901
-0.62045252
0.014377176
-0.62175805
0.01496172
-0.62315095
0.015688329
-0.62465102
0.016549194
-0.62627842
0.017532084
-0.62805305
0.018618399
-0.62999346
0.019781112
-0.63211517
0.020982652
-0.63442832
0.022173112
-0.63693479
0.02328903
-0.63962445
0.024253476
-0.64247162
0.024979329
-0.64543346
0.025378339
-0.64845233
0.025374092
-0.65146231
0.024914342
-0.65439703
0.023974971
-0.65719529
0.022554195
-0.65980275
0.020661359
-0.66216986
0.018305983
-0.66424769
0.015490653
-0.66598257
0.012208425
-0.66731063
0.0084454333
-0.66815397
0.0041903112
-0.66842023
-0.0005494722
-0.66800786
-0.0057251809
-0.66681699
-0.011227812
-0.66477243
-0.016854832
-0.66185958
-0.022291009
-0.65816006
-0.027135751
-0.65385662
-0.031001054
-0.64919539
-0.033628542
-0.64443001
-0.034945
-0.63977794
-0.035040423
-0.63539882
-0.034109091
-0.63139253
-0.032386929
-0.62780861
-0.030105365
-0.62465978
-0.02746472
-0.62193504
-0.024623601
-0.61961025
-0.021698524
-0.61765569
-0.018768873
-0.61604105
-0.015883813
-0.61473846
-0.013069235
-0.61372403
-0.010333983
-0.61297869
-0.0076750416
-0.61248852
-0.005080812
-0.0025315468
-0.6179551
0.014579641
-0.61904768
0.014743838
-0.62017192
0.015063249
-0.62134704
0.015552301
-0.62259261
0.016207286
-0.62392929
0.017025004
-0.62537896
0.017998872
-0.62696466
0.019117778
-0.62870999
0.020363735
-0.63063812
0.021709238
-0.63276985
0.023114389
-0.63512102
0.024524276
-0.63769879
0.025866804
-0.64049685
0.027051537
-0.64348988
0.027972353
-0.64663032
0.028518779
-0.64985111
0.028594887
-0.65307497
0.028138196
-0.65622592
0.027125923
-0.6592375
0.025565774
-0.66205457
0.02347843
-0.66462984
0.020881251
-0.66691759
0.017778406
-0.66886609
0.014156928
-0.67040939
0.0099887278
-0.67146066
0.005241581
-0.67191023
-9.9898602e-05
-0.67162841
-0.006007003
-0.67047824
-0.012377984
-0.66834253
-0.018990543
-0.66517475
-0.025458785
-0.66105926
-0.031251239
-0.65622671
-0.035833603
-0.6509972
-0.038858051
-0.64569381
-0.040248396
-0.64058134
-0.040152889
-0.63584087
-0.038849559
-0.63157328
-0.036654522
-0.62781655
-0.033862095
-0.62456626
-0.030715011
-0.62179338
-0.027396483
-0.61945745
-0.024034453
-0.61751527
-0.020711049
-0.61592605
-0.017473037
-0.61465406
-0.014341226
-0.6136698
-0.011318237
-0.61295026
-0.0083945861
-0.61247872
-0.0055523483
-0.0027654703
-0.61913867
0.015580659
-0.62015733
0.015762494
-0.62120913
0.01611505
-0.62231295
0.016656122
-0.62348909
0.017383425
-0.62475961
0.018295527
-0.62614858
0.019387836
-0.62768211
0.020651311
-0.62938808
0.022069705
-0.63129509
0.023616244
-0.63343048
0.025249785
-0.63581733
0.02691112
-0.63847006
0.02851954
-0.64138815
0.029969628
-0.6445478
0.031132004
-0.64789584
0.031866816
-0.65135238
0.032051422
-0.65482421
0.031610031
-0.65822229
0.030523997
-0.66147371
0.0288172
-0.66452374
0.026528453
-0.6673298
0.023687318
-0.66985249
0.020301089
-0.6720452
0.016349644
-0.67384251
0.011786042
-0.67514926
0.0065483292
-0.67583521
0.00058605067
-0.67573764
-0.0061045783
-0.67467258
-0.013443039
-0.67246143
-0.021201692
-0.66900431
-0.028915904
-0.66438055
-0.035875005
-0.65888732
-0.041326832
-0.6529522
-0.044793165
-0.64699436
-0.046206237
-0.64133884
-0.045808411
-0.63618858
-0.043999822
-0.63163913
-0.04120397
-0.62770852
-0.037792705
-0.62436745
-0.034056086
-0.62156291
-0.03020102
-0.61923413
-0.026363239
-0.61732195
-0.022623225
-0.61577374
-0.019021245
-0.61454534
-0.015569624
-0.61360144
-0.012262142
-0.61291507
-0.0090809534
-0.61246691
-0.0060005082
-0.0029874313
-0.62041252
0.016508027
-0.62135286
0.016702835
-0.62232493
0.017087122
-0.62334919
0.017680386
-0.62444689
0.018481118
-0.62564144
0.019490083
-0.62695909
0.020705487
-0.62842926
0.022121476
-0.63008451
0.023724959
-0.63195979
0.025491518
-0.63409034
0.027380341
-0.63650838
0.029329153
-0.63923805
0.031249211
-0.64228748
0.033019065
-0.6456365
0.03448102
-0.64922539
0.035455701
-0.65295656
0.035782601
-0.65671418
0.035367648
-0.66039096
0.034200773
-0.66390631
0.032332547
-0.66720811
0.029830256
-0.67026257
0.026741778
-0.67304109
0.023079613
-0.67550705
0.0188156
-0.67759985
0.013878845
-0.67921805
0.0081665245
-0.68020928
0.0015772854
-0.68037105
-0.005942813
-0.67945879
-0.014355296
-0.67720758
-0.023452907
-0.67342961
-0.032693871
-0.66818168
-0.041122936
-0.66185435
-0.047654163
-0.65503599
-0.051611518
-0.64828013
-0.052962103
-0.64198748
-0.052101061
-0.63637966
-0.049607641
-0.63153551
-0.04604812
-0.62744041
-0.041887804
-0.62402972
-0.037466776
-0.62121915
-0.033011587
-0.61892309
-0.028659298
-0.61706403
-0.024482283
-0.61557643
-0.020508851
-0.61440739
-0.016738659
-0.6135159
-0.013153634
-0.61287135
-0.0097255095
-0.61245209
-0.0064197615
-0.0031947238
-0.62178038
0.017338752
-0.62262921
0.017551662
-0.62351114
0.017969047
-0.62444523
0.018614484
-0.62545291
0.019488791
-0.6265586
0.020595774
-0.62779056
0.021937453
-0.62918158
0.023512495
-0.63076934
0.025312719
-0.63259605
0.027318223
-0.63470651
0.029490805
-0.63714444
0.031767084
-0.63994702
0.034051789
-0.64313539
0.036207433
-0.64669694
0.038042569
-0.65056524
0.039324009
-0.65461843
0.039835782
-0.65870794
0.039457165
-0.66270068
0.038193506
-0.66650667
0.03613854
-0.67007998
0.033403568
-0.67340102
0.030062817
-0.67645751
0.026136103
-0.67922869
0.021586779
-0.68166506
0.016315213
-0.68366291
0.010164379
-0.68504705
0.0029614287
-0.68556874
-0.0054211315
-0.68490922
-0.015014814
-0.68268478
-0.025677342
-0.67856446
-0.036814195
-0.67254493
-0.04714246
-0.66514833
-0.055050765
-0.65721232
-0.059547534
-0.64947983
-0.06069459
-0.64244461
-0.059136281
-0.63633632
-0.055715926
-0.63119755
-0.051186897
-0.62696238
-0.046122971
-0.62351705
-0.040912101
-0.62073733
-0.035791315
-0.61850805
-0.030888574
-0.61673129
-0.026259045
-0.61532803
-0.021912108
-0.61423689
-0.017829796
-0.61341167
-0.013978858
-0.61281869
-0.010318491
-0.61243455
-0.0068039049
-0.00338432
-0.62320889
0.018081813
-0.62396311
0.018305874
-0.62474759
0.01875353
-0.62558283
0.01944972
-0.62649056
0.020396524
-0.62749605
0.021601266
-0.62862939
0.023070791
-0.62992668
0.024809789
-0.63143103
0.026817069
-0.63319282
0.029080012
-0.6352682
0.031566187
-0.63771516
0.034214045
-0.64058787
0.03692449
-0.64392639
0.03954596
-0.64773224
0.041848417
-0.65193312
0.043524885
-0.65637282
0.044275485
-0.6608539
0.043938243
-0.66520501
0.042544613
-0.6693243
0.040257834
-0.67317806
0.037257329
-0.67676953
0.033654284
-0.68011072
0.029477292
-0.68320564
0.024681698
-0.68602667
0.019136251
-0.68847643
0.012614136
-0.69035816
0.0048431633
-0.69137069
-0.0044086087
-0.69110752
-0.015277978
-0.68902647
-0.027758391
-0.68456665
-0.041274022
-0.67758667
-0.054122435
-0.66879158
-0.063845858
-0.65942236
-0.068916756
-0.65048999
-0.069626958
-0.64259782
-0.067028452
-0.63595852
-0.062355228
-0.63054603
-0.056599381
-0.62621647
-0.050452534
-0.62278941
-0.044339158
-0.62009098
-0.038489749
-0.61797215
-0.033007405
-0.6163133
-0.027917891
-0.61502229
-0.023203117
-0.61403018
-0.018821914
-0.61328664
-0.014722399
-0.61275591
-0.01084922
-0.61241359
-0.0071462246
-0.003552957
-0.62473296
0.018708356
-0.62537805
0.018950965
-0.62605462
0.019430101
-0.62678022
0.020175324
-0.62757563
0.021191935
-0.62846613
0.022491762
-0.62948301
0.024087671
-0.63066525
0.025992031
-0.63206122
0.02821304
-0.63373004
0.030748836
-0.635741
0.033577142
-0.63816951
0.036642552
-0.64109149
0.039846472
-0.64457419
0.04302866
-0.64864467
0.0459189
-0.65322958
0.048109791
-0.65812529
0.049171194
-0.66306124
0.048874199
-0.66781023
0.047293602
-0.672257
0.044704598
-0.67639197
0.041392305
-0.68025491
0.037517219
-0.68389131
0.033113695
-0.68733855
0.028128933
-0.69060333
0.022401035
-0.69360533
0.015616132
-0.69612767
0.0073655045
-0.69781033
-0.0027259486
-0.69814868
-0.014939624
-0.6964051
-0.029501976
-0.69166132
-0.046017801
-0.68348083
-0.062302917
-0.6728094
-0.074517297
-0.66157375
-0.0801524
-0.6511622
-0.080038509
-0.64229685
-0.075893804
-0.63512108
-0.069531001
-0.62948821
-0.06223225
-0.62513925
-0.054801489
-0.621806
-0.047672404
-0.61925519
-0.041040564
-0.61730085
-0.03496174
-0.61580199
-0.029416755
-0.61465493
-0.024350173
-0.6137851
-0.019691746
-0.61313981
-0.015367692
-0.6126826
-0.011306432
-0.6123891
-0.0074397253
-0.003697253
-0.62626197
0.019232112
-0.6267957
0.019484695
-0.62735652
0.019990923
-0.62796252
0.020781321
-0.62863353
0.02186295
-0.62939441
0.023252641
-0.63027718
0.024970436
-0.63132332
0.027038168
-0.63258639
0.029476113
-0.63413492
0.032297367
-0.63605352
0.035495744
-0.63843915
0.039028178
-0.64139532
0.042802644
-0.64502706
0.046660404
-0.64940567
0.050297509
-0.65446868
0.053172802
-0.6599458
0.054648308
-0.66545211
0.054380506
-0.6706736
0.052515098
-0.67547643
0.049507427
-0.67989222
0.045808094
-0.68401517
0.041640163
-0.68793252
0.03703105
-0.69172294
0.031919348
-0.69544831
0.026126404
-0.69907084
0.019238668
-0.70236781
0.010662478
-0.70492378
-0.00016998541
-0.70613116
-0.013732247
-0.70503391
-0.030599219
-0.70017084
-0.050880876
-0.69049761
-0.071976141
-0.67722696
-0.087787947
-0.6635185
-0.093860862
-0.65128091
-0.092276097
-0.64134062
-0.085834097
-0.6336692
-0.077202424
-0.6279182
-0.067983247
-0.62366432
-0.059055375
-0.62052811
-0.050808614
-0.61820895
-0.043359719
-0.61648371
-0.036686979
-0.61519277
-0.030707701
-0.61422439
-0.025318546
-0.61350151
-0.020414633
-0.61297156
-0.015897639
-0.61259926
-0.011678736
-0.61236155
-0.0076774293
-0.0038138557
-0.62788875
0.019618915
-0.62829672
0.019892668
-0.62873299
0.020427192
-0.62921061
0.021258944
-0.62974674
0.022399075
-0.63036459
0.023870494
-0.63109572
0.025701566
-0.63198281
0.027925255
-0.63308322
0.030576525
-0.63447383
0.033687984
-0.63625523
0.03727714
-0.63854923
0.04132218
-0.64149214
0.045745553
-0.64523775
0.050406017
-0.64992974
0.054989498
-0.65554425
0.058787306
-0.66171962
0.060823683
-0.66789008
0.060550963
-0.67360962
0.058234641
-0.67872385
0.054621655
-0.68334383
0.050428071
-0.68765571
0.045952048
-0.69180473
0.041180067
-0.69592012
0.036034742
-0.70015048
0.030356766
-0.70453684
0.023625023
-0.70886239
0.014988025
-0.71261834
0.0035859647
-0.71509287
-0.011257715
-0.71513935
-0.030552739
-0.71053642
-0.055483807
-0.69905932
-0.083453237
-0.68205154
-0.10479573
-0.66501207
-0.11090033
-0.6505285
-0.10675966
-0.63945962
-0.09690298
-0.63141383
-0.085248212
-0.62571875
-0.073678331
-0.62172576
-0.063048363
-0.61892213
-0.053612242
-0.61693716
-0.045344692
-0.61551525
-0.038108887
-0.61448462
-0.031738334
-0.61373131
-0.02607185
-0.61318031
-0.020965639
-0.61278249
-0.016295449
-0.61250603
-0.011955199
-0.61233072
-0.0078527455
-0.0038996211
-0.62934258
0.019880729
-0.62962145
0.020171532
-0.62992356
0.020729303
-0.63025986
0.021595251
-0.63064417
0.022783377
-0.63109685
0.024323175
-0.63164752
0.026252243
-0.63233856
0.028616291
-0.63322971
0.03146768
-0.6344053
0.034863572
-0.63598323
0.038855071
-0.63811638
0.043455328
-0.64098277
0.048611949
-0.64479829
0.054221537
-0.64982246
0.06001366
-0.65613287
0.065097717
-0.66324945
0.067940265
-0.6703081
0.067609615
-0.67665635
0.064582889
-0.68210997
0.060075272
-0.68692121
0.055239312
-0.69141901
0.050449849
-0.69580911
0.045570165
-0.70024538
0.040471013
-0.70498571
0.035097093
-0.7101932
0.028832515
-0.7156885
0.020483324
-0.72087414
0.0087716091
-0.7249616
-0.0071702587
-0.72679247
-0.028721863
-0.72322502
-0.059051259
-0.70979124
-0.096887022
-0.68722899
-0.12735798
-0.66565026
-0.13247906
-0.64843776
-0.12397216
-0.63629808
-0.10904267
-0.62813337
-0.093412923
-0.62277013
-0.079041562
-0.61926776
-0.066550733
-0.61696742
-0.055912591
-0.61543626
-0.046875847
-0.61439895
-0.039146194
-0.61368294
-0.032454343
-0.61318069
-0.026574101
-0.61282526
-0.021321078
-0.612575
-0.016545707
-0.61240415
-0.01212605
-0.612297
-0.0079598962
-0.0039518179
-0.630497
0.019979358
-0.6306265
0.02030103
-0.63077743
0.020880234
-0.63095415
0.021771965
-0.63116565
0.022994882
-0.63142849
0.024586014
-0.63176911
0.026592862
-0.63222787
0.029075057
-0.63286462
0.032104424
-0.6337677
0.035766656
-0.63506921
0.040156578
-0.63695485
0.045340967
-0.63964955
0.051306658
-0.64343286
0.058004847
-0.64872418
0.065304973
-0.6558224
0.07219594
-0.66410899
0.076226854
-0.67220348
0.075704101
-0.67914221
0.071521624
-0.68469754
0.065630603
-0.68938639
0.059928155
-0.69377051
0.054833969
-0.69812894
0.0499286
-0.70259108
0.044933155
-0.70760293
0.040108938
-0.71358487
0.034814452
-0.72049406
0.027392523
-0.7277239
0.016001445
-0.73427146
-0.00062270378
-0.73919562
-0.023797695
-0.73832455
-0.059922328
-0.72348892
-0.11172266
-0.69247776
-0.15836913
-0.66469251
-0.16026431
-0.64429802
-0.14436665
-0.63138917
-0.12195152
-0.62358145
-0.10122064
-0.61896547
-0.083657548
-0.61625764
-0.06925856
-0.61466498
-0.057505249
-0.61371948
-0.047821349
-0.61315013
-0.03971555
-0.61280105
-0.032803423
-0.61258262
-0.026792523
-0.61244328
-0.021460418
-0.61235338
-0.016635611
-0.61229596
-0.012183469
-0.61226148
-0.0079943794
-0.0039683445
-0.63008505
0.019878082
-0.63003446
0.020250443
-0.63000178
0.020847555
-0.62998264
0.021752826
-0.62997907
0.022991306
-0.63000098
0.024607928
-0.63006766
0.026659545
-0.63021206
0.029219449
-0.63048713
0.032379497
-0.63097641
0.036255939
-0.63181631
0.040996478
-0.63322406
0.046748717
-0.63548568
0.053568278
-0.63894943
0.0614686
-0.64424153
0.070597076
-0.65213587
0.080090281
-0.66194752
0.086038504
-0.6713487
0.085105278
-0.67893218
0.079105099
-0.68436054
0.071058966
-0.68865003
0.064217644
-0.69274312
0.058927054
-0.69704179
0.054227276
-0.70150419
0.049395551
-0.70682858
0.045433335
-0.71384984
0.041835712
-0.7225876
0.036130283
-0.73261104
0.026024886
-0.74189675
0.0086629991
-0.75052241
-0.015172028
-0.75421139
-0.05623335
-0.74046968
-0.12546437
-0.69641498
-0.20242384
-0.6605518
-0.19612749
-0.63703229
-0.16788615
-0.62415177
-0.13483204
-0.61751568
-0.10785673
-0.61423808
-0.086935152
-0.61270389
-0.070792744
-0.61204724
-0.058161899
-0.61182105
-0.048047543
-0.6117971
-0.039739499
-0.61185981
-0.032740716
-0.61195128
-0.026701051
-0.61204323
-0.021368469
-0.61212251
-0.016556328
-0.61218359
-0.012122388
-0.61222455
-0.0079534245
-0.0039479404
-0.62618956
0.019546654
-0.62590186
0.019962749
-0.62561
0.020555694
-0.62530739
0.021450215
-0.62498873
0.022672642
-0.62465528
0.024274487
-0.62431592
0.026320186
-0.62399198
0.028895503
-0.623725
0.032112517
-0.62358838
0.036119321
-0.62371462
0.041122719
-0.62434909
0.047383182
-0.62586153
0.055080724
-0.62866899
0.064276063
-0.63356066
0.075488745
-0.6421627
0.088692323
-0.65403736
0.097913164
-0.66487303
0.095940947
-0.67275447
0.086986539
-0.67706501
0.075369503
-0.67990457
0.067057209
-0.68281406
0.061836544
-0.68641856
0.057831771
-0.69003494
0.053011936
-0.69449662
0.04989501
-0.70160559
0.048944688
-0.71114921
0.045673898
-0.72409144
0.038967121
-0.73555942
0.020130971
-0.74985398
-0.00087746785
-0.76244249
-0.043644838
-0.75915848
-0.12874838
-0.69458511
-0.26699721
-0.65073072
-0.23998188
-0.6253017
-0.19331517
-0.61396123
-0.14617251
-0.60976215
-0.11205581
-0.60860912
-0.088088181
-0.60868365
-0.070718218
-0.60919167
-0.057653879
-0.60980254
-0.047436674
-0.61038422
-0.03915782
-0.61088936
-0.03223557
-0.61130616
-0.02628425
-0.611637
-0.021037638
-0.61188904
-0.01630428
-0.6120702
-0.011941233
-0.61218723
-0.0078363951
-0.0038903685
-0.61276975
0.018727309
-0.61203938
0.019232376
-0.61129284
0.01980915
-0.61050325
0.020660628
-0.6096529
0.021822297
-0.60872974
0.023351324
-0.60772546
0.025315903
-0.60663942
0.027809463
-0.60548611
0.030959211
-0.60430494
0.034938154
-0.60318275
0.040000525
-0.60232795
0.046528384
-0.60215501
0.054907782
-0.60313692
0.065257979
-0.60601174
0.078363563
-0.61372435
0.096404934
-0.62752487
0.11171369
-0.63868756
0.10710363
-0.64545357
0.093752549
-0.64633509
0.076251025
-0.64573012
0.066452241
-0.64566479
0.061771211
-0.64726771
0.059434689
-0.64830109
0.054045317
-0.64943665
0.051030573
-0.65616329
0.055671328
-0.66606976
0.055580367
-0.68383599
0.056733351
-0.69888369
0.035178671
-0.72785572
0.028094556
-0.75026684
-0.021233714
-0.77322745
-0.10578777
-0.67715352
-0.36307115
-0.63076493
-0.28637047
-0.60622185
-0.21785825
-0.59991997
-0.15247438
-0.60026561
-0.11171018
-0.60224862
-0.086105172
-0.60437313
-0.068593712
-0.60623166
-0.055795343
-0.6077553
-0.045913041
-0.60897145
-0.03794167
-0.60992811
-0.031278906
-0.61067124
-0.025541122
-0.61123896
-0.020469913
-0.61166105
-0.015882193
-0.6119598
-0.011642478
-0.61215112
-0.0076450757
-0.0037965428
-0.5847772
0.01748361
-0.58350761
0.017962791
-0.58213879
0.018440324
-0.58066651
0.019188351
-0.57906456
0.020220349
-0.57730207
0.021588832
-0.57534241
0.023356238
-0.57314572
0.025612774
-0.57067441
0.028487902
-0.56790127
0.032165019
-0.56482498
0.036924234
-0.56155282
0.043256221
-0.5585288
0.051883765
-0.55652305
0.063252229
-0.55614214
0.077982656
-0.56152396
0.10178676
-0.58048694
0.13067667
-0.59265087
0.11926756
-0.59890852
0.1000102
-0.59403438
0.071376892
-0.58775692
0.060174776
-0.58243537
0.056449659
-0.58156043
0.058559756
-0.57951822
0.052003101
-0.57387039
0.045382742
-0.58519144
0.032529699
-0.59561875
0.037439179
-0.6046814
0.040313749
-0.60342957
0.020480495
-0.63525555
0.039879474
-0.71434561
0.019775027
-0.66918387
-0.054713309
-0.60685455
-0.22709751
-0.57379905
-0.31942596
-0.57150793
-0.22014937
-0.58113677
-0.14284554
-0.58945228
-0.10339467
-0.59561855
-0.079938901
-0.60008648
-0.064125785
-0.60336083
-0.05252099
-0.6057962
-0.043477676
-0.60762932
-0.036108549
-0.60901856
-0.029889665
-0.61007175
-0.024487927
-0.61086355
-0.01967812
-0.61144607
-0.015299666
-0.61185565
-0.011232901
-0.61211694
-0.0073837883
-0.003668576
-0.52685199
0.015072804
-0.52435448
0.015465281
-0.52170142
0.015787267
-0.51885063
0.016337555
-0.51574784
0.017117557
-0.51232524
0.01816624
-0.50849717
0.019528163
-0.50415847
0.021274077
-0.49918493
0.02351436
-0.49343862
0.026418712
-0.48677645
0.030262062
-0.47909394
0.035573715
-0.4705872
0.043377031
-0.46222379
0.054888813
-0.4543542
0.070113072
-0.44760233
0.095034888
-0.47078729
0.15386163
-0.47001971
0.11849998
-0.46090241
0.090892911
-0.42704289
0.037517375
-0.39542932
0.028561207
-0.36803365
0.029053987
-0.30349499
0.020766134
-0.16302563
0.013465588
-0.041156517
0.0077730073
0
0
0
0
0
0
0
0
0
0
0
0
0
0