/*--------------------------------*- C++ -*----------------------------------*\
| =========                 |                                                 |
| \\      /  F ield         | foam-extend: Open Source CFD                    |
|  \\    /   O peration     | Version:     4.1                                |
|   \\  /    A nd           | Web:         http://www.foam-extend.org         |
|    \\/     M anipulation  |                                                 |
\*---------------------------------------------------------------------------*/
FoamFile
{
    version     2.0;
    format      ascii;
    class       volScalarField;
    location    "0.7";
    object      rAU;
}
// * * * * * * * * * * * * * * * * * * * * * * * * * * * * * * * * * * * * * //

dimensions      [0 0 1 0 0 0 0];

internalField   nonuniform List<scalar> 
4393
(
0.00022764306
0.00022726928
0.00022690328
0.00022652943
0.00022614564
0.00022575047
0.00022534154
0.00022491767
0.00022447801
0.00022402235
0.00022355131
0.00022306637
0.00022257005
0.00022206588
0.00022155824
0.00022105327
0.00022055676
0.0002200757
0.00021961773
0.00021919043
0.00021880153
0.00021845871
0.00021816948
0.00021794101
0.00021777996
0.00021769225
0.00021768254
0.00021768254
0.00021775411
0.00021790809
0.00021814263
0.00021845274
0.00021883023
0.00021926406
0.00021974096
0.00022024641
0.00022076557
0.00022128426
0.00022178965
0.00022227074
0.00022271856
0.00022312616
0.00022348847
0.00022380207
0.00022406483
0.00022427577
0.00022443498
0.00022454296
0.00022458508
0.0002245107
0.00022419025
0.00022388474
0.00022357018
0.00022324381
0.00022290398
0.00022254847
0.00022217642
0.00022178741
0.00022138182
0.0002209609
0.00022052695
0.00022008334
0.00021963453
0.00021918584
0.0002187443
0.0002183165
0.00021791004
0.00021753299
0.00021719321
0.00021689855
0.00021665668
0.00021647503
0.00021636059
0.00021631968
0.00021635771
0.00021644436
0.00021641729
0.00021646051
0.00021658741
0.00021679951
0.00021709525
0.00021746949
0.00021791348
0.00021841522
0.00021896045
0.00021953368
0.0002201194
0.00022070305
0.00022127169
0.00022181443
0.00022232257
0.00022278951
0.00022321051
0.00022358231
0.00022390279
0.00022417106
0.00022438863
0.00022454272
0.00022400537
0.00022369675
0.00022339666
0.00022308502
0.0002227591
0.0002224174
0.00022205791
0.00022168006
0.00022128384
0.00022087015
0.0002204409
0.00021999913
0.0002195491
0.00021909625
0.00021864692
0.00021820911
0.0002177903
0.00021739885
0.00021704334
0.00021673197
0.00021647277
0.00021627348
0.0002161415
0.00021608375
0.00021610639
0.00021621446
0.00021630116
0.0002161821
0.00021614385
0.00021619342
0.00021633573
0.00021657245
0.00021690104
0.00021731432
0.00021780077
0.00021834548
0.00021893149
0.00021954133
0.00022015823
0.0002207671
0.0002213551
0.00022191188
0.00022242951
0.00022290226
0.00022332613
0.00022369849
0.00022401826
0.00022428554
0.00022448063
0.00022365004
0.00022334681
0.00022304665
0.00022273187
0.00022240003
0.00022204982
0.00022167939
0.00022128842
0.00022087722
0.00022044714
0.00022000069
0.00021954164
0.00021907516
0.00021860773
0.00021814682
0.00021770159
0.0002172806
0.0002168931
0.00021654841
0.00021625518
0.00021602175
0.00021585606
0.00021576564
0.00021575754
0.00021583801
0.00021601212
0.00021609355
0.00021588844
0.00021576587
0.00021573638
0.00021580867
0.00021598796
0.00021627439
0.00021666222
0.0002171399
0.00021769131
0.00021829742
0.00021893822
0.00021959438
0.00022024841
0.00022088548
0.0002214936
0.00022206367
0.00022258909
0.00022306537
0.00022348968
0.00022386081
0.00022417778
0.00022442245
0.00022328817
0.00022298909
0.00022268925
0.00022237167
0.00022203404
0.00022167522
0.00022129347
0.00022088864
0.00022046132
0.00022001324
0.00021954742
0.00021906838
0.00021858218
0.0002180964
0.00021761974
0.00021716266
0.00021673497
0.00021634695
0.00021600871
0.00021572943
0.00021551778
0.00021538192
0.00021532958
0.00021536809
0.00021550406
0.00021574286
0.00021582981
0.00021553422
0.00021532338
0.00021521183
0.0002152127
0.00021533527
0.00021558268
0.00021595048
0.00021642663
0.00021699305
0.00021762785
0.00021830782
0.00021901054
0.00021971589
0.00022040689
0.00022107001
0.00022169507
0.00022227484
0.00022280452
0.00022328127
0.00022370378
0.0002240709
0.00022436677
0.00022291049
0.00022261611
0.00022231764
0.00022199819
0.00022165558
0.00022128868
0.00022089584
0.00022047699
0.00022003292
0.00021956563
0.00021907864
0.00021857713
0.00021806806
0.00021756018
0.00021706357
0.00021659017
0.00021615119
0.00021575816
0.00021542203
0.00021515255
0.00021495869
0.00021484884
0.000214831
0.00021491291
0.00021510181
0.00021540385
0.00021551144
0.00021511956
0.00021481481
0.00021461642
0.00021454275
0.00021460805
0.00021481893
0.0002151722
0.00021565471
0.00021624548
0.00021691873
0.00021764718
0.00021840473
0.00021916824
0.0002199185
0.00022064051
0.00022132321
0.00022195898
0.00022254301
0.00022307267
0.00022354684
0.00022396483
0.00022431255
0.00022251749
0.00022222848
0.00022193241
0.00022161211
0.00022126535
0.00022089098
0.00022048732
0.00022005431
0.00021959281
0.00021910503
0.00021859487
0.00021806813
0.00021753267
0.00021699849
0.00021647722
0.00021598251
0.00021552729
0.00021512444
0.00021478593
0.00021452204
0.000214342
0.00021425431
0.00021426728
0.00021438921
0.00021462827
0.00021499189
0.00021514045
0.000214645
0.00021423888
0.00021394678
0.00021379354
0.00021379961
0.00021397596
0.00021432061
0.00021481855
0.00021544461
0.0002161678
0.00021695566
0.00021777763
0.00021860715
0.00021942271
0.0002202079
0.00022095104
0.00022164442
0.00022228348
0.00022286609
0.00022339168
0.00022386038
0.00022425953
0.00022211118
0.00022182889
0.0002215364
0.00022121626
0.0002208662
0.00022048495
0.00022007071
0.00021962333
0.0002191436
0.00021863385
0.00021809822
0.00021754306
0.00021697714
0.0002164118
0.00021586041
0.0002153387
0.00021486161
0.00021444371
0.00021409804
0.00021383536
0.000213665
0.00021359549
0.00021363532
0.00021379347
0.0002140794
0.00021450242
0.00021471841
0.00021411046
0.00021359329
0.00021319809
0.00021295777
0.00021290089
0.00021304403
0.00021338658
0.00021391054
0.00021458484
0.00021537149
0.00021623144
0.00021712876
0.00021803309
0.00021892051
0.00021977345
0.0002205799
0.00022133241
0.00022202708
0.00022266255
0.0002232391
0.00022375794
0.00022420767
0.00022169325
0.00022141854
0.00022113071
0.0002208118
0.00022045936
0.00022007192
0.00021964745
0.00021918556
0.00021868688
0.00021815364
0.00021759011
0.00021700308
0.0002164022
0.00021580022
0.00021521258
0.00021465745
0.00021415232
0.00021371376
0.00021335601
0.00021309018
0.00021292545
0.00021287006
0.00021293257
0.00021312269
0.00021345149
0.00021393088
0.00021424822
0.00021351702
0.00021287657
0.00021236574
0.00021202771
0.00021190188
0.0002120125
0.0002123605
0.0002129233
0.00021366154
0.00021452784
0.00021547476
0.00021645995
0.0002174488
0.0002184151
0.00021934039
0.00022021279
0.00022102561
0.00022177597
0.0002224637
0.00022309026
0.00022365811
0.00022415712
0.00022126571
0.00022100045
0.0002207187
0.00022040221
0.00022004841
0.00021965555
0.00021922127
0.0002187448
0.00021822642
0.00021766808
0.000217074
0.00021645124
0.00021581025
0.00021516529
0.00021453419
0.00021393818
0.00021339791
0.00021293251
0.00021255749
0.00021228413
0.00021212099
0.00021207561
0.00021215632
0.00021237348
0.00021274014
0.00021327161
0.00021373328
0.00021286606
0.0002120871
0.00021144423
0.00021099375
0.00021078993
0.00021086786
0.00021123036
0.00021184796
0.00021266948
0.00021363498
0.00021468635
0.00021577364
0.00021685771
0.00021791021
0.00021891237
0.00021985305
0.00022072685
0.00022153247
0.00022227132
0.00022294639
0.00022356158
0.00022410816
0.00022083119
0.00022057598
0.00022030141
0.00021998853
0.00021963448
0.00021923711
0.0002187936
0.00021830265
0.00021776398
0.00021717902
0.0002165517
0.00021588912
0.0002152024
0.00021450736
0.00021382458
0.00021317916
0.00021259587
0.00021209705
0.00021169968
0.00021141478
0.00021124961
0.00021121035
0.00021130458
0.00021154316
0.00021194139
0.00021251888
0.00021317888
0.00021216078
0.00021122454
0.00021042828
0.00020984508
0.00020955
0.00020959397
0.00020998233
0.00021067503
0.00021160411
0.00021269261
0.000213869
0.00021507449
0.00021626523
0.00021741135
0.00021849448
0.00021950507
0.00022043977
0.00022129946
0.00022208758
0.00022280898
0.00022346924
0.00022406115
0.00022039068
0.00022014807
0.00021988246
0.00021957471
0.00021922179
0.00021882112
0.00021836931
0.00021786434
0.00021730509
0.00021669221
0.00021602898
0.00021532225
0.00021458354
0.00021383021
0.000213086
0.00021238093
0.00021174527
0.0002112056
0.00021078059
0.00021048034
0.00021030982
0.00021027286
0.00021037557
0.00021062893
0.00021105066
0.00021166571
0.00021248559
0.00021140576
0.00021028973
0.0002093126
0.00020856891
0.00020816318
0.00020817036
0.00020859936
0.00020939374
0.00021046126
0.00021170199
0.00021302759
0.00021436926
0.00021567875
0.00021692558
0.00021809303
0.00021917419
0.0002201687
0.00022108027
0.00022191493
0.00022267973
0.00022338211
0.00022401657
0.00021994936
0.00021971945
0.00021946385
0.00021916256
0.00021881213
0.00021840945
0.00021795038
0.00021743198
0.00021685203
0.00021621003
0.00021550818
0.00021475268
0.00021395505
0.00021313397
0.00021231684
0.00021153994
0.00021084112
0.00021025277
0.00020979548
0.00020947743
0.00020929971
0.00020926233
0.00020936889
0.0002096298
0.00021006518
0.0002107063
0.00021159319
0.00021060901
0.0002092861
0.00020809294
0.00020715059
0.00020660579
0.00020657096
0.00020706066
0.0002079922
0.00020923804
0.00021066704
0.00021217015
0.00021366777
0.00021510821
0.00021646203
0.00021771583
0.0002188668
0.00021991866
0.00022087876
0.00022175619
0.00022256054
0.00022330135
0.00022397495
0.00021950595
0.00021929207
0.00021904868
0.0002187558
0.00021840984
0.00021800711
0.00021754264
0.00021701235
0.0002164126
0.00021574125
0.00021499893
0.00021419054
0.00021332702
0.00021242788
0.00021152441
0.00021066104
0.00020988612
0.00020924028
0.00020874637
0.00020840904
0.00020822307
0.00020818274
0.00020828785
0.00020854735
0.00020898342
0.00020963464
0.00021055402
0.00020978231
0.00020822066
0.00020676691
0.00020557345
0.00020484737
0.00020476148
0.00020534015
0.00020645735
0.00020793363
0.00020959543
0.00021130887
0.0002129836
0.00021456659
0.00021603206
0.00021737228
0.00021859038
0.00021969541
0.0002206992
0.00022161443
0.00022245352
0.00022322825
0.0002239369
0.0002190712
0.00021887284
0.00021864268
0.00021835979
0.0002180201
0.00021761922
0.00021715118
0.00021661053
0.00021599183
0.00021529081
0.00021450577
0.0002136396
0.00021270177
0.00021171171
0.00021070455
0.00020973524
0.00020886731
0.0002081535
0.00020761957
0.00020726411
0.00020707198
0.00020702899
0.00020712948
0.00020737949
0.00020780206
0.0002084436
0.00020937291
0.00020894223
0.00020710562
0.00020533591
0.00020381929
0.00020284839
0.00020269565
0.00020340481
0.00020477527
0.00020655089
0.00020850045
0.00021046159
0.00021233507
0.00021407042
0.00021564949
0.00021707339
0.00021835337
0.00021950528
0.00022054622
0.00022149294
0.00022236089
0.00022316419
0.00022390306
0.00021863663
0.00021845776
0.00021824327
0.00021797261
0.00021764167
0.00021724543
0.00021677686
0.00021622891
0.00021559404
0.0002148652
0.00021403757
0.00021311097
0.00021209222
0.00021099909
0.00020986958
0.00020877195
0.00020779184
0.00020700022
0.0002064265
0.00020605885
0.00020586629
0.00020582225
0.00020591395
0.00020614299
0.00020653154
0.00020713418
0.00020803925
0.00020811444
0.00020596146
0.00020380822
0.00020187008
0.00020055703
0.00020030899
0.00020121228
0.00020293211
0.000205099
0.00020740359
0.00020965375
0.00021174639
0.00021364034
0.00021533078
0.00021683169
0.00021816509
0.00021935501
0.00022042465
0.00022139509
0.00022228493
0.00022311056
0.00022387411
0.0002182251
0.00021806456
0.00021786685
0.00021761049
0.00021729096
0.0002169025
0.00021643685
0.00021588517
0.00021523732
0.0002144828
0.00021361249
0.00021262176
0.00021151316
0.00021030028
0.00020902147
0.00020776109
0.00020663786
0.00020575151
0.00020513658
0.00020476448
0.00020457953
0.00020453805
0.00020461949
0.00020481981
0.00020515652
0.00020569056
0.00020653267
0.00020732756
0.00020481779
0.0002022043
0.00019971269
0.00019790615
0.00019750867
0.00019870785
0.00020091612
0.00020359778
0.0002063385
0.00020892094
0.00021124899
0.0002133015
0.00021509488
0.00021666101
0.00021803535
0.00021925154
0.00022033931
0.0002213242
0.00022222784
0.00022306874
0.00022385073
0.00021781604
0.00021767806
0.00021749949
0.00021725971
0.00021695437
0.00021657709
0.0002161184
0.00021556752
0.00021491155
0.0002141359
0.00021322602
0.00021217122
0.00021096799
0.00020962243
0.00020816781
0.00020670614
0.00020540628
0.00020441443
0.00020377203
0.00020342263
0.00020327032
0.00020324655
0.00020332266
0.00020348763
0.00020374686
0.00020416326
0.00020487474
0.00020604134
0.00020373454
0.0002005718
0.00019735185
0.00019481448
0.00019415837
0.00019582206
0.00019872226
0.00020208505
0.00020535667
0.00020831216
0.00021088275
0.00021308367
0.00021496292
0.00021657586
0.00021797402
0.00021920149
0.00022029467
0.00022128329
0.00022219163
0.00022303997
0.00022383354
0.00021746711
0.00021734997
0.00021719192
0.00021697165
0.00021668465
0.00021632393
0.00021587884
0.00021533663
0.0002146813
0.00021389354
0.00021295172
0.00021183644
0.00021053542
0.00020904265
0.00020737577
0.0002056509
0.00020411349
0.00020298832
0.00020232571
0.00020202468
0.00020192388
0.00020192037
0.00020198272
0.00020209857
0.00020225192
0.00020250175
0.00020301861
0.00020404911
0.00020277875
0.00019900292
0.00019485034
0.00019121218
0.00019006202
0.00019247121
0.00019636096
0.00020062837
0.00020453569
0.00020789368
0.00021069702
0.00021302086
0.0002149573
0.00021659066
0.00021799028
0.00021921076
0.00022029456
0.00022127488
0.00022217798
0.00022302532
0.00022382307
0.00021719945
0.00021710755
0.00021697396
0.0002167777
0.00021651462
0.00021617718
0.00021575356
0.00021522902
0.00021458435
0.00021379512
0.00021283134
0.00021166213
0.00021026385
0.00020861511
0.00020670237
0.00020464047
0.00020279234
0.0002015226
0.00020088888
0.00020071987
0.00020074363
0.00020080906
0.00020089325
0.0002009962
0.00020105473
0.00020110047
0.00020133378
0.0002020634
0.00020232527
0.00019782474
0.0001924538
0.00018712672
0.00018496119
0.00018857478
0.0001938846
0.00019934804
0.00020399211
0.00020775349
0.00021075077
0.00021314985
0.00021510003
0.00021671832
0.00021809168
0.00021928382
0.00022034172
0.00022130072
0.00022218804
0.00022302556
0.00022381976
0.00021725861
0.00021719483
0.00021709171
0.00021692726
0.00021669769
0.0002163952
0.00021600735
0.00021551803
0.00021490558
0.00021414105
0.00021318564
0.00021199344
0.00021052409
0.00020873711
0.0002065642
0.00020407032
0.0002017893
0.00020035285
0.00019980807
0.00019988207
0.00020010828
0.00020026888
0.00020036635
0.00020045205
0.00020037163
0.00020009459
0.00019988399
0.00020010288
0.0002011847
0.00019740264
0.00019066272
0.00018291858
0.00017861649
0.00018416617
0.00019147004
0.00019845467
0.00020389719
0.00020800419
0.00021111033
0.00021350699
0.00021541009
0.0002169684
0.00021828293
0.00021942299
0.00022043735
0.00022136152
0.00022222231
0.00022304106
0.00022382385
0.00021801613
0.00021798735
0.00021792932
0.00021781484
0.00021764015
0.00021739739
0.00021707404
0.00021665324
0.00021611118
0.00021541448
0.00021451454
0.00021334488
0.000211838
0.00020993242
0.0002074884
0.0002044173
0.00020147989
0.00019988396
0.0001995837
0.00020018103
0.00020082485
0.00020120994
0.00020138761
0.00020158508
0.00020150386
0.00020093491
0.00020031669
0.00019986219
0.00020080875
0.00019976381
0.00019129869
0.00018002313
0.00017094991
0.00017965999
0.00018948127
0.00019827357
0.00020449022
0.000208782
0.00021184312
0.0002141223
0.00021589941
0.00021734476
0.00021856461
0.00021962775
0.00022058074
0.00022145673
0.0002222805
0.00022307176
0.00022383539
0.00022066343
0.00022071169
0.00022074164
0.00022072118
0.00022064846
0.00022051652
0.00022031406
0.00022002517
0.00021962611
0.00021908205
0.00021833912
0.00021731274
0.0002159
0.00021401819
0.00021146664
0.00020778899
0.00020388613
0.0002023686
0.00020272797
0.00020450924
0.00020601268
0.00020691444
0.00020732689
0.00020798027
0.00020832375
0.0002073253
0.00020619019
0.00020432566
0.00020496051
0.00020348492
0.00019650143
0.00018118373
0.00016222268
0.00017631075
0.00018869962
0.00019949865
0.00020615056
0.00021024763
0.00021300512
0.00021501006
0.00021656756
0.00021784288
0.00021893189
0.0002198941
0.00022076897
0.00022158442
0.00022236146
0.00022311709
0.0002238542
0.00022642397
0.00022656723
0.00022673005
0.00022685784
0.00022694835
0.00022699669
0.00022699568
0.00022693449
0.00022679477
0.00022654686
0.0002261397
0.00022547542
0.00022439116
0.00022272234
0.00022022457
0.00021577077
0.00020956918
0.00020824982
0.00020948829
0.00021349328
0.00021646628
0.00021835834
0.00021897305
0.00022040829
0.0002221052
9.3008718e-05
9.5434082e-05
9.7691948e-05
9.988208e-05
0.00010288172
9.4463594e-05
8.6205061e-05
0.00010657223
0.00017933608
0.00019343547
0.00020412871
0.00020945582
0.00021253579
0.00021460655
0.00021615291
0.00021739548
0.00021844753
0.00021937369
0.00022021434
0.00022099684
0.00022174122
0.00022246314
0.00022317596
0.00022387987
0.00023925044
0.00023969834
0.00024019959
0.00024068609
0.00024116691
0.00024164617
0.00024212868
0.00024261818
0.0002431135
0.00024360392
0.0002440567
0.00024437907
0.00024435025
0.00024363441
0.00024201544
0.00023808386
0.00022682985
0.00022936495
0.00023549838
0.00025023668
0.00026144546
0.00027024467
0.00012828417
0.00016688862
0.00032273215
0.00046159144
0.00049956686
0.00049956686
0.00049956686
0.00049956686
0.00049956686
0.00045031281
0.00033649959
6.8075543e-05
0.00021297585
0.00021346256
0.00021438019
0.00021549559
0.00021653748
0.00021748201
0.00021834063
0.00021913198
0.00021987287
0.00022057733
0.00022125712
0.00022192249
0.00022258273
0.00022324681
0.00022391173
0.00026428062
0.00026528982
0.00026644425
0.00026764146
0.000268902
0.00027025047
0.00027172099
0.00027335659
0.00027521041
0.00027735
0.00027986178
0.00028284316
0.00028639558
0.00029057194
0.00029521187
0.00030237637
0.00027347949
0.00030505644
0.00035664873
0.00037257134
0.00027836968
0.00031992254
0.00049956686
0.00049956686
0.00049956686
0.00049956686
0.00049956686
0.00049956686
0.00049956686
0.00049956686
0.00041263261
0.00041826714
0.00010203766
0.00026659306
0.00023114193
0.00022209855
0.00021927659
0.00021853597
0.00021855525
0.00021888264
0.00021934221
0.00021986114
0.00022040798
0.00022096949
0.00022154107
0.00022212267
0.00022271677
0.0002233277
0.00022394895
0.00030196799
0.00030411144
0.00030624234
0.00030844545
0.0003107953
0.00031336469
0.00031623958
0.00031953322
0.00032340503
0.00032809859
0.00033401005
0.00034171463
0.00035174319
0.00036475505
0.00038492405
0.00040154359
0.00025718339
0.00025313174
0.00026350957
0.00048912769
0.00047855645
0.0004885204
0.00047869845
0.00047372152
0.00047746523
0.0004586577
0.00045171884
0.00045351572
0.00044093531
0.00043651934
0.00010691729
0.00010766982
0.00021977279
0.00025235569
0.00023694973
0.00022741195
0.00022311696
0.00022122006
0.0002204503
0.00022024551
0.00022033892
0.00022059855
0.00022095635
0.00022137629
0.00022183924
0.0002223356
0.0002228614
0.00022341639
0.00022399051
0.00028854966
0.00028906759
0.00028925711
0.00028944334
0.00028962837
0.00028984417
0.00029011673
0.00029048293
0.00029099572
0.00029173271
0.00029281606
0.0002938593
0.00029479834
0.00029555888
0.00029291815
0.00010292833
0.00037622395
0.0004708067
0.00047256066
0.00049383709
0.00048613825
0.00048245073
0.00012420963
0.00012127893
0.00010076965
0.00010005353
0.00010062835
0.0001019721
0.00010292653
0.00010452085
0.00020120729
0.00020767604
0.00021807999
0.00023901242
0.00023963121
0.0002307625
0.00022595877
0.0002234179
0.00022210914
0.00022149355
0.00022128098
0.00022131208
0.00022149695
0.00022178375
0.00022214228
0.0002225551
0.00022301264
0.00022351052
0.00022403531
0.00022327092
0.00022310348
0.00022281555
0.00022253732
0.00022227656
0.00022205042
0.00022187488
0.00022177328
0.00022177793
0.00022193372
0.00022230559
0.00022209202
0.00022116047
0.00021941379
0.00021672529
0.00021314323
9.5857696e-05
9.9100708e-05
9.9868553e-05
9.9773358e-05
0.00010014908
0.00010017583
0.00021253922
0.00021081305
0.0002089292
0.00020554312
0.00020443458
0.0002038781
0.00020210696
0.00020212494
0.00020330507
0.0002090108
0.00021823372
0.00023217273
0.00023802051
0.00023248285
0.00022785828
0.00022509024
0.00022347685
0.0002225799
0.00022213341
0.00022197678
0.00022201224
0.00022217963
0.00022244167
0.0002227753
0.00022316657
0.0002236077
0.00022408222
0.00021926805
0.00021934804
0.00021947448
0.00021960988
0.0002197655
0.00021995347
0.00022018636
0.00022048025
0.00022085444
0.00022133175
0.00022186429
0.00022156662
0.00022081103
0.00021957495
0.00021780118
0.00021498712
0.0002125043
0.00021402684
0.00021587731
0.00021421424
0.00021238109
0.00021121521
0.00021005848
0.0002083366
0.00020730272
0.0002056852
0.00020477894
0.00020420442
0.00020347845
0.00020394704
0.00020593077
0.00021088669
0.00021854612
0.00022810567
0.0002338293
0.00023318281
0.00022902137
0.00022628671
0.00022454904
0.00022348558
0.00022287632
0.00022257584
0.00022248909
0.00022255403
0.00022273012
0.00022299096
0.00022331962
0.00022370567
0.00022413012
0.00021789175
0.00021797132
0.00021809663
0.00021823536
0.00021839035
0.00021856918
0.00021878035
0.00021903497
0.00021934556
0.00021972582
0.00021997754
0.0002194853
0.00021872698
0.00021765246
0.00021622517
0.00021438957
0.00021325882
0.00021411064
0.00021526943
0.0002134949
0.00021190148
0.00021068224
0.00020952553
0.00020831044
0.00020735556
0.0002062965
0.00020564605
0.00020528534
0.00020521085
0.0002060864
0.00020832974
0.00021261854
0.00021875714
0.00022561254
0.00023029799
0.00023231214
0.000229628
0.000227082
0.00022534821
0.00022421097
0.00022350217
0.00022309999
0.00022291889
0.00022289973
0.0002230019
0.00022319775
0.00022346864
0.00022380237
0.00022417798
0.00021721353
0.00021733449
0.00021747419
0.00021762519
0.00021779345
0.00021798539
0.00021820719
0.00021846636
0.00021876992
0.00021912326
0.00021921341
0.00021877014
0.00021811843
0.00021722828
0.0002160794
0.00021482012
0.00021419331
0.00021469708
0.00021503897
0.00021341138
0.00021201372
0.00021086166
0.00020980404
0.00020882241
0.00020800224
0.00020726658
0.0002068479
0.00020673298
0.00020702896
0.00020812183
0.0002103339
0.00021399085
0.00021886896
0.00022400767
0.00022786129
0.00023021699
0.00022984715
0.00022756008
0.00022591141
0.00022476909
0.00022401272
0.00022354623
0.00022329706
0.00022321204
0.00022325285
0.00022339223
0.00022361103
0.00022389604
0.00022422486
0.00021692424
0.00021699727
0.00021711322
0.00021724833
0.0002174007
0.00021757386
0.00021777159
0.00021799879
0.00021825934
0.00021855474
0.00021852184
0.00021813222
0.00021759958
0.00021691233
0.00021608299
0.00021528883
0.00021497537
0.00021536373
0.00021499583
0.00021359455
0.000212369
0.00021132234
0.00021038877
0.00020956826
0.00020889381
0.00020837555
0.00020813466
0.00020820749
0.00020871109
0.00020988653
0.00021195169
0.00021504921
0.00021894944
0.00022294186
0.00022613762
0.00022830229
0.00022929997
0.00022779459
0.0002262791
0.00022517943
0.00022441569
0.00022391619
0.00022362234
0.00022348854
0.00022348029
0.00022357195
0.00022374476
0.00022398521
0.00022426998
0.00021678154
0.00021689451
0.00021702001
0.00021715566
0.00021730545
0.00021747246
0.00021765839
0.00021786508
0.00021809259
0.00021833776
0.00021824786
0.00021789905
0.00021744672
0.00021689556
0.00021628563
0.0002157758
0.00021563336
0.0002159622
0.00021504867
0.00021385918
0.00021279583
0.0002118697
0.00021106042
0.00021037554
0.00020983794
0.00020948017
0.0002093775
0.00020958252
0.00021019659
0.00021137574
0.00021325587
0.0002158815
0.00021904115
0.00022223206
0.00022490676
0.00022685532
0.00022808884
0.00022785135
0.00022649089
0.00022546412
0.00022472231
0.00022421469
0.000223896
0.0002237287
0.00022368288
0.00022373532
0.00022386837
0.00022406876
0.0002243127
0.00021670815
0.00021677821
0.00021688456
0.00021700778
0.00021714538
0.00021729847
0.00021746723
0.00021765187
0.00021785049
0.00021805761
0.00021796711
0.00021768183
0.0002173258
0.00021691217
0.00021648928
0.00021618203
0.00021615531
0.00021618196
0.00021514083
0.00021413964
0.0002132283
0.00021242656
0.00021173693
0.00021117275
0.00021075675
0.00021052445
0.00021053029
0.00021082686
0.00021149421
0.00021263402
0.00021432429
0.00021655872
0.0002191561
0.00022176327
0.00022402237
0.00022575911
0.00022694791
0.00022750521
0.00022658096
0.00022564492
0.00022494525
0.00022444844
0.00022412109
0.0002239334
0.00022386034
0.00022388155
0.00022398093
0.00022414588
0.00022435254
0.00021665478
0.00021674627
0.00021685304
0.0002169691
0.00021709603
0.00021723481
0.00021738454
0.00021754405
0.00021770998
0.00021787556
0.00021779588
0.00021755786
0.00021727537
0.00021696732
0.00021668144
0.00021651134
0.00021656234
0.00021610959
0.00021525419
0.00021441756
0.00021364652
0.00021296608
0.00021239006
0.00021193577
0.00021162666
0.00021149594
0.00021158649
0.00021194461
0.00021263041
0.00021370903
0.00021521996
0.00021713268
0.00021929826
0.00022146628
0.00022339119
0.00022493269
0.00022605091
0.00022677586
0.00022657948
0.0002257421
0.00022509738
0.00022462509
0.00022430173
0.00022410456
0.00022401325
0.00022401049
0.00022408198
0.00022421607
0.00022438916
0.00021662256
0.00021668917
0.00021678407
0.00021689136
0.00021700885
0.00021713626
0.00021727168
0.00021741294
0.00021755568
0.00021769244
0.00021764722
0.0002174591
0.00021724513
0.00021702642
0.00021684574
0.00021677272
0.00021670947
0.00021608878
0.00021538631
0.00021469263
0.0002140492
0.00021348289
0.00021301273
0.00021265824
0.00021244267
0.00021239558
0.00021255184
0.00021294956
0.0002136323
0.00021464025
0.00021598853
0.00021763706
0.00021946601
0.0002212947
0.00022294818
0.00022431474
0.00022535112
0.00022606694
0.00022637945
0.00022577321
0.00022519085
0.00022475247
0.00022444267
0.00022424479
0.00022414285
0.00022412251
0.00022417143
0.00022427908
0.00022442237
0.00021659865
0.00021667102
0.00021676138
0.00021685986
0.00021696612
0.00021707979
0.00021719856
0.00021731976
0.00021743871
0.00021754806
0.0002175371
0.00021739064
0.00021723281
0.00021708456
0.00021698222
0.00021695122
0.00021664446
0.00021610999
0.00021553556
0.00021496624
0.0002144379
0.00021397692
0.00021360415
0.00021333973
0.00021320581
0.0002132281
0.00021343509
0.00021385681
0.00021452376
0.00021545912
0.00021666332
0.0002180945
0.00021965702
0.00022121788
0.00022264868
0.00022386064
0.00022481225
0.00022550172
0.00022595336
0.00022575353
0.00022523674
0.00022483822
0.00022454887
0.0002243571
0.00022425078
0.0002242184
0.00022424953
0.0002243349
0.00022445209
0.00021658767
0.00021664774
0.0002167303
0.00021682135
0.00021691895
0.00021702213
0.00021712814
0.000217234
0.00021733494
0.00021742397
0.00021744836
0.00021733916
0.00021722858
0.00021713626
0.00021709235
0.00021696885
0.00021660091
0.00021616593
0.00021570022
0.00021523946
0.00021481429
0.00021444935
0.00021416534
0.00021398184
0.00021391919
0.00021399945
0.00021424562
0.0002146806
0.00021532491
0.00021619024
0.00021726863
0.00021852028
0.00021986885
0.0002212145
0.00022246072
0.00022353683
0.00022440521
0.00022505811
0.00022550928
0.00022566416
0.00022524478
0.00022488943
0.00022462523
0.00022444468
0.00022433901
0.00022429922
0.00022431677
0.00022438369
0.00022447832
0.00021658392
0.00021664254
0.00021671949
0.00021680276
0.00021689099
0.00021698318
0.00021707647
0.00021716785
0.00021725277
0.0002173249
0.00021736714
0.00021730028
0.00021722802
0.00021717902
0.00021711409
0.00021690039
0.00021659983
0.00021624958
0.00021587743
0.00021551194
0.00021517908
0.00021490114
0.00021469758
0.00021458662
0.0002145864
0.00021471551
0.00021499222
0.00021543343
0.00021605214
0.00021685244
0.00021782195
0.00021892454
0.00022009901
0.00022126905
0.00022236072
0.00022331753
0.00022410647
0.00022471713
0.00022515649
0.00022544269
0.00022522333
0.00022491254
0.00022467641
0.00022451076
0.0002244096
0.00022436622
0.00022437383
0.00022442573
0.00022450117
0.00021658867
0.00021664083
0.00021671196
0.00021678872
0.00021686924
0.00021695238
0.00021703522
0.00021711487
0.00021718716
0.00021724653
0.00021728591
0.00021726913
0.00021722768
0.00021717781
0.00021706254
0.00021687303
0.00021663186
0.00021635501
0.00021606431
0.00021578289
0.00021553269
0.00021533338
0.00021520261
0.00021515676
0.00021521159
0.00021538243
0.00021568347
0.00021612665
0.00021671945
0.00021746095
0.0002183368
0.00021931498
0.00022034611
0.00022137089
0.00022233184
0.00022318361
0.00022389786
0.00022446342
0.00022488313
0.00022516955
0.00022517974
0.00022491335
0.00022470683
0.00022455851
0.00022446475
0.00022442078
0.00022442147
0.00022446142
0.00022452077
0.00021659935
0.00021664824
0.00021671439
0.00021678488
0.00021685804
0.00021693273
0.00021700616
0.00021707567
0.00021713756
0.00021718712
0.00021721857
0.00021722525
0.00021719965
0.00021713594
0.00021702818
0.0002168772
0.00021668898
0.00021647656
0.00021625754
0.00021605079
0.0002158748
0.00021574665
0.00021568185
0.0002156947
0.00021579852
0.00021600566
0.00021632673
0.00021676969
0.0002173379
0.00021802725
0.00021882282
0.00021969658
0.00022060838
0.0002215115
0.00022236073
0.00022311956
0.00022376403
0.00022428337
0.00022467803
0.00022495679
0.00022509765
0.00022489681
0.0002247204
0.00022459089
0.00022450653
0.0002244643
0.00022446055
0.00022449116
0.00022453729
0.00021661542
0.00021666034
0.00021672201
0.00021678713
0.00021685396
0.00021692143
0.00021698691
0.00021704807
0.00021710174
0.00021714405
0.00021717048
0.00021717599
0.00021715547
0.00021710451
0.0002170205
0.00021690535
0.00021676471
0.00021660951
0.00021645417
0.00021631423
0.00021620521
0.00021614168
0.00021613697
0.00021620318
0.00021635123
0.0002165907
0.00021692913
0.00021737123
0.0002179173
0.00021856119
0.00021928819
0.00022007389
0.00022088537
0.00022168542
0.00022243814
0.00022311415
0.0002236935
0.00022416644
0.00022453227