/*--------------------------------*- C++ -*----------------------------------*\
| =========                 |                                                 |
| \\      /  F ield         | foam-extend: Open Source CFD                    |
|  \\    /   O peration     | Version:     4.1                                |
|   \\  /    A nd           | Web:         http://www.foam-extend.org         |
|    \\/     M anipulation  |                                                 |
\*---------------------------------------------------------------------------*/
FoamFile
{
    version     2.0;
    format      ascii;
    class       volScalarField;
    location    "1";
    object      p;
}
// * * * * * * * * * * * * * * * * * * * * * * * * * * * * * * * * * * * * * //

dimensions      [0 2 -2 0 0 0 0];

internalField   nonuniform List<scalar> 
16126
(
3.91737e-05
0.00057954914
0.0007319265
0.0011960284
0.0014128935
0.0018138567
0.0020692344
0.0024242522
0.0026955619
0.0030164048
0.0032880285
0.0035806109
0.0038418297
0.0041077682
0.0043508242
0.0045890561
0.0048077621
0.0050155995
0.0052044991
0.0053782546
0.0055321673
0.0056675286
0.0057813427
0.0058736274
0.0059422568
0.0059866352
0.0060050971
0.0059968428
0.0059604106
0.0058951459
0.0057995519
0.0056725663
0.0055135297
0.0053220346
0.0050975369
0.0048402108
0.0045497646
0.0042257892
0.0038692694
0.0034813197
0.0030653423
0.0026216404
0.0021508931
0.0016568223
0.0011422874
0.00061103017
6.7101997e-05
-0.00048485529
-0.0010397288
-0.0015918803
-0.0021351937
-0.0026630803
-0.0031685206
-0.0036440976
-0.0040820461
-0.0044743069
-0.0048125864
-0.0050884256
-0.0052932711
-0.005418556
-0.0054557752
-0.0053965814
-0.005232859
-0.0049568337
-0.0045611445
-0.0040389699
-0.0033840969
-0.0025910723
-0.0016552667
-0.00057307337
0.00065805772
0.0020393337
0.0035706713
0.0052502698
0.0070748724
0.0090390913
0.011136147
0.013356701
0.015690582
0.018124577
0.020646121
0.023238733
0.025889735
0.028579476
0.031300708
0.034017634
0.036695002
0.039327743
0.041902132
0.044420425
0.046887884
0.049323044
0.051744449
0.054168621
0.056636494
0.059148593
0.061691795
0.064281589
0.066907438
0.069563028
0.072232026
0.074908117
0.077571655
0.080227481
0.082852476
0.085477147
0.088069827
0.090716648
0.093364682
0.096223034
0.099182352
0.10271917
0.10655235
0.11172566
0.11741179
0.12588723
0.13465204
0.14900222
0.16144602
0.18623851
0.1998221
0.25014983
0.24631624
0.41534588
3.4642682e-05
0.00058280671
0.00073148432
0.0011962905
0.0014136469
0.001813502
0.002069144
0.0024230395
0.0026946793
0.0030148325
0.0032866494
0.0035788058
0.0038400982
0.0041057672
0.0043488318
0.004586895
0.0048055897
0.0050133331
0.0052022332
0.0053759591
0.0055299042
0.0056652947
0.0057791784
0.0058715352
0.0059402484
0.0059846863
0.006003159
0.0059947837
0.0059581132
0.0058921534
0.0057959964
0.0056690757
0.0055104057
0.0053199542
0.0050969798
0.0048437025
0.0045582731
0.0042378381
0.0038845863
0.0034992994
0.0030836648
0.0026407993
0.0021732337
0.0016825875
0.0011720266
0.00064505996
0.00010577574
-0.00044122677
-0.00099084935
-0.0015374869
-0.00207506
-0.002597027
-0.0030964241
-0.0035658987
-0.0039977587
-0.0043840258
-0.004716494
-0.0049867976
-0.0051864796
-0.0053070715
-0.0053401651
-0.0052775069
-0.0051110681
-0.0048331516
-0.0044364612
-0.0039142246
-0.0032602604
-0.0024691269
-0.0015361871
-0.00045780504
0.0007686153
0.0021443454
0.0036693746
0.005341989
0.0071590123
0.0091151492
0.01120369
0.013415385
0.015740115
0.018164778
0.020676845
0.023260203
0.025901877
0.028585951
0.031297602
0.034000054
0.036665388
0.039285894
0.041848778
0.044357563
0.046818104
0.049253458
0.051685057
0.054179735
0.056689234
0.059211759
0.061811572
0.06445849
0.067150983
0.069876717
0.072621646
0.075379915
0.078134386
0.080891546
0.083631876
0.086387193
0.089130627
0.091947077
0.094789789
0.097859498
0.10105604
0.10483157
0.10892508
0.11432275
0.12025532
0.12886523
0.13782817
0.1520643
0.16467374
0.18829188
0.20251016
0.24270758
0.25069013
0.31063051
1.3587639e-05
0.00058782739
0.00072758352
0.0011966279
0.0014132397
0.0018130943
0.0020715742
0.0024253037
0.0026990154
0.0030188871
0.0032921883
0.0035843495
0.0038467599
0.0041127021
0.0043566865
0.0045952158
0.0048147416
0.0050230872
0.0052127988
0.0053872345
0.0055420209
0.0056782289
0.0057930367
0.0058863575
0.00595617
0.0060018395
0.0060218021
0.0060153184
0.0059810381
0.0059193532
0.0058277267
0.0057038904
0.0055480541
0.005359371
0.0051375517
0.0048804478
0.0045897002
0.0042677374
0.0039138896
0.0035291253
0.0031153368
0.0026737443
0.0022059187
0.0017147517
0.0012031567
0.00067479527
0.00013369051
-0.00041555704
-0.00096787781
-0.001517683
-0.0020589103
-0.0025850288
-0.003089081
-0.0035637142
-0.0040012284
-0.0043936306
-0.0047326911
-0.0050100112
-0.0052170924
-0.0053454142
-0.0053865064
-0.0053320434
-0.0051739139
-0.004904328
-0.0045158862
-0.0040017034
-0.0033554755
-0.0025716282
-0.0016453858
-0.00057296512
0.00064837806
0.0020200681
0.0035422353
0.0052133086
0.0070302176
0.0089877759
0.0110793
0.013295589
0.015626385
0.01805855
0.020579039
0.023171562
0.025821519
0.028511697
0.031223378
0.033932539
0.036614195
0.039252776
0.041839825
0.044375606
0.046869345
0.049344354
0.051832498
0.054283498
0.056756492
0.059315824
0.061920215
0.064581843
0.067284846
0.070023052
0.072780443
0.075551064
0.078318696
0.081089352
0.083847619
0.086625476
0.089406029
0.092274224
0.095203445
0.098388698
0.10176472
0.10575168
0.11014265
0.11581221
0.12208513
0.13079693
0.13988219
0.15347372
0.16566766
0.18675271
0.20063535
0.23378852
0.24684895
0.29056724
-1.9322206e-05
0.00059454409
0.00072000649
0.0011982861
0.0014142047
0.0018144282
0.0020733781
0.0024256848
0.0027011195
0.0030205883
0.0032955381
0.0035879182
0.003851799
0.0041183949
0.0043637814
0.0046033035
0.0048242844
0.0050339245
0.0052252424
0.0054012707
0.0055578864
0.005695991
0.0058128862
0.0059083874
0.0059805036
0.0060285052
0.0060507459
0.0060461745
0.0060134003
0.0059502614
0.0058570108
0.0057342073
0.0055799733
0.0053940821
0.0051758225
0.0049256256
0.0046426222
0.0043261249
0.0039772095
0.0035965987
0.0031859244
0.0027473316
0.0022830559
0.0017953423
0.0012871925
0.00076202449
0.00022380909
-0.00032297774
-0.00087335377
-0.0014218342
-0.0019624535
-0.00248878
-0.002993951
-0.0034707037
-0.0039114193
-0.004308175
-0.0046527968
-0.0049369239
-0.0051520754
-0.0052897247
-0.0053413687
-0.0052986218
-0.0051532823
-0.0048974402
-0.004523545
-0.0040245324
-0.0033938921
-0.0026258197
-0.0017152908
-0.00065825817
0.00054829243
0.0019060618
0.0034154453
0.0050751395
0.0068823071
0.0088320043
0.010917722
0.013130464
0.015460054
0.017893452
0.020417588
0.023015457
0.025673164
0.028364622
0.031084331
0.033811866
0.036516028
0.039189034
0.041817964
0.044405601
0.046961485
0.049499188
0.051994867
0.054521523
0.057104058
0.059720862
0.062402317
0.065134992
0.067917045
0.070738078
0.073586234
0.076456602
0.079337223
0.082235947
0.085143515
0.088092323
0.091074183
0.094168842
0.097361387
0.10082623
0.10451442
0.10878996
0.11347682
0.11931833
0.12572687
0.1342405
0.14308313
0.15562585
0.16696686
0.18492738
0.19724858
0.22091203
0.23196279
0.25002916
-6.0879069e-05
0.00060200651
0.00070844087
0.001199409
0.0014130255
0.0018165505
0.0020781925
0.0024318239
0.0027099015
0.0030299934
0.0033072332
0.0036003953
0.0038662776
0.0041339537
0.0043811953
0.0046220729
0.0048448846
0.0050561192
0.0052493339
0.0054271811
0.0055858322
0.0057259977
0.0058451479
0.0059430189
0.0060177456
0.0060685986
0.0060940994
0.0060933378
0.0060650962
0.0060085217
0.0059220402
0.0058045425
0.0056553393
0.0054736798
0.0052591325
0.0050109034
0.0047295709
0.0044159718
0.0040702778
0.0036934257
0.0032867215
0.0028516122
0.0023898987
0.0019040572
0.0013968832
0.00087177112
0.00033254185
-0.00021643938
-0.00077032537
-0.0013237547
-0.0018708816
-0.0024053796
-0.0029204756
-0.0034089743
-0.0038632974
-0.0042755323
-0.0046374798
-0.0049407153
-0.0051766523
-0.0053366155
-0.0054119076
-0.0053939059
-0.0052741287
-0.0050443478
-0.0046966599
-0.0042236213
-0.0036183215
-0.0028745455
-0.0019868557
-0.00095079885
0.00023702879
0.0015786961
0.0030749325
0.0047247443
0.0065255524
0.008472663
0.010559736
0.012777987
0.015117275
0.01756481
0.020107146
0.022728237
0.025411342
0.028139821
0.030883102
0.033644697
0.03641089
0.039147476
0.04185455
0.044528719
0.047172269
0.049777013
0.052383658
0.055000256
0.057639507
0.060333155
0.063070874
0.065859175
0.068688394
0.071553894
0.074444881
0.077358333
0.080285401
0.083234747
0.086202179
0.089219802
0.092288005
0.095482598
0.098802514
0.10240626
0.10626574
0.11069649
0.11555717
0.12146725
0.12792491
0.136181
0.14474761
0.15631046
0.16696623
0.18266155
0.19436531
0.21366259
0.2249632
0.23727215
-0.00010250915
0.00061072129
0.00069635679
0.0012021687
0.0014125998
0.0018200642
0.002082594
0.0024372512
0.0027174785
0.0030385373
0.0033181577
0.0036126761
0.0038809674
0.0041504219
0.0044001505
0.0046432095
0.0048686873
0.0050825024
0.0052786569
0.0054594959
0.0056214321
0.0057650112
0.0058878233
0.005989506
0.006068225
0.0061231676
0.0061527887
0.0061560614
0.0061316612
0.0060783918
0.0059956097
0.0058827815
0.0057388573
0.0055633118
0.0053555221
0.0051152778
0.0048421451
0.0045360148
0.0041974415
0.0038271058
0.0034262748
0.0029965689
0.0025398895
0.0020584463
0.0015549425
0.0010325327
0.00049486918
-5.3892949e-05
-0.00060909509
-0.0011655704
-0.0017176542
-0.0022591895
-0.0027835524
-0.0032836713
-0.0037520587
-0.0041808551
-0.0045618688
-0.0048866329
-0.0051464636
-0.005332531
-0.0054359227
-0.0054477424
-0.0053591764
-0.0051616134
-0.0048467188
-0.0044065827
-0.0038337994
-0.0031216461
-0.0022641724
-0.0012564249
-9.4517368e-05
0.0012240704
0.002700485
0.0043341159
0.0061227266
0.0080619511
0.010145732
0.012365595
0.014711646
0.017171395
0.019731711
0.02237653
0.025090799
0.027854767
0.03065454
0.033467907
0.036286478
0.039103444
0.041898896
0.044671215
0.04741359
0.050143702
0.052866087
0.055603805
0.058373977
0.061174842
0.06401948
0.066903491
0.069825482
0.072780391
0.07576162
0.078768192
0.081795249
0.084852884
0.087941224
0.091091042
0.094307346
0.097658014
0.10114691
0.10491002
0.10892635
0.113459
0.1183866
0.12421575
0.13051719
0.13829356
0.14630531
0.15662643
0.16615021
0.17914118
0.18900831
0.20293297
0.21150474
0.21767254
-0.00014021734
0.00062007733
0.00068504931
0.0012063534
0.0014132469
0.0018262927
0.0020905634
0.0024480281
0.0027310441
0.0030541423
0.0033366561
0.0036332382
0.0039044051
0.0041761882
0.0044288478
0.0046745638
0.0049031305
0.0051199563
0.0053194524
0.0055036871
0.0056693063
0.0058167184
0.005943653
0.0060496941
0.006133109
0.0061930839
0.0062281818
0.0062374055
0.0062195123
0.0061734233
0.0060979089
0.005992014
0.0058548551
0.0056856933
0.0054839759
0.00524921
0.0049814416
0.0046809021
0.0043478498
0.003982955
0.0035871791
0.0031617954
0.0027084151
0.0022291386
0.0017264445
0.001203326
0.00066322271
0.00011009395
-0.00045160595
-0.0010169015
-0.0015803058
-0.0021358163
-0.0026769334
-0.0031966721
-0.0036875861
-0.004141805
-0.0045510672
-0.004906773
-0.0052000372
-0.0054217598
-0.0055626874
-0.0056135174
-0.0055649652
-0.0054078962
-0.0051334051
-0.0047329815
-0.0041985972
-0.0035229066
-0.0026993434
-0.0017223686
-0.00058754213
0.0007081578
0.0021663331
0.0037867713
0.0055675863
0.0075047249
0.0095923958
0.011822404
0.014185055
0.016668203
0.019258747
0.021941418
0.024700303
0.027519122
0.030378277
0.033267515
0.03617217
0.039075986
0.041973866
0.044855449
0.047722029
0.05057307
0.053423046
0.05628004
0.05915182
0.062052062
0.06497957
0.067937521
0.070922049
0.07393142
0.076961066
0.08001201
0.083082458
0.086183509
0.089318947
0.09251869
0.095792455
0.09920279
0.10275991
0.1065835
0.11066222
0.11521796
0.12015107
0.1258745
0.1320285
0.13940934
0.14700976
0.15642413
0.1652539
0.17657706
0.18566983
0.1970557
0.2048471
0.20899577
-0.00017048661
0.00062968376
0.00067644077
0.0012124135
0.0014158463
0.0018345491
0.0020998891
0.0024601922
0.0027457326
0.0030711894
0.0033567002
0.0036558306
0.0039302226
0.0042049189
0.0044610324
0.0047100779
0.0049423947
0.0051629945
0.0053666101
0.005555087
0.0057252504
0.0058773847
0.006009309
0.006120531
0.0062093454
0.0062748807
0.0063156758
0.0063306999
0.0063186793
0.0062785651
0.0062093985
0.0061103174
0.0059804018
0.0058189209
0.0056252085
0.0053987922
0.0051392887
0.0048465752
0.0045208813
0.0041626798
0.0037728335
0.0033525386
0.0029032989
0.0024270007
0.0019259359
0.001402853
0.00086096471
0.00030398652
-0.0002638584
-0.00083782045
-0.0014126189
-0.0019824345
-0.0025409178
-0.003081194
-0.0035958776
-0.0040771034
-0.00451655
-0.0049054892
-0.0052348318
-0.0054951977
-0.0056769745
-0.005770427
-0.0057657646
-0.0056532874
-0.0054234683
-0.0050671402
-0.0045755878
-0.0039407766
-0.0031554507
-0.0022134136
-0.0011095939
0.00015960314
0.0015963117
0.0032007827
0.0049715543
0.0069049392
0.0089954855
0.011235309
0.013615013
0.016122743
0.018745758
0.021468974
0.024277471
0.02715412
0.030083823
0.033049663
0.036039864
0.0390433
0.042047238
0.045046419
0.048035393
0.051019076
0.053999871
0.056986128
0.05998641
0.063001598
0.066037116
0.069092149
0.072166113
0.075257991
0.078365849
0.081492327
0.084638297
0.087815477
0.091029967
0.094309594
0.09766566
0.10115302
0.1047828
0.1086559
0.1127633
0.1172866
0.12213937
0.12765119
0.13351735
0.14035502
0.14734123
0.15565767
0.16344577
0.17282296
0.18043964
0.18897863
0.19501849
0.19758683
-0.00019310936
0.00063885595
0.00067081548
0.0012200152
0.0014208235
0.0018456408
0.0021127193
0.0024767855
0.0027653733
0.0030939432
0.003382888
0.0036851464
0.0039631637
0.0042412526
0.0045012054
0.0047540075
0.0049904536
0.005215229
0.0054233453
0.0056164654
0.0057915795
0.005948879
0.0060862824
0.0062032577
0.0062981635
0.0063701145
0.006417694
0.0064398491
0.0064353052
0.0064029422
0.0063415932
0.0062502424
0.0061279327
0.0059738265
0.0057872331
0.0055675846
0.0053145901
0.0050281294
0.0047082629
0.0043553348
0.0039699586
0.0035530725
0.0031059262
0.0026301958
0.0021279306
0.001601655
0.0010543405
0.00048947002
-8.8962613e-05
-0.00067642129
-0.0012678177
-0.0018574947
-0.0024392262
-0.0030062135
-0.0035510908
-0.004065949
-0.0045423514
-0.0049713779
-0.005343665
-0.0056494768
-0.0058787597
-0.0060212598
-0.0060665906
-0.0060043946
-0.0058244283
-0.0055167749
-0.0050719378
-0.0044811042
-0.0037362402
-0.0028304124
-0.0017578415
-0.00051429897
0.00090293816
0.0024946149
0.0042597179
0.0061949118
0.0082950609
0.01055252
0.012958096
0.015500124
0.018165937
0.020940757
0.023809419
0.026755807
0.02976343
0.032818108
0.03590573
0.03901227
0.042129255
0.045246678
0.048360915
0.051468041
0.054572272
0.057676694
0.06078321
0.063897129
0.067018917
0.070149422
0.073288162
0.076435298
0.079590671
0.082758188
0.085940794
0.08915082
0.092396451
0.095704306
0.099087775
0.10259651
0.10624395
0.11011727
0.1142118
0.11867785
0.12344363
0.12877213
0.13441119
0.14083711
0.14739291
0.15495106
0.16210278
0.17029294
0.17716983
0.18422938
0.18949246
0.191268
-0.00020823575
0.00064728279
0.00066856709
0.0012289016
0.0014280497
0.0018585471
0.0021273978
0.0024952072
0.0027868516
0.0031187603
0.0034113028
0.0037170559
0.0039990086
0.0042809432
0.0045451591
0.0048022355
0.0050433205
0.0052728411
0.0054860276
0.0056843911
0.0058650468
0.0060280981
0.0061715263
0.0062947435
0.0063961302
0.0064747609
0.0065292144
0.00655842
0.006561097
0.0065361511
0.0064824746
0.0063990361
0.006284847
0.0061390018
0.0059607027
0.0057492715
0.0055041828
0.0052251053
0.0049119587
0.0045649014
0.0041843868
0.0037711836
0.0033263519
0.0028513407
0.0023479673
0.0018184996
0.0012656552
0.00069265844
0.00010325519
-0.00049825389
-0.0011069921
-0.001717484
-0.0023236444
-0.0029187674
-0.0034955211
-0.0040459644
-0.0045615525
-0.0050331774
-0.0054511989
-0.0058055174
-0.006085622
-0.0062807172
-0.006379787
-0.0063717757
-0.0062456708
-0.0059907457
-0.0055966508
-0.0050537182
-0.0043530479
-0.0034868822
-0.0024486368
-0.001233361
0.00016235084
0.0017398116
0.0034985342
0.0054355753
0.0075461644
0.0098228801
0.012256757
0.0148362
0.0175487
0.020379356
0.023313321
0.02633381
0.029425476
0.032571615
0.035759019
0.03897452
0.042205734
0.045443698
0.048681893
0.051918096
0.055148672
0.058373801
0.06159832
0.064820221
0.068041225
0.071261899
0.074481713
0.077701999
0.080923796
0.084151831
0.087390616
0.090652271
0.093946008
0.097296057
0.10071583
0.1042483
0.10790606
0.11176155
0.11581037
0.12017314
0.12478707
0.1298563
0.13516897
0.14108121
0.14706474
0.15373968
0.16003771
0.16690399
0.17271647
0.17824711
0.18248232
0.18379844
-0.00021712841
0.00065479117
0.00066951088
0.0012389611
0.0014378517
0.0018738635
0.0021452123
0.0025171902
0.0028123916
0.0031481376
0.0034446873
0.0037543921
0.0040406548
0.004326852
0.0045956966
0.0048574433
0.005103538
0.0053381978
0.0055568431
0.0057608638
0.0059474893
0.0061167581
0.0062667179
0.0063967461
0.0065052577
0.006591302
0.0066534647
0.0066906344
0.0067014977
0.0066848803
0.006639571
0.0065644419
0.0064584307
0.0063205423
0.0061499075
0.0059457567
0.0057075064
0.0054347185
0.0051271478
0.0047847734
0.0044078177
0.0039968056
0.0035525441
0.0030762334
0.0025694294
0.0020341415
0.0014728237
0.0008884432
0.0002844976
-0.00033494271
-0.00096520573
-0.0016009862
-0.002236325
-0.0028645893
-0.0034784561
-0.0040699226
-0.0046302999
-0.0051502506
-0.0056198095
-0.0060284592
-0.0063651697
-0.0066185365
-0.006776839
-0.0068282432
-0.00676088
-0.0065631228
-0.0062236717
-0.0057319084
-0.0050779657
-0.0042531698
-0.0032500363
-0.002062817
-0.00068734816
0.00087829259
0.0026341817
0.004577755
0.0067045864
0.0090073921
0.01147733
0.014102727
0.016870971
0.019766973
0.022775481
0.025879644
0.029063003
0.032309444
0.035604512
0.038931929
0.042280408
0.045638207
0.048998343
0.052353741
0.055703747
0.059043674
0.062370007
0.065685478
0.068990878
0.072284016
0.075567013
0.078840481
0.08210693
0.085371812
0.088640616
0.091925812
0.095237423
0.098598341
0.1020225
0.10554823
0.10918848
0.11300473
0.11699448
0.12125542
0.12573493
0.13059137
0.13565067
0.1411774
0.14675439
0.15281628
0.15856366
0.16459015
0.16978327
0.17442564
0.17807178
0.17902723
-0.00022072922
0.00066138203
0.00067347711
0.0012499288
0.0014498803
0.0018908114
0.0021650635
0.0025411426
0.0028401075
0.0031798652
0.0034806557
0.0037946152
0.0040854959
0.0043763362
0.0046501882
0.0049170385
0.0051685769
0.0054088453
0.005633418
0.0058435795
0.0060366482
0.0062125988
0.0063695234
0.0065067574
0.0066227303
0.0067164591
0.0067865253
0.0068317947
0.0068509403
0.0068427743
0.0068060691
0.0067396438
0.0066423735
0.0065131669
0.0063510373
0.0061550753
0.0059245162
0.005658737
0.0053573139
0.0050200273
0.0046468975
0.0042382323
0.0037946044
0.0033169599
0.002806589
0.0022652233
0.0016950371
0.0010987186
0.00047949689
-0.0001588097
-0.00081175481
-0.0014742244
-0.0021404047
-0.0028037541
-0.0034569739
-0.0040920116
-0.0047000417
-0.0052714992
-0.0057960885
-0.0062628614
-0.0066602454
-0.0069761952
-0.0071982399
-0.007313713
-0.0073098188
-0.0071739543
-0.0068937768
-0.0064576224
-0.0058545481
-0.0050748596
-0.0041100577
-0.0029534985
-0.0016001543
-4.7420113e-05
0.001705425
0.0036562217
0.0058009321
0.0081323645
0.010641812
0.013317358
0.016146346
0.019113025
0.022202121
0.025395432
0.028677111
0.032029111
0.035435475
0.038879841
0.042349268
0.045830773
0.049315434
0.052795042
0.056264532
0.05972002
0.063160627
0.066577953
0.069973328
0.073350176
0.076705954
0.080043642
0.083366068
0.086678578
0.089987978
0.093305654
0.096642181
0.10001793
0.10344624
0.10695985
0.1105703
0.11432787
0.11822963
0.12235208
0.12664906
0.13123929
0.13597762
0.14105319
0.14613489
0.15151442
0.15659662
0.16173288
0.16618302
0.16996717
0.17300037
0.17379442
-0.00022012077
0.00066716952
0.00068021648
0.0012618701
0.0014643647
0.0019098497
0.0021877568
0.0025681252
0.0028713485
0.0032154675
0.0035208996
0.0038394944
0.0041353635
0.0044312302
0.0047104585
0.0049828013
0.0052401668
0.0054864488
0.0057173605
0.0059340998
0.0061340672
0.0063171881
0.0064815983
0.0066266007
0.0067506397
0.0068527009
0.006931353
0.0069854158
0.007013518
0.0070143995
0.0069867545
0.0069293151
0.00684087
0.0067202296
0.0065663056
0.0063780711
0.0061546377
0.0058952272
0.0055992307
0.0052662193
0.0048959752
0.0044885505
0.0040442491
0.0035637392
0.0030480242
0.0024985447
0.0019171824
0.001306338
0.00066896403
8.6209313e-06
-0.00067047438
-0.0013634003
-0.0020644867
-0.0027672776
-0.0034644885
-0.0041480022
-0.004808835
-0.0054371667
-0.0060223348
-0.0065529165
-0.0070167426
-0.0074010643
-0.0076925863
-0.007877728
-0.0079426735
-0.0078737454
-0.0076574485
-0.0072809664
-0.0067321623
-0.0060002171
-0.0050755038
-0.0039503964
-0.0026189108
-0.0010777117
0.00067461972
0.0026363182
0.0048037276
0.0071696646
0.0097254558
0.012458822
0.015356741
0.018402918
0.021581147
0.024872896
0.028260876
0.031725289
0.035249776
0.038815852
0.042409723
0.046016037
0.049624799
0.053224826
0.056810535
0.060374628
0.063913491
0.067426514
0.070906923
0.074351985
0.077768578
0.081156252
0.084518894
0.087863007
0.091194855
0.09452664
0.097868602
0.10124005
0.10465394
0.1081392
0.11170689
0.11539894
0.11921324
0.12321018
0.1273507
0.1317234
0.13620932
0.14094125
0.14565926
0.150551
0.15517583
0.15971432
0.16367826
0.16690687
0.16952292
0.1701291
-0.00021601254
0.00067225007
0.00068943463
0.0012745932
0.0014809469
0.0019304397
0.0022125558
0.0025971481
0.0029049454
0.0032535815
0.0035639378
0.0038874402
0.0041886121
0.0044898472
0.0047748108
0.0050530351
0.0053166261
0.0055693425
0.005807018
0.006030771
0.0062380697
0.006428791
0.0066011025
0.0067542731
0.0068867539
0.0069975003
0.0070850697
0.0071482495
0.0071856411
0.0071959431
0.0071778003
0.0071298711
0.0070508578
0.0069394588
0.0067944554
0.0066146683
0.0063990332
0.0061465818
0.0058565026
0.0055281461
0.0051610595
0.0047550418
0.0043101265
0.0038266946
0.0033054491
0.0027475207
0.0021544777
0.0015284092
0.00087196643
0.00018842628
-0.00051824965
-0.001243358
-0.0019813963
-0.0027260169
-0.0034699685
-0.0042050842
-0.0049222302
-0.0056113335
-0.0062613562
-0.0068603841
-0.0073956199
-0.0078535705
-0.0082200573
-0.0084805171
-0.0086200255
-0.0086237364
-0.0084768876
-0.0081653963
-0.0076757995
-0.0069960329
-0.0061152048
-0.0050245992
-0.0037171513
-0.0021887218
-0.00043709862
0.001536361
0.0037284409
0.0061318904
0.0087381224
0.011534233
0.014507108
0.017638981
0.020913793
0.024310564
0.027811676
0.031395553
0.03504486
0.03873915
0.042463428
0.04620018
0.049938056
0.053663769
0.057369991
0.061047699
0.064693456
0.068300176
0.071869968
0.075396975
0.078879232
0.082322701
0.085732345
0.089112272
0.092471609
0.0958199
0.09916847
0.10253392
0.10592866
0.10937712
0.11288899
0.11649807
0.12020173
0.12404593
0.12799639
0.13211646
0.13630748
0.14065784
0.14496326
0.14933583
0.15345314
0.15738696
0.16083286
0.16355179
0.16578572
0.16631995
-0.00020905486
0.00067678743
0.00070092948
0.0012882064
0.0014997579
0.0019528976
0.0022399403
0.0026288509
0.0029416995
0.0032951221
0.0036107925
0.0039395346
0.0042463753
0.0045533389
0.0048444087
0.0051288973
0.0053991058
0.0056586678
0.0059035321
0.0061347474
0.006349846
0.0065486636
0.0067293977
0.0068912859
0.0070327823
0.0071528078
0.0072498974
0.0073227896
0.0073700364
0.0073902665
0.0073820486
0.0073439515
0.0072745799
0.0071725195
0.0070364276
0.006864982
0.006656959
0.0064112046
0.0061266979
0.0058025546
0.0054380638
0.0050327462
0.0045863396
0.0040989155
0.0035708555
0.0030029616
0.0023964702
0.0017531414
0.0010753083
0.00036594783
-0.00037124901
-0.0011318107
-0.0019104137
-0.0027008269
-0.0034958354
-0.0042872212
-0.0050656916
-0.0058209041
-0.0065414184
-0.0072147926
-0.0078275506
-0.0083653944
-0.008813184
-0.0091552879
-0.0093755676
-0.0094578999
-0.009386127
-0.0091447776
-0.0087189214
-0.0080951281
-0.0072611016
-0.0062069363
-0.0049243666
-0.003408392
-0.0016559255
0.0003320777
0.0025528631
0.0049990392
0.0076619973
0.010528183
0.013583729
0.016810302
0.020189772
0.023700475
0.027323498
0.031035033
0.03481668
0.038645382
0.042505052
0.046375465
0.0502442
0.054095264
0.057920467
0.061708509
0.065454682
0.069152991
0.072800659
0.076396507
0.079941614
0.083432198
0.08687598
0.090282098
0.093655387
0.097008499
0.10035081
0.10369871
0.10706372
0.11046738
0.11391873
0.11744551
0.12104558
0.12475398
0.12854158
0.13245278
0.13640669
0.14045898
0.14444968
0.14843642
0.15218326
0.15568587
0.15876079
0.16111709
0.16305915
0.16348489
-0.00019967194
0.00068086375
0.00071443039
0.0013025673
0.0015204871
0.0019768474
0.0022693968
0.0026625891
0.002980849
0.0033392111
0.0036605017
0.0039947387
0.0043075645
0.0046205751
0.0049180976
0.0052092133
0.0054864183
0.0057532213
0.0060056803
0.0062447758
0.006468098
0.0066754418
0.0068650294
0.0070360676
0.0071870121
0.0073167517
0.0074238027
0.0075068635
0.0075644461
0.0075951218
0.0075973921
0.007569738
0.0075106617
0.0074186247
0.007292141
0.0071297239
0.0069299639
0.0066915015
0.0064130912
0.0060936029
0.0057320599
0.0053276958
0.0048799419
0.0043885441
0.0038535439
0.0032753911
0.0026549647
0.001993667
0.0012934826
0.00055705625
-0.00021222405
-0.0010101517
-0.0018316137
-0.0026705255
-0.0035197342
-0.0043709924
-0.0052148614
-0.0060407355
-0.0068367646
-0.0075899618
-0.0082861366
-0.0089101388
-0.0094457965
-0.0098763292
-0.010184276
-0.010352125
-0.010362181
-0.01019745
-0.0098413684
-0.0092790003
-0.0084964742
-0.007482571
-0.0062276668
-0.0047258218
-0.0029729459
-0.00096959322
0.0012820403
0.003774292
0.0064986781
0.0094404977
0.012586176
0.015913962
0.019406649
0.023039868
0.026793742
0.030641784
0.034564529
0.038535978
0.042539012
0.046550423
0.050556848
0.054539548
0.058489525
0.062393174
0.066245808
0.070038493
0.073770911
0.077438479
0.081043574
0.084588679
0.088072972
0.091503195
0.094893341
0.098249279
0.10158364
0.10490954
0.10823848
0.11158856
0.11496776
0.11839821
0.12187746
0.12543127
0.12903414
0.13271531
0.13640793
0.1401433
0.14379654
0.1473884
0.15074966
0.15383257
0.15654137
0.15857677
0.1602687
0.16065435
-0.00018822682
0.00068461146
0.00072979429
0.0013177678
0.001543195
0.0020024872
0.0023011939
0.0026987356
0.0030228537
0.0033863826
0.0037136658
0.0040536972
0.0043728633
0.0046922608
0.0049966016
0.0052947175
0.0055793101
0.0058537622
0.0061142428
0.0063616672
0.0065936826
0.006810046
0.0070090025
0.0071897285
0.0073506763
0.007490699
0.0076082852
0.0077020829
0.0077705512
0.0078121898
0.0078254206
0.0078086287
0.0077602079
0.007678494
0.0075618586
0.0074086515
0.007217279
0.0069861719
0.0067138509
0.0063989257
0.0060401354
0.0056364054
0.0051868386
0.0046908327
0.0041480659
0.0035586123
0.0029229686
0.0022421545
0.0015177794
0.00075212906
-5.1738289e-05
-0.00088990772
-0.0017575012
-0.0026486033
-0.0035561408
-0.0044718499
-0.0053861497
-0.0062881676
-0.0071656257
-0.0080049643
-0.0087912305
-0.0095083635
-0.010139076
-0.010665345
-0.011068268
-0.011328819
-0.011427613
-0.011345991
-0.011065582
-0.010569801
-0.0098430226
-0.0088725959
-0.0076473763
-0.0061604164
-0.0044064967
-0.00238577
-9.9809125e-05
0.0024433988
0.0052353815
0.0082605214
0.011503433
0.014941499
0.018557162
0.02232266
0.026217384
0.030211405
0.034284289
0.038406403
0.042559726
0.04671749
0.050865633
0.054982212
0.059057823
0.063076367
0.067032912
0.070917526
0.074729084
0.07846336
0.082123255
0.085708225
0.089227744
0.092680328
0.09607486
0.099427098
0.10274451
0.10604158
0.10932862
0.1126217
0.11592844
0.11926666
0.12263451
0.12605067
0.12949346
0.1329809
0.13645805
0.1399385
0.14332451
0.14661073
0.14967549
0.1524418
0.15486983
0.15665868
0.15814449
0.15846267
-0.00017497008
0.00068807927
0.00074680701
0.0013336959
0.0015676294
0.0020295463
0.0023349599
0.00273685
0.0030671917
0.003436043
0.003769629
0.0041156987
0.0044415171
0.0047676031
0.0050790981
0.0053845592
0.005676906
0.0059593886
0.0062282884
0.0064844544
0.0067255898
0.0069514138
0.0071601935
0.0073510759
0.0075225107
0.0076733181
0.0078019624
0.0079070457
0.0079869787
0.0080401944
0.0080650363
0.0080597925
0.0080227428
0.0079520881
0.007846045
0.0077027858
0.0075205168
0.0072974451
0.0070318443
0.0067220517
0.0063665099
0.005963822
0.0055127454
0.0050123094
0.0044618045
0.0038609014
0.0032096836
0.0025087527
0.0017593061
0.00096323047
0.00012321258
-0.00075716703
-0.0016733071
-0.0026195025
-0.0035887959
-0.0045729397
-0.0055622329
-0.0065455513
-0.0075101872
-0.0084419956
-0.0093252241
-0.010142852
-0.010876393
-0.011506495
-0.012012679
-0.012374276
-0.012570036
-0.012579471
-0.012382197
-0.011959813
-0.011294715
-0.010372679
-0.0091808246
-0.0077111146
-0.0059570114
-0.0039182978
-0.0015957516
0.0010020892
0.0038669878
0.0069816161
0.010329384
0.013887481
0.017635904
0.021544249
0.025590781
0.029741695
0.03397567
0.038258808
0.042572439
0.046885627
0.051183963
0.055441837
0.059649833
0.063788949
0.067854731
0.071834958
0.075729749
0.079533273
0.083249182
0.086878192
0.090425316
0.093899419
0.097303919
0.10064685
0.10394457
0.10720728
0.11044585
0.11367413
0.11689877
0.12013434
0.1233787
0.1266451
0.12991465
0.13319694
0.13644671
0.13966529
0.14277677
0.1457599
0.1485299
0.15099683
0.15316068
0.15473605
0.15605053
0.15634249
-0.00016010922
0.00069135778
0.00076536889
0.0013504127
0.0015938062
0.0020581364
0.0023708315
0.0027771367
0.0031141116
0.0034884891
0.0038287273
0.0041811107
0.0045139205
0.0048470159
0.0051660189
0.0054791848
0.0057796687
0.0060705809
0.0063483211
0.0066136711
0.0068643915
0.0071001642
0.0073192775
0.0075208484
0.0077033214
0.0078654804
0.0080057603
0.0081227115
0.0082146896
0.0082800539
0.0083170638
0.0083239057
0.008298742
0.0082396367
0.0081446495
0.0080117727
0.0078390085
0.0076243334
0.0073657633
0.0070613493
0.0067092204
0.006307638
0.0058549919
0.0053499191
0.0047912967
0.0041783632
0.0035107581
0.0027886318
0.0020127339
0.0011845138
0.00030624792
-0.00061885834
-0.0015865198
-0.0025912805
-0.0036263322
-0.0046834737
-0.0057529029
-0.0068232557
-0.0078813876
-0.0089125517
-0.0099001515
-0.010826151
-0.011670777
-0.012413242
-0.013031355
-0.013502664
-0.013803858
-0.013912464
-0.013805855
-0.013463645
-0.012866022