/*--------------------------------*- C++ -*----------------------------------*\
| =========                 |                                                 |
| \\      /  F ield         | foam-extend: Open Source CFD                    |
|  \\    /   O peration     | Version:     4.1                                |
|   \\  /    A nd           | Web:         http://www.foam-extend.org         |
|    \\/     M anipulation  |                                                 |
\*---------------------------------------------------------------------------*/
FoamFile
{
    version     2.0;
    format      ascii;
    class       volScalarField;
    location    "1";
    object      rAU;
}
// * * * * * * * * * * * * * * * * * * * * * * * * * * * * * * * * * * * * * //

dimensions      [0 0 1 0 0 0 0];

internalField   nonuniform List<scalar> 
16126
(
0.0004951448
0.00049472631
0.00049472626
0.00049472627
0.00049472629
0.00049472638
0.00049472647
0.00049472664
0.00049472682
0.00049472706
0.00049472732
0.00049472764
0.00049472798
0.00049472838
0.0004947288
0.00049472928
0.00049472978
0.00049473035
0.00049473093
0.00049473158
0.00049473225
0.00049473299
0.00049473374
0.00049473455
0.00049473538
0.00049473627
0.00049473717
0.00049473812
0.00049473907
0.00049474006
0.00049474104
0.00049474203
0.00049474302
0.00049474397
0.00049474489
0.00049474573
0.00049474652
0.0004947472
0.00049474778
0.00049474818
0.00049474834
0.00049474799
0.00049474737
0.00049474642
0.00049474511
0.0004947434
0.00049474127
0.00049473866
0.00049473556
0.00049473191
0.0004947277
0.0004947229
0.00049471748
0.00049471143
0.00049470473
0.00049469739
0.00049468941
0.00049468079
0.00049467156
0.00049466175
0.0004946514
0.00049464055
0.00049462926
0.0004946176
0.00049460562
0.00049459342
0.00049458109
0.00049456869
0.00049455634
0.00049454413
0.00049453215
0.0004945205
0.00049450929
0.00049449861
0.00049448856
0.00049447923
0.0004944707
0.00049446307
0.00049445642
0.00049445079
0.00049444624
0.00049444282
0.00049444054
0.00049443942
0.00049443941
0.00049443941
0.00049444051
0.00049444277
0.00049444614
0.00049445041
0.0004944553
0.00049446036
0.0004944651
0.00049446895
0.00049447108
0.00049446763
0.00049446067
0.00049445017
0.00049443608
0.00049441829
0.00049439665
0.00049437084
0.00049434047
0.00049430491
0.00049426334
0.00049421458
0.00049415704
0.00049408854
0.00049400618
0.00049390597
0.00049378289
0.00049363017
0.00049343988
0.00049320185
0.00049290541
0.00049253753
0.00049208726
0.00049154104
0.00049089382
0.00049013415
0.00048928053
0.00048831498
0.00048738606
0.00048591085
0.00049321101
0.00049279605
0.00049279582
0.00049279585
0.00049279576
0.00049279575
0.00049279572
0.00049279582
0.00049279589
0.00049279609
0.00049279626
0.00049279655
0.00049279682
0.00049279719
0.00049279756
0.00049279801
0.00049279846
0.000492799
0.00049279952
0.00049280013
0.00049280072
0.00049280138
0.00049280202
0.00049280273
0.0004928034
0.00049280411
0.00049280478
0.00049280546
0.00049280607
0.00049280667
0.00049280716
0.00049280757
0.00049280789
0.00049280801
0.00049280797
0.00049280765
0.0004928067
0.00049280526
0.00049280344
0.00049280112
0.0004927983
0.00049279466
0.00049279037
0.00049278533
0.00049277948
0.00049277275
0.00049276507
0.0004927564
0.00049274668
0.00049273586
0.0004927239
0.00049271077
0.00049269647
0.00049268098
0.00049266432
0.00049264651
0.00049262759
0.00049260762
0.00049258668
0.00049256487
0.00049254229
0.00049251906
0.00049249533
0.00049247125
0.00049244698
0.0004924227
0.00049239858
0.00049237479
0.00049235152
0.00049232895
0.00049230724
0.00049228656
0.00049226708
0.00049224894
0.00049223229
0.00049221724
0.00049220392
0.00049219243
0.00049218286
0.00049217527
0.00049216969
0.00049216612
0.00049216454
0.00049216489
0.000492166
0.00049216604
0.00049216803
0.00049217194
0.00049217754
0.00049218439
0.00049219183
0.00049219895
0.00049220449
0.00049220456
0.00049219321
0.00049217204
0.00049214311
0.00049210588
0.00049205967
0.00049200382
0.00049193769
0.0004918605
0.00049177138
0.00049166926
0.00049155287
0.00049142063
0.00049127075
0.00049110102
0.0004909091
0.00049069212
0.0004904474
0.00049017172
0.00048986298
0.00048951863
0.00048913928
0.00048872504
0.00048828346
0.00048781978
0.00048735653
0.00048690418
0.00048652222
0.00048620625
0.00048615526
0.00048575115
0.00049091345
0.00049050242
0.00049050192
0.00049050185
0.00049050154
0.00049050135
0.00049050106
0.00049050082
0.0004905005
0.00049050029
0.00049050001
0.00049049982
0.00049049957
0.0004904994
0.00049049916
0.00049049899
0.00049049874
0.00049049855
0.00049049827
0.00049049804
0.00049049771
0.0004904974
0.00049049698
0.00049049656
0.00049049601
0.00049049542
0.00049049468
0.00049049387
0.00049049285
0.00049049172
0.00049049
0.00049048801
0.00049048575
0.00049048309
0.00049048013
0.00049047671
0.00049047253
0.00049046763
0.00049046213
0.00049045585
0.00049044884
0.00049044092
0.00049043211
0.0004904223
0.00049041144
0.00049039947
0.00049038634
0.000490372
0.00049035642
0.00049033958
0.00049032145
0.00049030205
0.00049028138
0.00049025948
0.00049023641
0.00049021223
0.00049018703
0.00049016091
0.000490134
0.00049010645
0.00049007841
0.00049005005
0.00049002155
0.00048999311
0.00048996491
0.00048993715
0.00048991002
0.00048988372
0.00048985842
0.00048983429
0.00048981148
0.00048979014
0.00048977041
0.0004897524
0.00048973622
0.00048972197
0.00048970972
0.00048969955
0.0004896915
0.0004896856
0.00048968183
0.00048968016
0.00048968048
0.00048968267
0.00048968345
0.00048968129
0.0004896807
0.00048968157
0.00048968355
0.00048968619
0.00048968886
0.00048969077
0.0004896864
0.00048966944
0.00048964026
0.00048960317
0.00048955729
0.00048950204
0.00048943694
0.0004893616
0.00048927564
0.00048917868
0.00048907031
0.00048895008
0.00048881747
0.0004886719
0.00048851278
0.00048833944
0.00048815136
0.00048794793
0.00048772917
0.00048749503
0.00048724711
0.00048698698
0.00048671985
0.0004864504
0.00048619087
0.00048594982
0.00048575262
0.00048560772
0.00048557059
0.00048562431
0.00048592344
0.00048589625
0.00048929983
0.00048889133
0.00048889047
0.00048889007
0.00048888938
0.00048888882
0.00048888811
0.0004888874
0.00048888659
0.00048888583
0.00048888496
0.00048888411
0.00048888314
0.00048888218
0.00048888108
0.00048887997
0.0004888787
0.0004888774
0.00048887593
0.0004888744
0.00048887266
0.00048887084
0.00048886879
0.00048886662
0.00048886418
0.00048886159
0.00048885869
0.0004888556
0.00048885215
0.00048884847
0.00048884404
0.00048883919
0.00048883387
0.00048882795
0.00048882151
0.00048881437
0.00048880661
0.00048879802
0.0004887887
0.00048877844
0.00048876732
0.00048875517
0.00048874203
0.00048872781
0.00048871249
0.00048869601
0.00048867837
0.00048865954
0.00048863952
0.00048861832
0.00048859596
0.00048857248
0.00048854793
0.0004885224
0.00048849596
0.00048846873
0.00048844082
0.00048841239
0.00048838357
0.00048835454
0.00048832547
0.00048829655
0.00048826794
0.00048823985
0.00048821245
0.00048818589
0.00048816036
0.00048813598
0.00048811288
0.00048809117
0.00048807096
0.00048805231
0.0004880353
0.00048801998
0.0004880064
0.00048799459
0.00048798459
0.00048797642
0.00048797009
0.00048796557
0.00048796281
0.00048796171
0.0004879621
0.00048796374
0.00048796424
0.0004879577
0.00048795206
0.00048794757
0.00048794417
0.00048794177
0.00048794025
0.00048793465
0.00048791759
0.00048788968
0.00048785538
0.00048781397
0.00048776515
0.00048770887
0.00048764511
0.0004875739
0.00048749525
0.0004874092
0.00048731575
0.00048721493
0.00048710681
0.00048699141
0.00048686889
0.0004867394
0.00048660338
0.00048646129
0.00048631431
0.00048616373
0.00048601243
0.00048586337
0.00048572277
0.00048559613
0.00048549539
0.00048542782
0.00048541475
0.00048545858
0.00048560008
0.00048581074
0.000486188
0.00048618969
0.00048829621
0.00048788909
0.00048788785
0.00048788705
0.00048788588
0.0004878848
0.00048788355
0.00048788231
0.00048788091
0.00048787949
0.00048787791
0.00048787628
0.00048787447
0.0004878726
0.00048787051
0.00048786834
0.00048786593
0.0004878634
0.0004878606
0.00048785766
0.0004878544
0.00048785095
0.00048784715
0.00048784312
0.00048783868
0.00048783396
0.00048782877
0.00048782323
0.00048781717
0.00048781069
0.0004878036
0.00048779598
0.00048778779
0.00048777886
0.00048776931
0.00048775893
0.00048774783
0.0004877358
0.00048772298
0.00048770915
0.00048769443
0.00048767865
0.00048766187
0.00048764404
0.00048762514
0.00048760517
0.00048758413
0.00048756204
0.00048753893
0.00048751484
0.00048748983
0.00048746396
0.00048743734
0.00048741006
0.00048738225
0.00048735402
0.00048732554
0.00048729695
0.00048726842
0.00048724013
0.00048721223
0.00048718489
0.00048715829
0.00048713256
0.00048710784
0.00048708426
0.00048706192
0.00048704088
0.00048702122
0.00048700296
0.00048698614
0.00048697075
0.0004869568
0.00048694428
0.00048693319
0.00048692352
0.00048691526
0.00048690841
0.00048690297
0.00048689887
0.00048689605
0.00048689438
0.00048689367
0.00048689365
0.00048689389
0.00048688901
0.00048688008
0.00048687253
0.00048686689
0.00048686344
0.0004868593
0.00048684641
0.000486825
0.00048679873
0.00048676714
0.00048673024
0.00048668826
0.00048664151
0.00048659026
0.0004865348
0.00048647535
0.00048641214
0.00048634537
0.00048627523
0.00048620196
0.0004861258
0.00048604713
0.00048596635
0.00048588418
0.00048580143
0.00048571954
0.00048564008
0.00048556598
0.00048550012
0.00048544797
0.00048541387
0.00048540722
0.00048543228
0.00048550471
0.0004856223
0.0004858144
0.00048605375
0.00048640404
0.00048636744
0.00048773921
0.00048733265
0.00048733104
0.00048732986
0.00048732823
0.00048732669
0.00048732489
0.00048732307
0.00048732103
0.00048731893
0.0004873166
0.00048731419
0.00048731152
0.00048730873
0.00048730567
0.00048730246
0.00048729893
0.00048729522
0.00048729115
0.00048728688
0.00048728219
0.00048727725
0.00048727185
0.00048726615
0.00048725993
0.00048725335
0.0004872462
0.00048723861
0.00048723039
0.00048722166
0.00048721223
0.00048720217
0.00048719146
0.00048717992
0.0004871677
0.00048715457
0.00048714069
0.00048712583
0.00048711014
0.00048709343
0.00048707584
0.0004870572
0.00048703761
0.00048701703
0.00048699547
0.00048697296
0.00048694952
0.00048692521
0.00048690008
0.00048687418
0.00048684763
0.0004868205
0.00048679291
0.000486765
0.00048673689
0.00048670873
0.00048668069
0.00048665291
0.00048662556
0.00048659881
0.00048657281
0.00048654769
0.0004865236
0.00048650064
0.0004864789
0.00048645846
0.00048643936
0.00048642162
0.00048640523
0.00048639017
0.00048637642
0.00048636392
0.00048635265
0.00048634255
0.00048633361
0.0004863258
0.00048631912
0.00048631356
0.00048630911
0.00048630574
0.00048630339
0.00048630194
0.00048630123
0.00048630099
0.00048630088
0.00048630042
0.00048629525
0.0004862891
0.00048628415
0.00048628092
0.00048627351
0.00048625968
0.0004862422
0.0004862208
0.00048619558
0.00048616685
0.00048613503
0.00048610058
0.00048606395
0.00048602552
0.00048598563
0.00048594454
0.00048590249
0.0004858597
0.00048581642
0.0004857729
0.00048572951
0.00048568667
0.00048564506
0.00048560548
0.00048556922
0.00048553771
0.00048551346
0.00048549881
0.00048549818
0.00048551472
0.00048555565
0.00048562324
0.00048572912
0.00048586926
0.00048606453
0.00048629124
0.0004865892
0.00048649073
0.00048746105
0.00048705456
0.00048705266
0.00048705112
0.00048704911
0.00048704715
0.0004870449
0.0004870426
0.00048704003
0.00048703736
0.00048703441
0.00048703133
0.00048702795
0.00048702441
0.00048702052
0.00048701645
0.00048701199
0.0004870073
0.00048700219
0.0004869968
0.00048699095
0.00048698477
0.00048697806
0.00048697098
0.00048696332
0.00048695522
0.00048694647
0.00048693723
0.00048692728
0.00048691677
0.00048690547
0.0004868935
0.00048688082
0.00048686726
0.00048685297
0.00048683773
0.00048682172
0.00048680471
0.00048678688
0.00048676802
0.00048674832
0.00048672761
0.00048670601
0.0004866835
0.0004866601
0.00048663587
0.00048661084
0.0004865851
0.00048655871
0.00048653176
0.00048650436
0.00048647662
0.00048644867
0.00048642066
0.00048639272
0.00048636501
0.00048633769
0.00048631092
0.00048628485
0.00048625964
0.00048623542
0.00048621231
0.00048619042
0.00048616983
0.0004861506
0.00048613276
0.00048611632
0.00048610126
0.00048608755
0.00048607514
0.00048606396
0.00048605396
0.0004860451
0.00048603733
0.00048603063
0.00048602499
0.00048602042
0.00048601693
0.00048601453
0.0004860132
0.0004860129
0.00048601352
0.00048601489
0.00048601678
0.00048601887
0.00048602073
0.00048602193
0.00048602089
0.00048601912
0.00048601672
0.00048601055
0.00048600156
0.00048598955
0.00048597455
0.00048595679
0.00048593669
0.00048591476
0.00048589153
0.00048586747
0.00048584299
0.00048581843
0.00048579405
0.00048577006
0.00048574663
0.00048572395
0.00048570218
0.00048568163
0.00048566262
0.00048564571
0.00048563155
0.00048562123
0.00048561592
0.00048561768
0.00048562833
0.00048565139
0.00048568914
0.00048574722
0.00048582689
0.00048593724
0.00048607442
0.00048625407
0.00048645806
0.00048671084
0.00048656459
0.00048733481
0.00048692818
0.00048692605
0.00048692422
0.00048692191
0.00048691964
0.00048691703
0.00048691435
0.00048691136
0.00048690825
0.00048690482
0.00048690123
0.0004868973
0.00048689317
0.00048688865
0.00048688391
0.00048687874
0.0004868733
0.00048686739
0.00048686115
0.0004868544
0.00048684728
0.00048683958
0.00048683146
0.0004868227
0.00048681345
0.00048680352
0.00048679303
0.00048678179
0.00048676994
0.00048675726
0.00048674387
0.00048672973
0.00048671469
0.00048669889
0.00048668214
0.00048666459
0.00048664605
0.00048662669
0.00048660633
0.00048658515
0.000486563
0.00048654002
0.00048651619
0.00048649156
0.00048646618
0.00048644012
0.00048641347
0.0004863863
0.00048635873
0.00048633086
0.00048630282
0.00048627475
0.00048624681
0.00048621913
0.00048619187
0.0004861652
0.00048613927
0.00048611422
0.00048609022
0.00048606737
0.00048604578
0.00048602556
0.00048600676
0.00048598942
0.00048597356
0.00048595918
0.00048594625
0.00048593472
0.00048592454
0.00048591566
0.00048590802
0.00048590161
0.00048589637
0.00048589231
0.00048588944
0.00048588779
0.00048588736
0.00048588819
0.00048589024
0.00048589347
0.00048589775
0.00048590291
0.00048590868
0.00048591473
0.00048592066
0.00048592604
0.0004859304
0.00048593187
0.00048593378
0.00048593313
0.00048592946
0.00048592322
0.00048591454
0.00048590371
0.00048589115
0.00048587736
0.00048586286
0.00048584809
0.00048583346
0.00048581929
0.00048580582
0.00048579322
0.00048578164
0.00048577123
0.00048576211
0.00048575452
0.00048574872
0.00048574521
0.00048574452
0.00048574761
0.00048575547
0.00048576985
0.00048579229
0.00048582572
0.00048587196
0.00048593559
0.00048601741
0.00048612447
0.00048625321
0.0004864146
0.00048659433
0.00048680642
0.00048661713
0.00048728202
0.00048687517
0.00048687288
0.00048687081
0.00048686829
0.00048686576
0.0004868629
0.00048685993
0.00048685663
0.00048685319
0.00048684941
0.00048684544
0.00048684109
0.00048683653
0.00048683155
0.00048682631
0.00048682061
0.00048681461
0.0004868081
0.00048680125
0.00048679383
0.00048678601
0.00048677758
0.00048676869
0.00048675913
0.00048674905
0.00048673824
0.00048672685
0.00048671467
0.00048670186
0.00048668819
0.00048667378
0.0004866586
0.00048664249
0.00048662562
0.00048660778
0.00048658915
0.00048656952
0.00048654909
0.00048652767
0.00048650546
0.00048648231
0.00048645837
0.00048643363
0.00048640814
0.00048638198
0.00048635522
0.00048632794
0.00048630024
0.00048627224
0.00048624404
0.0004862158
0.00048618764
0.00048615973
0.00048613221
0.00048610524
0.00048607899
0.0004860536
0.00048602923
0.00048600603
0.0004859841
0.00048596355
0.00048594448
0.00048592695
0.00048591099
0.00048589662
0.00048588385
0.00048587266
0.000485863
0.00048585484
0.00048584815
0.00048584288
0.00048583904
0.0004858366
0.00048583558
0.000485836
0.00048583788
0.00048584123
0.00048584608
0.00048585237
0.00048586002
0.00048586887
0.00048587872
0.00048588927
0.00048590016
0.00048591097
0.00048592126
0.0004859263
0.00048592968
0.00048593645
0.00048594396
0.0004859501
0.00048594939
0.00048594646
0.00048594157
0.00048593514
0.0004859276
0.00048591944
0.00048591108
0.0004859029
0.00048589518
0.00048588817
0.00048588202
0.00048587688
0.00048587287
0.00048587013
0.00048586886
0.00048586934
0.00048587198
0.00048587733
0.00048588623
0.00048589959
0.00048591896
0.00048594568
0.00048598226
0.00048603021
0.00048609332
0.00048617216
0.00048627226
0.00048639065
0.00048653499
0.00048669426
0.00048687557
0.00048665348
0.00048726113
0.00048685406
0.00048685167
0.00048684941
0.00048684673
0.00048684401
0.00048684095
0.00048683777
0.00048683424
0.00048683055
0.00048682649
0.00048682224
0.00048681758
0.00048681269
0.00048680736
0.00048680175
0.00048679565
0.00048678923
0.00048678228
0.00048677495
0.00048676704
0.0004867587
0.00048674972
0.00048674026
0.00048673009
0.00048671939
0.00048670793
0.00048669586
0.00048668298
0.00048666944
0.00048665503
0.00048663986
0.0004866239
0.00048660701
0.00048658933
0.00048657069
0.00048655124
0.00048653081
0.00048650958
0.00048648737
0.00048646438
0.00048644048
0.00048641582
0.00048639038
0.00048636425
0.00048633747
0.00048631015
0.00048628236
0.00048625422
0.00048622583
0.00048619733
0.00048616885
0.00048614053
0.00048611254
0.00048608503
0.00048605816
0.0004860321
0.000486007
0.00048598301
0.00048596029
0.00048593894
0.00048591909
0.00048590083
0.00048588422
0.00048586933
0.00048585617
0.00048584477
0.00048583511
0.00048582719
0.00048582098
0.00048581647
0.00048581364
0.00048581251
0.00048581306
0.00048581532
0.00048581931
0.00048582505
0.00048583253
0.00048584174
0.0004858526
0.00048586498
0.00048587871
0.0004858935
0.00048590905
0.00048592494
0.00048594074
0.00048594961
0.00048595299
0.00048595859
0.00048596805
0.00048598174
0.00048599797
0.00048601085
0.00048601489
0.00048601483
0.00048601316
0.00048601027
0.00048600662
0.00048600258
0.00048599851
0.00048599471
0.00048599141
0.00048598879
0.00048598703
0.00048598627
0.00048598668
0.00048598849
0.000485992
0.00048599763
0.00048600593
0.00048601769
0.00048603379
0.0004860556
0.00048608434
0.00048612214
0.00048617028
0.00048623181
0.00048630707
0.00048640016
0.00048650841
0.00048663676
0.00048677662
0.00048693105
0.00048668109
0.00048725284
0.00048684558
0.00048684311
0.00048684069
0.00048683789
0.00048683502
0.0004868318
0.00048682845
0.00048682474
0.00048682085
0.00048681658
0.0004868121
0.0004868072
0.00048680205
0.00048679644
0.00048679053
0.00048678412
0.00048677736
0.00048677005
0.00048676235
0.00048675404
0.00048674529
0.00048673587
0.00048672595
0.00048671531
0.00048670411
0.00048669213
0.00048667952
0.00048666609
0.00048665197
0.00048663697
0.00048662119
0.00048660462
0.00048658709
0.00048656877
0.00048654948
0.00048652938
0.00048650829
0.0004864864
0.00048646354
0.00048643992
0.00048641539
0.00048639011
0.00048636408
0.00048633737
0.00048631005
0.00048628221
0.00048625394
0.00048622535
0.00048619656
0.0004861677
0.00048613891
0.00048611034
0.00048608215
0.00048605451
0.00048602757
0.00048600151
0.00048597649
0.00048595266
0.00048593019
0.0004859092
0.00048588981
0.00048587214
0.00048585626
0.00048584224
0.00048583013
0.00048581997
0.00048581176
0.00048580552
0.00048580124
0.00048579893
0.00048579858
0.00048580022
0.00048580384
0.00048580948
0.00048581713
0.0004858268
0.00048583847
0.00048585208
0.00048586751
0.0004858846
0.00048590312
0.00048592276
0.00048594316
0.00048596387
0.00048597637
0.00048598031
0.00048598504
0.0004859932
0.00048600512
0.00048602113
0.00048604145
0.00048606623
0.00048608543
0.00048609741
0.0004860995
0.00048610018
0.00048609983
0.00048609882
0.00048609749
0.00048609615
0.00048609504
0.00048609439
0.00048609439
0.00048609523
0.00048609712
0.00048610033
0.00048610517
0.00048611211
0.00048612167
0.00048613463
0.00048615181
0.00048617443
0.00048620359
0.00048624111
0.00048628804
0.00048634684
0.00048641771
0.00048650369
0.00048660251
0.00048671722
0.00048684111
0.00048697458
0.00048670242
0.00048724912
0.00048684171
0.00048683918
0.00048683663
0.00048683372
0.00048683072
0.00048682737
0.00048682387
0.00048682001
0.00048681595
0.00048681151
0.00048680683
0.00048680172
0.00048679635
0.0004867905
0.00048678434
0.00048677766
0.00048677062
0.00048676301
0.00048675498
0.00048674634
0.00048673723
0.00048672744
0.00048671713
0.00048670608
0.00048669445
0.00048668202
0.00048666895
0.00048665503
0.00048664042
0.0004866249
0.0004866086
0.00048659148
0.0004865734
0.00048655452
0.00048653465
0.00048651398
0.0004864923
0.00048646983
0.00048644638
0.00048642217
0.00048639705
0.00048637119
0.00048634459
0.00048631733
0.00048628947
0.0004862611
0.00048623233
0.00048620326
0.00048617402
0.00048614473
0.00048611555
0.00048608663
0.00048605814
0.00048603024
0.0004860031
0.0004859769
0.00048595182
0.000485928
0.00048590564
0.00048588487
0.00048586582
0.00048584861
0.00048583335
0.00048582013
0.00048580899
0.00048580002
0.00048579323
0.00048578865
0.00048578631
0.00048578621
0.00048578836
0.0004857928
0.00048579952
0.00048580853
0.00048581982
0.00048583338
0.00048584914
0.00048586703
0.00048588687
0.00048590847
0.00048593154
0.00048595573
0.00048598065
0.00048599646
0.000486001
0.00048600501
0.00048601207
0.0004860225
0.00048603661
0.00048605466
0.00048607684
0.00048610325
0.0004861339
0.00048616249
0.00048618285
0.00048618634
0.00048618854
0.00048618981
0.00048619049
0.00048619089
0.00048619129
0.00048619194
0.00048619307
0.00048619493
0.00048619776
0.00048620187
0.00048620761
0.00048621544
0.00048622591
0.00048623974
0.00048625769
0.00048628086
0.0004863102
0.00048634723
0.0004863928
0.0004864488
0.0004865153
0.00048659439
0.00048668409
0.00048678606
0.00048689507
0.00048701026
0.00048671942
0.00048724696
0.00048683941
0.00048683683
0.00048683417
0.00048683117
0.00048682806
0.00048682459
0.00048682096
0.00048681696
0.00048681276
0.00048680815
0.0004868033
0.00048679801
0.00048679243
0.00048678637
0.00048677998
0.00048677306
0.00048676576
0.00048675788
0.00048674957
0.00048674063
0.00048673119
0.00048672107
0.0004867104
0.00048669898
0.00048668696
0.00048667413
0.00048666064
0.00048664628
0.00048663121
0.00048661523
0.00048659844
0.00048658082
0.00048656223
0.00048654282
0.00048652242
0.00048650119
0.00048647896
0.00048645593
0.00048643191
0.00048640713
0.00048638144
0.000486355
0.00048632783
0.0004863
0.00048627158
0.00048624265
0.00048621334
0.00048618373
0.00048615397
0.0004861242
0.00048609455
0.00048606519
0.0004860363
0.00048600804
0.00048598059
0.00048595414
0.00048592888
0.00048590497
0.00048588261
0.00048586195
0.00048584314
0.00048582632
0.00048581161
0.00048579911
0.00048578892
0.0004857811
0.00048577572
0.0004857728
0.00048577239
0.00048577451
0.00048577917
0.0004857864
0.00048579619
0.00048580854
0.00048582341
0.00048584077
0.00048586051
0.00048588251
0.00048590657
0.00048593244
0.0004859598
0.00048598827
0.00048600726
0.00048601236
0.00048601564
0.00048602171
0.00048603086
0.00048604337
0.0004860595
0.00048607947
0.00048610341
0.00048613139
0.00048616338
0.00048619928
0.00048623777
0.00048626179
0.00048627082
0.00048627392
0.00048627618
0.00048627792
0.00048627943
0.00048628101
0.00048628292
0.00048628543
0.00048628884
0.00048629348
0.00048629971
0.00048630801
0.00048631891
0.00048633308
0.00048635123
0.00048637433
0.0004864032
0.00048643911
0.00048648275
0.00048653558
0.00048659758
0.00048667017
0.00048675167
0.00048684279
0.00048693938
0.00048703975
0.00048673345
0.00048724533
0.00048683767
0.00048683505
0.00048683227
0.00048682921
0.00048682598
0.00048682241
0.00048681867
0.00048681454
0.0004868102
0.00048680544
0.00048680043
0.00048679497
0.00048678921
0.00048678295
0.00048677635
0.00048676921
0.00048676167
0.00048675354
0.00048674496
0.00048673573
0.000486726
0.00048671556
0.00048670456
0.00048669279
0.0004866804
0.00048666719
0.0004866533
0.00048663853
0.00048662303
0.00048660659
0.00048658934
0.00048657125
0.00048655216
0.00048653224
0.00048651132
0.00048648956
0.00048646678
0.00048644319
0.0004864186
0.00048639324
0.00048636697
0.00048633995
0.00048631219
0.00048628375
0.00048625473
0.00048622521
0.0004861953
0.00048616511
0.00048613478
0.00048610443
0.00048607424
0.00048604436
0.00048601498
0.00048598627
0.00048595842
0.00048593163
0.0004859061
0.00048588201
0.00048585956
0.00048583893
0.00048582028
0.00048580378
0.00048578957
0.00048577777
0.00048576848
0.00048576181
0.00048575782
0.00048575657
0.0004857581
0.00048576244
0.00048576961
0.00048577964
0.00048579248
0.00048580814
0.00048582654
0.00048584761
0.00048587122
0.00048589721
0.00048592532
0.00048595527
0.00048598671
0.00048600923
0.00048601488
0.00048601717
0.00048602214
0.00048603001
0.00048604104
0.00048605546
0.00048607347
0.00048609524
0.00048612087
0.00048615038
0.00048618373
0.00048622076
0.00048626126
0.00048630494
0.00048633572
0.00048635116
0.00048635475
0.00048635761
0.00048636007
0.00048636242
0.000486365
0.00048636808
0.00048637199
0.00048637709
0.00048638376
0.00048639247
0.00048640372
0.00048641815
0.00048643639
0.0004864593
0.00048648756
0.00048652221
0.00048656379
0.00048661338
0.00048667087
0.00048673716
0.00048681076
0.00048689179
0.00048697698
0.0004870644
0.00048674503
0.00048724391
0.00048683615
0.00048683348
0.00048683062
0.00048682748
0.00048682415
0.00048682049
0.00048681663
0.00048681239
0.00048680792
0.00048680303
0.00048679787
0.00048679225
0.00048678632
0.00048677988
0.00048677308
0.00048676573
0.00048675797
0.0004867496
0.00048674076
0.00048673127
0.00048672125
0.00048671051
0.0004866992
0.0004866871
0.00048667436
0.00048666079
0.00048664652
0.00048663135
0.00048661543
0.00048659857
0.00048658086
0.0004865623
0.00048654273
0.00048652232
0.00048650088
0.00048647859
0.00048645526
0.00048643111
0.00048640595
0.00048638001
0.00048635313
0.0004863255
0.00048629712
0.00048626806
0.0004862384
0.00048620824
0.00048617768
0.00048614685
0.00048611587
0.0004860849
0.00048605408
0.0004860236
0.00048599364
0.00048596439
0.00048593605
0.00048590883
0.00048588293
0.00048585856
0.00048583594
0.00048581526
0.0004857967
0.00048578046
0.00048576668
0.00048575553
0.00048574711
0.00048574156
0.00048573895
0.00048573935
0.00048574282
0.0004857494
0.00048575909
0.0004857719
0.0004857878
0.00048580675
0.00048582865
0.0004858534
0.00048588082
0.00048591071
0.00048594278
0.0004859767
0.00048600379
0.00048601036
0.00048601123
0.00048601478
0.00048602122
0.00048603072
0.0004860435
0.00048605973
0.00048607956
0.00048610312
0.00048613046
0.00048616156
0.00048619633
0.00048623461
0.00048627617
0.0004863207
0.0004863679
0.00048640626
0.00048642771
0.00048643148
0.00048643468
0.00048643764
0.00048644069
0.00048644415
0.00048644836
0.00048645369
0.00048646055
0.00048646936
0.00048648065
0.00048649496
0.0004865129
0.00048653519
0.00048656243
0.00048659545
0.00048663469
0.00048668095
0.00048673405
0.00048679452
0.00048686107
0.00048693342
0.00048700891
0.00048708546
0.00048675495
0.00048724259
0.00048683475
0.00048683205
0.0004868291
0.0004868259
0.00048682248
0.00048681874
0.00048681478
0.00048681043
0.00048680584
0.00048680082
0.00048679552
0.00048678975
0.00048678366
0.00048677705
0.00048677007
0.00048676251
0.00048675454
0.00048674594
0.00048673687
0.00048672712
0.00048671684
0.00048670581
0.0004866942
0.00048668178
0.00048666872
0.00048665479
0.00048664015
0.0004866246
0.00048660828
0.00048659099
0.00048657284
0.00048655383
0.00048653378
0.00048651287
0.00048649092
0.0004864681
0.00048644423
0.00048641951
0.00048639377
0.00048636722
0.00048633973
0.00048631146
0.00048628243
0.0004862527
0.00048622237
0.00048619152
0.00048616026
0.00048612873
0.00048609704
0.00048606536
0.00048603385
0.00048600268
0.00048597206
0.00048594218
0.00048591325
0.0004858855
0.00048585914
0.0004858344
0.00048581152
0.0004857907
0.00048577216
0.0004857561
0.0004857427
0.00048573214
0.00048572456
0.0004857201
0.00048571885
0.0004857209
0.00048572632
0.00048573513
0.00048574735
0.00048576297
0.00048578194
0.00048580418
0.00048582959
0.00048585801
0.00048588922
0.00048592299
0.00048595898
0.00048599249
0.00048600089
0.00048599968
0.00048600131
0.00048600591
0.00048601364
0.00048602463
0.00048603904
0.000486057
0.00048607862
0.00048610396
0.00048613303
0.00048616577
0.00048620206
0.0004862417
0.00048628445
0.00048632999
0.00048637802
0.00048642814
0.00048647358
0.0004865005
0.00048650431
0.00048650775
0.00048651118
0.00048651492
0.00048651935
0.00048652485
0.00048653179
0.00048654063
0.00048655183
0.00048656592
0.00048658341
0.00048660494
0.00048663101
0.00048666228
0.00048669907
0.00048674195
0.0004867907
0.00048684556
0.00048690541
0.00048696972
0.00048703637
0.00048710338
0.00048676334
0.00048724136
0.00048683345
0.00048683072
0.0004868277
0.00048682444
0.00048682094
0.00048681712
0.00048681306
0.00048680862
0.00048680392
0.00048679878
0.00048679335
0.00048678744
0.0004867812
0.00048677443
0.00048676727
0.00048675953
0.00048675136
0.00048674255
0.00048673326
0.00048672327
0.00048671273
0.00048670143
0.00048668953
0.00048667681
0.00048666343
0.00048664916
0.00048663417
0.00048661824
0.00048660153
0.00048658383
0.00048656526
0.00048654579
0.00048652527
0.00048650388
0.00048648141
0.00048645806
0.00048643364
0.00048640834
0.00048638201
0.00048635484
0.00048632671
0.00048629779
0.00048626808
0.00048623765
0.0004862066
0.00048617501
0.000486143
0.0004861107
0.00048607824
0.00048604578
0.00048601349
0.00048598155
0.00048595018
0.00048591957
0.00048588996
0.00048586157
0.00048583465
0.00048580944
0.00048578619
0.00048576514
0.00048574652
0.00048573056
0.00048571747
0.00048570744
0.00048570064
0.00048569723
0.00048569731
0.000485701
0.00048570836
0.00048571941
0.00048573417
0.00048575263
0.00048577469
0.00048580028
0.00048582923
0.00048586135
0.00048589639
0.00048593408
0.000485974
0.00048598863
0.00048598456
0.00048598358
0.00048598578
0.00048599126
0.00048600015
0.00048601253
0.00048602852
0.0004860482
0.00048607162
0.00048609879
0.00048612967
0.00048616414
0.00048620206
0.0004862432
0.00048628729
0.000486334
0.000486383
0.00048643393
0.00048648643
0.00048653823
0.00048656764
0.00048657368
0.00048657729
0.00048658113
0.00048658557
0.000486591
0.0004865978
0.0004866064
0.00048661725
0.00048663082
0.00048664757
0.00048666805
0.00048669269
0.00048672201