/*--------------------------------*- C++ -*----------------------------------*\
| =========                 |                                                 |
| \\      /  F ield         | foam-extend: Open Source CFD                    |
|  \\    /   O peration     | Version:     4.1                                |
|   \\  /    A nd           | Web:         http://www.foam-extend.org         |
|    \\/     M anipulation  |                                                 |
\*---------------------------------------------------------------------------*/
FoamFile
{
    version     2.0;
    format      ascii;
    class       volVectorField;
    location    "1";
    object      U;
}
// * * * * * * * * * * * * * * * * * * * * * * * * * * * * * * * * * * * * * //

dimensions      [0 1 -1 0 0 0 0];

internalField   nonuniform List<vector> 
16126
(
(0.15405523 -1.4107848e-05 0)
(0.15412144 2.5847338e-06 0)
(0.15406897 -9.3914721e-07 0)
(0.15411872 1.5730452e-06 0)
(0.15407148 3.1259981e-06 0)
(0.15409599 3.280917e-06 0)
(0.15405725 4.9147867e-06 0)
(0.15405966 4.5717576e-06 0)
(0.15402416 5.9723239e-06 0)
(0.15401 6.0648482e-06 0)
(0.15397339 7.3204766e-06 0)
(0.15394646 7.802318e-06 0)
(0.15390575 8.9673863e-06 0)
(0.15386819 9.7099315e-06 0)
(0.15382147 1.0840963e-05 0)
(0.15377437 1.1757339e-05 0)
(0.1537205 1.2893837e-05 0)
(0.15366437 1.3927603e-05 0)
(0.15360269 1.5083004e-05 0)
(0.1535378 1.6185179e-05 0)
(0.15346804 1.7341256e-05 0)
(0.15339466 1.8448866e-05 0)
(0.15331692 1.9546551e-05 0)
(0.15323555 2.0562101e-05 0)
(0.15315034 2.1489939e-05 0)
(0.15306187 2.2270559e-05 0)
(0.15297025 2.2874563e-05 0)
(0.15287608 2.3283883e-05 0)
(0.15277976 2.3505928e-05 0)
(0.15268194 2.3696926e-05 0)
(0.15258348 2.4145005e-05 0)
(0.15248565 2.4950224e-05 0)
(0.15238972 2.620909e-05 0)
(0.15229709 2.8189836e-05 0)
(0.15220937 3.1092136e-05 0)
(0.15212796 3.5297786e-05 0)
(0.1520545 3.8635735e-05 0)
(0.15199131 3.972664e-05 0)
(0.15194174 3.9200789e-05 0)
(0.15190992 3.6030146e-05 0)
(0.15190158 3.0357457e-05 0)
(0.15192156 2.5721567e-05 0)
(0.15196837 2.2759724e-05 0)
(0.15204564 1.9484815e-05 0)
(0.15215647 1.5911198e-05 0)
(0.15230455 1.1809187e-05 0)
(0.15249352 7.1718892e-06 0)
(0.15272702 1.9644467e-06 0)
(0.15300863 -3.814951e-06 0)
(0.15334173 -1.0164562e-05 0)
(0.15372948 -1.7070362e-05 0)
(0.1541747 -2.4509368e-05 0)
(0.15467984 -3.2448603e-05 0)
(0.15524684 -4.0844661e-05 0)
(0.15587708 -4.9643834e-05 0)
(0.15657129 -5.878233e-05 0)
(0.1573295 -6.8186042e-05 0)
(0.15815097 -7.7771012e-05 0)
(0.1590341 -8.744439e-05 0)
(0.15997648 -9.710441e-05 0)
(0.16097476 -0.00010664175 0)
(0.16202473 -0.00011594093 0)
(0.16312131 -0.00012488098 0)
(0.16425854 -0.0001333371 0)
(0.16542971 -0.00014118182 0)
(0.16662735 -0.00014828661 0)
(0.16784339 -0.00015452249 0)
(0.16906919 -0.00015976066 0)
(0.17029568 -0.00016387458 0)
(0.17151345 -0.00016673833 0)
(0.17271287 -0.0001682299 0)
(0.17388416 -0.00016822908 0)
(0.1750175 -0.0001666245 0)
(0.17610314 -0.00016330869 0)
(0.17713138 -0.00015819693 0)
(0.17809288 -0.00015121387 0)
(0.17897842 -0.00014233309 0)
(0.17977958 -0.00013154104 0)
(0.18048818 -0.00011891214 0)
(0.18109762 -0.00010450084 0)
(0.1816015 -8.8473556e-05 0)
(0.18199637 -7.074612e-05 0)
(0.182278 -5.141455e-05 0)
(0.18244762 -2.9008052e-05 0)
(0.18249876 -8.7668999e-06 0)
(0.18244854 4.193968e-06 0)
(0.18228091 1.6993239e-05 0)
(0.18200008 3.1757791e-05 0)
(0.18161529 4.3716003e-05 0)
(0.18115333 5.0837442e-05 0)
(0.18065014 5.0176586e-05 0)
(0.18015365 4.6207388e-05 0)
(0.17971505 3.8816288e-05 0)
(0.17939527 6.9559534e-05 0)
(0.179265 0.0001040274 0)
(0.17943693 8.2729014e-05 0)
(0.17995431 5.3426657e-05 0)
(0.18081989 3.8141491e-05 0)
(0.18203815 3.6963802e-05 0)
(0.18361363 4.8476172e-05 0)
(0.18556158 6.9310575e-05 0)
(0.18790159 9.6712547e-05 0)
(0.19067204 0.00012816936 0)
(0.19391683 0.00015939514 0)
(0.19771497 0.0001854507 0)
(0.20215086 0.00019544684 0)
(0.20737741 0.00017599445 0)
(0.21354921 0.00010003527 0)
(0.22095694 -6.3872727e-05 0)
(0.22987331 -0.00037387878 0)
(0.24083629 -0.00088990793 0)
(0.25428681 -0.0017177548 0)
(0.27116763 -0.0029456945 0)
(0.29206892 -0.0047350537 0)
(0.31852722 -0.0071708046 0)
(0.35102286 -0.010462358 0)
(0.39192893 -0.014606755 0)
(0.44078597 -0.019868735 0)
(0.50141862 -0.025967504 0)
(0.57019071 -0.033380178 0)
(0.65491672 -0.040700052 0)
(0.74102154 -0.04985281 0)
(0.85366874 -0.0513176 0)
(0.92415205 -0.062803636 0)
(0.43852461 -4.2312196e-05 0)
(0.43860157 -1.2025169e-06 0)
(0.43857308 -5.8734366e-06 0)
(0.43861951 3.5009648e-06 0)
(0.43859116 6.8121567e-06 0)
(0.43861258 1.0133028e-05 0)
(0.43858641 1.6418396e-05 0)
(0.43858758 1.9717904e-05 0)
(0.43855979 2.5652473e-05 0)
(0.438545 2.9039869e-05 0)
(0.4385124 3.4326115e-05 0)
(0.43848469 3.8036674e-05 0)
(0.4384455 4.2933644e-05 0)
(0.43840687 4.6952721e-05 0)
(0.4383603 5.1663561e-05 0)
(0.43831212 5.5908725e-05 0)
(0.43825803 6.0535704e-05 0)
(0.43820143 6.4910693e-05 0)
(0.43814028 6.9470425e-05 0)
(0.4380765 7.3865298e-05 0)
(0.43800932 7.8304331e-05 0)
(0.43794002 8.25849e-05 0)
(0.43786859 8.6790367e-05 0)
(0.43779612 9.0790759e-05 0)
(0.43772316 9.4599948e-05 0)
(0.43765091 9.8119894e-05 0)
(0.43758042 0.0001013237 0)
(0.43751319 0.00010409399 0)
(0.43745086 0.00010633465 0)
(0.43739544 0.0001076612 0)
(0.43734909 0.00010731055 0)
(0.43731447 0.00010486414 0)
(0.43729484 0.00010016415 0)
(0.43729402 9.2719092e-05 0)
(0.43731687 8.229598e-05 0)
(0.43736803 6.839926e-05 0)
(0.43745473 5.269487e-05 0)
(0.43757676 3.5538035e-05 0)
(0.43773853 1.5055488e-05 0)
(0.43794353 -9.3750316e-06 0)
(0.43819536 -3.8195804e-05 0)
(0.43849863 -7.0310122e-05 0)
(0.43886367 -0.00010567083 0)
(0.43929653 -0.00014517937 0)
(0.43980397 -0.00018895054 0)
(0.44039233 -0.0002370878 0)
(0.44106791 -0.00028957206 0)
(0.44183672 -0.00034631197 0)
(0.44270443 -0.00040713002 0)
(0.44367617 -0.00047175939 0)
(0.44475644 -0.00053983816 0)
(0.44594888 -0.00061090583 0)
(0.44725618 -0.00068440264 0)
(0.4486799 -0.00075966945 0)
(0.45022031 -0.00083595231 0)
(0.4518763 -0.00091240916 0)
(0.45364525 -0.00098811894 0)
(0.45552292 -0.0010620946 0)
(0.45750342 -0.0011332992 0)
(0.45957918 -0.0012006639 0)
(0.46174096 -0.0012631093 0)
(0.4639779 -0.0013195691 0)
(0.4662776 -0.0013690128 0)
(0.46862631 -0.0014104714 0)
(0.47100902 -0.0014430591 0)
(0.47340977 -0.0014659948 0)
(0.4758118 -0.001478618 0)
(0.47819787 -0.0014803997 0)
(0.48055046 -0.0014709498 0)
(0.48285207 -0.0014500136 0)
(0.48508543 -0.0014174696 0)
(0.48723369 -0.001373315 0)
(0.48928061 -0.0013176643 0)
(0.49121069 -0.0012507287 0)
(0.49300921 -0.0011728402 0)
(0.49466246 -0.0010844289 0)
(0.49615764 -0.00098610348 0)
(0.4974833 -0.00087861188 0)
(0.49862914 -0.00076302514 0)
(0.49958699 -0.00064058888 0)
(0.50035031 -0.00051310381 0)
(0.50091613 -0.00038231081 0)
(0.50128373 -0.00025092781 0)
(0.50145678 -0.0001196889 0)
(0.50144228 7.1195602e-06 0)
(0.50123014 0.00014075185 0)
(0.50081491 0.00028204563 0)
(0.5002296 0.00041286857 0)
(0.49951698 0.00052230055 0)
(0.49874338 0.00059488794 0)
(0.49799779 0.00061918778 0)
(0.49739171 0.00058068609 0)
(0.49707587 0.00047100739 0)
(0.49721795 0.000231441 0)
(0.49802192 -0.00013248196 0)
(0.49946253 -0.00054241767 0)
(0.50161462 -0.00097758381 0)
(0.50455756 -0.0014308662 0)
(0.50836301 -0.0019049291 0)
(0.51309199 -0.0024047247 0)
(0.51880354 -0.0029375342 0)
(0.52555704 -0.0035153325 0)
(0.53342427 -0.0041529106 0)
(0.54248378 -0.004871598 0)
(0.55283889 -0.0056957595 0)
(0.56459769 -0.0066604462 0)
(0.57790628 -0.0078040533 0)
(0.59290057 -0.0091838695 0)
(0.60977387 -0.010858243 0)
(0.62866869 -0.012916934 0)
(0.64982069 -0.015437304 0)
(0.67331906 -0.018544568 0)
(0.69942409 -0.022308929 0)
(0.72803442 -0.026873433 0)
(0.75941274 -0.032223081 0)
(0.79297412 -0.038480547 0)
(0.82901372 -0.04538743 0)
(0.86582089 -0.053048819 0)
(0.90402864 -0.060640811 0)
(0.93925395 -0.068554703 0)
(0.97384196 -0.074232243 0)
(0.99687215 -0.080420841 0)
(1.0165929 -0.074776866 0)
(1.0120303 -0.080171333 0)
(0.66801755 -7.7633978e-05 0)
(0.66811942 -1.888117e-05 0)
(0.66812104 -2.1540129e-05 0)
(0.6681881 -3.7136488e-06 0)
(0.66819297 2.6734978e-06 0)
(0.66823532 1.0340199e-05 0)
(0.66824315 1.8623853e-05 0)
(0.66827269 2.427302e-05 0)
(0.66828301 3.26083e-05 0)
(0.66830434 3.8553634e-05 0)
(0.66831501 4.6450046e-05 0)
(0.66833121 5.2702997e-05 0)
(0.66834178 6.0111879e-05 0)
(0.6683554 6.6489575e-05 0)
(0.66836654 7.3450781e-05 0)
(0.66837997 7.9734985e-05 0)
(0.66839318 8.6202389e-05 0)
(0.66840896 9.2126385e-05 0)
(0.66842648 9.7915822e-05 0)
(0.66844764 0.00010312159 0)
(0.66847258 0.00010788034 0)
(0.6685029 0.00011186444 0)
(0.66853943 0.00011503218 0)
(0.66858384 0.00011708295 0)
(0.66863752 0.00011783909 0)
(0.66870247 0.00011697017 0)
(0.66878069 0.00011418121 0)
(0.66887468 0.00010909486 0)
(0.66898712 0.00010134643 0)
(0.669121 9.0630424e-05 0)
(0.6692796 7.6955593e-05 0)
(0.66946448 5.9835152e-05 0)
(0.66967866 3.8454034e-05 0)
(0.66992507 1.2148466e-05 0)
(0.67020668 -1.9575644e-05 0)
(0.67052725 -5.7445372e-05 0)
(0.67088906 -0.00010072937 0)
(0.67130125 -0.00014941293 0)
(0.67176908 -0.00020498084 0)
(0.67229861 -0.00026802922 0)
(0.6728953 -0.00033924611 0)
(0.67356547 -0.00041933239 0)
(0.67431609 -0.00050845814 0)
(0.67515351 -0.00060644296 0)
(0.67608387 -0.00071340343 0)
(0.67711317 -0.00082928511 0)
(0.67824704 -0.00095388308 0)
(0.67949067 -0.0010868111 0)
(0.68084863 -0.0012274867 0)
(0.68232473 -0.0013751227 0)
(0.68392185 -0.0015287183 0)
(0.68564179 -0.0016870562 0)
(0.68748509 -0.0018487051 0)
(0.68945092 -0.0020120265 0)
(0.69153694 -0.0021751903 0)
(0.69373916 -0.0023361956 0)
(0.69605192 -0.0024928991 0)
(0.69846779 -0.0026430505 0)
(0.70097759 -0.002784335 0)
(0.70357041 -0.0029144209 0)
(0.7062337 -0.0030310124 0)
(0.7089534 -0.0031319063 0)
(0.7117141 -0.0032150481 0)
(0.71449927 -0.0032785877 0)
(0.71729152 -0.003320929 0)
(0.72007287 -0.0033407729 0)
(0.7228251 -0.0033371458 0)
(0.72552998 -0.0033094158 0)
(0.72816964 -0.0032572917 0)
(0.73072678 -0.0031808037 0)
(0.73318487 -0.003080273 0)
(0.73552837 -0.0029562655 0)
(0.73774272 -0.0028095539 0)
(0.73981444 -0.0026410667 0)
(0.74173108 -0.00245189 0)
(0.74348124 -0.0022432418 0)
(0.74505445 -0.0020165722 0)
(0.74644144 -0.0017735719 0)
(0.74763402 -0.0015164279 0)
(0.74862583 -0.0012477812 0)
(0.74941232 -0.00097111922 0)
(0.74999214 -0.00069038182 0)
(0.75036724 -0.00040985878 0)
(0.75054422 -0.00013340134 0)
(0.75053692 0.00014352569 0)
(0.7503602 0.00042302992 0)
(0.75005237 0.00068347217 0)
(0.74966957 0.00089577726 0)
(0.74928415 0.0010321803 0)
(0.74898598 0.0010604977 0)
(0.74888204 0.000947136 0)
(0.74909853 0.00065613465 0)
(0.74976452 0.00014688058 0)
(0.75098823 -0.00056144088 0)
(0.75271792 -0.0013872936 0)
(0.75509845 -0.0023087561 0)
(0.75821954 -0.0033352225 0)
(0.76217561 -0.004449994 0)
(0.76703203 -0.0056380275 0)
(0.77283723 -0.0068932848 0)
(0.77962726 -0.0082179729 0)
(0.78742718 -0.0096227446 0)
(0.79625898 -0.011123695 0)
(0.80613732 -0.012744565 0)
(0.8170801 -0.014512065 0)
(0.82909439 -0.016462371 0)
(0.84219478 -0.018632217 0)
(0.85637009 -0.021073274 0)
(0.87162131 -0.02383232 0)
(0.88788883 -0.026980421 0)
(0.90513732 -0.030566678 0)
(0.92319839 -0.034677694 0)
(0.94196815 -0.0393311 0)
(0.96106161 -0.044604091 0)
(0.98028648 -0.050392512 0)
(0.99885461 -0.056714278 0)
(1.0165534 -0.063151065 0)
(1.0318425 -0.069639582 0)
(1.0448552 -0.075023487 0)
(1.0525355 -0.079412869 0)
(1.0565325 -0.079583684 0)
(1.0507271 -0.077527406 0)
(1.0403403 -0.062588683 0)
(1.019017 -0.047407509 0)
(0.83047399 -0.00012428711 0)
(0.830614 -5.8407391e-05 0)
(0.83065004 -6.0750006e-05 0)
(0.83075812 -3.7625277e-05 0)
(0.83081141 -2.9898949e-05 0)
(0.8309022 -1.9571266e-05 0)
(0.83096514 -1.1176478e-05 0)
(0.83104846 -4.6166422e-06 0)
(0.83111897 3.321039e-06 0)
(0.83120257 9.046391e-06 0)
(0.83128198 1.5942012e-05 0)
(0.83137104 2.10503e-05 0)
(0.83146111 2.6730418e-05 0)
(0.83155975 3.105181e-05 0)
(0.83166294 3.5409317e-05 0)
(0.83177503 3.8626734e-05 0)
(0.83189453 4.1433432e-05 0)
(0.83202422 4.3104136e-05 0)
(0.83216397 4.3948487e-05 0)
(0.83231589 4.3474191e-05 0)
(0.83248066 4.1725192e-05 0)
(0.83266013 3.8303373e-05 0)
(0.83285553 3.3070428e-05 0)
(0.83306872 2.5636703e-05 0)
(0.8333013 1.5720617e-05 0)
(0.83355524 2.88902e-06 0)
(0.83383245 -1.3265e-05 0)
(0.83413503 -3.3238245e-05 0)
(0.83446514 -5.7512081e-05 0)
(0.83482523 -8.6557848e-05 0)
(0.83521767 -0.00012050277 0)
(0.83564691 -0.0001598555 0)
(0.83611629 -0.00020543761 0)
(0.83662952 -0.00025785337 0)
(0.83719044 -0.00031774723 0)
(0.83780302 -0.00038565161 0)
(0.83847168 -0.00046311914 0)
(0.83920181 -0.00055125391 0)
(0.8399983 -0.00065020965 0)
(0.84086599 -0.00076071043 0)
(0.84180979 -0.00088329267 0)
(0.84283443 -0.0010180511 0)
(0.84394453 -0.0011651049 0)
(0.84514477 -0.0013246474 0)
(0.84643962 -0.0014965914 0)
(0.84783307 -0.0016806697 0)
(0.84932864 -0.00187634 0)
(0.85092922 -0.0020827971 0)
(0.85263694 -0.0022989426 0)
(0.85445307 -0.0025233781 0)
(0.85637787 -0.0027543953 0)
(0.85841049 -0.002989978 0)
(0.86054883 -0.0032278106 0)
(0.86278947 -0.0034652956 0)
(0.86512757 -0.0036995833 0)
(0.86755685 -0.0039276102 0)
(0.87006952 -0.004146149 0)
(0.87265636 -0.004351869 0)
(0.87530672 -0.0045414058 0)
(0.87800865 -0.0047114394 0)
(0.88074904 -0.0048587776 0)
(0.8835138 -0.0049804433 0)
(0.88628808 -0.0050737592 0)
(0.88905655 -0.0051364278 0)
(0.8918037 -0.0051665994 0)
(0.89451412 -0.005162924 0)
(0.89717277 -0.0051245791 0)
(0.89976531 -0.0050512728 0)
(0.9022783 -0.004943217 0)
(0.90469934 -0.0048010726 0)
(0.9070172 -0.0046258724 0)
(0.90922179 -0.0044189286 0)
(0.91130414 -0.0041817456 0)
(0.91325621 -0.0039159382 0)
(0.91507074 -0.0036232104 0)
(0.91674115 -0.0033053475 0)
(0.91826128 -0.0029643483 0)
(0.91962563 -0.0026025243 0)
(0.92082926 -0.002222848 0)
(0.9218685 -0.0018290642 0)
(0.92274116 -0.0014262492 0)
(0.92344823 -0.0010205612 0)
(0.92399377 -0.00062005506 0)
(0.92439056 -0.00023304078 0)
(0.92465449 0.00012973687 0)
(0.92483996 0.00046400023 0)
(0.92499179 0.00074350523 0)
(0.92515802 0.00092647383 0)
(0.92539735 0.00098003802 0)
(0.92577428 0.00086533142 0)
(0.92635433 0.00054661052 0)
(0.92719673 -5.8189868e-06 0)
(0.92833331 -0.00078192706 0)
(0.92973773 -0.0017364768 0)
(0.9315226 -0.0028787878 0)
(0.93377295 -0.0042151867 0)
(0.93656312 -0.0057045659 0)
(0.93993647 -0.0073170655 0)
(0.94393118 -0.0090274341 0)
(0.9485692 -0.010819765 0)
(0.95386003 -0.012686582 0)
(0.95979874 -0.01462991 0)
(0.96637049 -0.016658613 0)
(0.9735474 -0.018790129 0)
(0.98129556 -0.021045714 0)
(0.98956523 -0.023455466 0)
(0.99830319 -0.026049607 0)
(1.0074289 -0.028870045 0)
(1.0168606 -0.031951487 0)
(1.0264625 -0.035345189 0)
(1.0361049 -0.039075712 0)
(1.0455503 -0.04319039 0)
(1.0545985 -0.047661862 0)
(1.0628366 -0.052500289 0)
(1.0699978 -0.057536369 0)
(1.07539 -0.062701066 0)
(1.0787949 -0.067521293 0)
(1.0790914 -0.071877719 0)
(1.0765169 -0.07467517 0)
(1.069288 -0.076107002 0)
(1.0590463 -0.073482808 0)
(1.0434626 -0.068841379 0)
(1.0261521 -0.054146625 0)
(1.0099679 -0.037791599 0)
(0.93202696 -0.00018737917 0)
(0.93220946 -0.00012287086 0)
(0.93227638 -0.00012737419 0)
(0.93242808 -0.00010407922 0)
(0.93252768 -9.8484668e-05 0)
(0.9326701 -8.8348667e-05 0)
(0.93279015 -8.171943e-05 0)
(0.93293464 -7.6534567e-05 0)
(0.93307223 -7.1792013e-05 0)
(0.93322672 -6.9387654e-05 0)
(0.93338293 -6.6890622e-05 0)
(0.93355324 -6.6504894e-05 0)
(0.93373057 -6.637166e-05 0)
(0.93392169 -6.8098195e-05 0)
(0.93412363 -7.056371e-05 0)
(0.93434043 -7.4819214e-05 0)
(0.93457128 -8.0299186e-05 0)
(0.93481893 -8.7700268e-05 0)
(0.93508374 -9.6825562e-05 0)
(0.93536792 -0.00010818742 0)
(0.93567254 -0.00012183101 0)
(0.93599961 -0.0001381978 0)
(0.93635069 -0.00015750112 0)
(0.93672784 -0.00018018025 0)
(0.93713296 -0.00020657615 0)
(0.93756827 -0.00023716538 0)
(0.938036 -0.00027239502 0)
(0.93853857 -0.00031281066 0)
(0.93907848 -0.00035898451 0)
(0.93965842 -0.00041164725 0)
(0.9402814 -0.00047183938 0)
(0.94095058 -0.00054039485 0)
(0.94166916 -0.00061790623 0)
(0.94244047 -0.00070522737 0)
(0.94326793 -0.00080311905 0)
(0.94415524 -0.00091240198 0)
(0.94510602 -0.0010335584 0)
(0.94612343 -0.0011672265 0)
(0.9472109 -0.0013143001 0)
(0.94837195 -0.0014754436 0)
(0.94960973 -0.0016512732 0)
(0.95092737 -0.0018421882 0)
(0.95232782 -0.0020482577 0)
(0.95381367 -0.0022692618 0)
(0.95538709 -0.0025048391 0)
(0.9570497 -0.0027543318 0)
(0.95880255 -0.0030167847 0)
(0.960646 -0.0032908973 0)
(0.96257961 -0.0035750082 0)
(0.96460211 -0.0038670805 0)
(0.96671127 -0.004164699 0)
(0.96890382 -0.0044650766 0)
(0.97117546 -0.0047650737 0)
(0.97352073 -0.0050612286 0)
(0.97593305 -0.0053498035 0)
(0.97840473 -0.0056268426 0)
(0.98092698 -0.005888245 0)
(0.98348999 -0.0061298511 0)
(0.98608307 -0.0063475395 0)
(0.9886948 -0.0065373344 0)
(0.99131318 -0.0066955168 0)
(0.99392589 -0.0068187386 0)
(0.99652056 -0.0069041283 0)
(0.99908499 -0.0069493872 0)
(1.0016075 -0.0069528623 0)
(1.0040771 -0.0069135937 0)
(1.0064839 -0.0068313231 0)
(1.008819 -0.006706466 0)
(1.011075 -0.0065400383 0)
(1.0132458 -0.0063335487 0)
(1.0153262 -0.0060888592 0)
(1.0173126 -0.0058080367 0)
(1.0192018 -0.0054932135 0)
(1.0209915 -0.0051464811 0)
(1.0226792 -0.0047698596 0)
(1.0242628 -0.0043653335 0)
(1.0257396 -0.0039350405 0)
(1.0271067 -0.0034814999 0)
(1.028361 -0.0030080811 0)
(1.0295001 -0.0025193307 0)
(1.0305218 -0.0020216911 0)
(1.0314266 -0.0015235667 0)
(1.0322176 -0.0010364287 0)
(1.0329021 -0.00057364481 0)
(1.033498 -0.00015566226 0)
(1.0340219 0.00019877198 0)
(1.0345355 0.00047060458 0)
(1.0350541 0.00062433522 0)
(1.0356089 0.000619541 0)
(1.0362237 0.00042019535 0)
(1.0369191 -3.9224218e-06 0)
(1.037704 -0.00066394306 0)
(1.0385704 -0.0015526521 0)
(1.0395855 -0.0026913058 0)
(1.0408014 -0.0040755167 0)
(1.0422488 -0.0056676382 0)
(1.0439502 -0.0074399024 0)
(1.0459319 -0.0093559091 0)
(1.0482106 -0.011384319 0)
(1.0507948 -0.013500694 0)
(1.0536831 -0.015689258 0)
(1.0568623 -0.017944008 0)
(1.0603097 -0.020266342 0)
(1.0639901 -0.022666154 0)
(1.0678605 -0.025157108 0)
(1.0718621 -0.02776013 0)
(1.0759299 -0.030495037 0)
(1.0799747 -0.033389377 0)
(1.0839025 -0.036461241 0)
(1.0875757 -0.039738515 0)
(1.0908605 -0.043220836 0)
(1.0935421 -0.046921599 0)
(1.0954426 -0.050783187 0)
(1.0962345 -0.054775756 0)
(1.0957333 -0.058706888 0)
(1.0934647 -0.062473916 0)
(1.089384 -0.06561208 0)
(1.0828306 -0.067985987 0)
(1.0742498 -0.068590752 0)
(1.0627198 -0.067580195 0)
(1.0497211 -0.062715828 0)
(1.0343288 -0.055587714 0)
(1.0187145 -0.041059786 0)
(1.0063653 -0.024408493 0)
(0.98851619 -0.00026559959 0)
(0.98873833 -0.0002093574 0)
(0.98883002 -0.00021730767 0)
(0.98902021 -0.00019760699 0)
(0.98915749 -0.00019665661 0)
(0.98934371 -0.00019074085 0)
(0.98951103 -0.00019012064 0)
(0.98970728 -0.00019056079 0)
(0.98990104 -0.00019252807 0)
(0.99011564 -0.00019687157 0)
(0.99033667 -0.00020216118 0)
(0.99057611 -0.00020996104 0)
(0.99082759 -0.00021897697 0)
(0.99109769 -0.00023047987 0)
(0.99138402 -0.00024366777 0)
(0.99169058 -0.00025943971 0)
(0.99201699 -0.00027742214 0)
(0.99236609 -0.0002982643 0)
(0.99273857 -0.00032190067 0)
(0.99313678 -0.00034885657 0)
(0.99356205 -0.00037928435 0)
(0.99401656 -0.00041367705 0)
(0.99450206 -0.00045235192 0)
(0.99502076 -0.0004958294 0)
(0.9955747 -0.00054456396 0)
(0.99616622 -0.00059913711 0)
(0.9967976 -0.0006601219 0)
(0.99747135 -0.00072816413 0)
(0.99818998 -0.0008039213 0)
(0.99895616 -0.00088805802 0)
(0.99977246 -0.00098122407 0)
(1.0006414 -0.0010841976 0)
(1.0015657 -0.0011977919 0)
(1.0025481 -0.0013228289 0)
(1.0035912 -0.0014601493 0)
(1.0046975 -0.0016105652 0)
(1.0058697 -0.0017751003 0)
(1.0071104 -0.0019545673 0)
(1.0084219 -0.0021494502 0)
(1.0098061 -0.0023602633 0)
(1.0112649 -0.0025872945 0)
(1.0127996 -0.0028305611 0)
(1.0144113 -0.0030898821 0)
(1.0161006 -0.0033648666 0)
(1.0178675 -0.0036548103 0)
(1.0197119 -0.0039586912 0)
(1.0216325 -0.0042751129 0)
(1.0236276 -0.0046022922 0)
(1.0256947 -0.0049380362 0)
(1.0278306 -0.0052797377 0)
(1.0300311 -0.0056243774 0)
(1.0322913 -0.0059685405 0)
(1.0346052 -0.0063084468 0)
(1.0369661 -0.0066399955 0)
(1.0393666 -0.0069588275 0)
(1.0417981 -0.0072604029 0)
(1.0442518 -0.007540095 0)
(1.046718 -0.0077932996 0)
(1.0491867 -0.0080155557 0)
(1.0516476 -0.0082026758 0)
(1.0540905 -0.0083508783 0)
(1.0565054 -0.0084569178 0)
(1.0588825 -0.0085182013 0)
(1.0612131 -0.0085328859 0)
(1.0634891 -0.0084999411 0)
(1.0657039 -0.0084191744 0)
(1.0678519 -0.0082912021 0)
(1.0699291 -0.0081173731 0)
(1.0719328 -0.0078996333 0)
(1.0738615 -0.0076403528 0)
(1.075715 -0.0073421155 0)
(1.0774936 -0.0070075149 0)
(1.0791981 -0.0066389655 0)
(1.0808293 -0.006238586 0)
(1.0823876 -0.005808176 0)
(1.0838725 -0.0053493175 0)
(1.0852826 -0.0048636399 0)
(1.0866153 -0.0043531968 0)
(1.0878672 -0.0038210477 0)
(1.0890344 -0.0032717915 0)
(1.090113 -0.0027123473 0)
(1.0910999 -0.0021523339 0)
(1.0919936 -0.0016048178 0)
(1.0927959 -0.0010865488 0)
(1.0935112 -0.00061777903 0)
(1.0941482 -0.00022856144 0)
(1.0947184 5.6213043e-05 0)
(1.095249 0.00021152386 0)
(1.095748 0.00020147627 0)
(1.0962208 -6.7506854e-06 0)
(1.0966698 -0.00043802419 0)
(1.0970906 -0.001106804 0)
(1.0975103 -0.0020345277 0)
(1.0979468 -0.0032227315 0)
(1.0984029 -0.0046571321 0)
(1.098886 -0.0063175351 0)
(1.0994065 -0.0081655297 0)
(1.099971 -0.010164498 0)
(1.1005872 -0.012278935 0)
(1.1012579 -0.014480046 0)
(1.1019811 -0.016746369 0)
(1.1027472 -0.019065413 0)
(1.1035392 -0.021431971 0)
(1.1043296 -0.023848973 0)
(1.105084 -0.026323421 0)
(1.1057544 -0.028868818 0)
(1.106287 -0.031497699 0)
(1.1066077 -0.034228238 0)
(1.1066398 -0.037069148 0)
(1.1062729 -0.040034835 0)
(1.1054035 -0.043112689 0)
(1.1038692 -0.046297925 0)
(1.1015472 -0.049521755 0)
(1.0982076 -0.052737252 0)
(1.0937539 -0.055758074 0)
(1.0878805 -0.058483155 0)
(1.0806475 -0.060508682 0)
(1.0716716 -0.061741118 0)
(1.0614292 -0.061364389 0)
(1.0494793 -0.059571024 0)
(1.0370088 -0.054624862 0)
(1.0239659 -0.047742875 0)
(1.0116528 -0.035237653 0)
(1.0034071 -0.020192715 0)
(1.0167018 -0.00035821007 0)
(1.0169569 -0.00031467153 0)
(1.0170659 -0.00032712508 0)
(1.0172864 -0.00031426944 0)
(1.0174515 -0.00031974239 0)
(1.0176714 -0.00032018693 0)
(1.0178737 -0.00032690603 0)
(1.0181086 -0.00033479997 0)
(1.0183437 -0.00034554076 0)
(1.0186031 -0.00035908425 0)
(1.0188722 -0.00037473839 0)
(1.0191632 -0.00039354667 0)
(1.01947 -0.0004146444 0)
(1.019799 -0.0004390452 0)
(1.0201484 -0.00046619897 0)
(1.0205219 -0.00049689618 0)
(1.0209197 -0.00053091843 0)
(1.0213445 -0.00056888471 0)
(1.0217972 -0.00061083306 0)
(1.0222803 -0.00065729727 0)
(1.0227953 -0.00070850399 0)
(1.0233444 -0.00076497038 0)
(1.0239295 -0.00082706766 0)
(1.0245528 -0.0008953417 0)
(1.0252164 -0.00097028311 0)
(1.0259226 -0.0010524949 0)
(1.0266737 -0.0011425749 0)
(1.0274718 -0.0012412079 0)
(1.0283194 -0.0013491036 0)
(1.0292188 -0.0014670657 0)
(1.0301724 -0.0015959595 0)
(1.0311825 -0.0017365974 0)
(1.0322514 -0.0018897366 0)
(1.0333813 -0.0020561729 0)
(1.0345743 -0.0022366353 0)
(1.0358324 -0.0024318224 0)
(1.0371574 -0.0026422997 0)
(1.0385506 -0.0028686157 0)
(1.0400133 -0.0031112625 0)
(1.0415464 -0.0033705583 0)
(1.0431505 -0.0036466453 0)
(1.0448259 -0.0039393985 0)
(1.0465721 -0.0042483766 0)
(1.0483886 -0.0045728117 0)
(1.0502741 -0.0049116248 0)
(1.0522267 -0.0052633626 0)
(1.0542439 -0.005626183 0)
(1.0563226 -0.0059978243 0)
(1.0584589 -0.0063755949 0)
(1.0606483 -0.0067563702 0)
(1.0628854 -0.0071366039 0)
(1.0651644 -0.0075123537 0)
(1.0674785 -0.0078793236 0)
(1.0698203 -0.0082329226 0)
(1.0721819 -0.008568343 0)
(1.0745549 -0.0088806557 0)
(1.0769304 -0.0091649235 0)
(1.0792992 -0.0094163304 0)
(1.0816522 -0.0096303211 0)
(1.0839802 -0.00980275 0)
(1.0862743 -0.0099300264 0)
(1.0885262 -0.010009254 0)
(1.0907282 -0.010038349 0)
(1.0928736 -0.010016125 0)
(1.0949568 -0.0099423369 0)
(1.0969735 -0.009817674 0)
(1.0989207 -0.0096436801 0)
(1.1007966 -0.0094226238 0)
(1.1026007 -0.0091572943 0)
(1.1043336 -0.0088507642 0)
(1.1059967 -0.0085061118 0)
(1.1075916 -0.0081261713 0)
(1.10912 -0.0077133076 0)
(1.1105834 -0.0072693059 0)
(1.1119822 -0.0067953692 0)
(1.1133158 -0.0062923 0)
(1.1145825 -0.0057608466 0)
(1.1157791 -0.0052022259 0)
(1.1169013 -0.0046188127 0)
(1.117944 -0.0040148482 0)
(1.1189017 -0.003397298 0)
(1.1197696 -0.0027763597 0)
(1.1205434 -0.0021663142 0)
(1.1212206 -0.0015852402 0)
(1.1218017 -0.0010563858 0)
(1.1222871 -0.00060573553 0)
(1.1226777 -0.00026421534 0)
(1.1229795 -6.2561356e-05 0)
(1.1231988 -2.9202559e-05 0)
(1.1233377 -0.0001950734 0)
(1.1233938 -0.00058537291 0)
(1.1233723 -0.0012244421 0)
(1.1232739 -0.0021239666 0)
(1.1230922 -0.0032863402 0)
(1.1228222 -0.0046990228 0)
(1.1224579 -0.0063333243 0)
(1.1219958 -0.0081578981 0)
(1.1214377 -0.010136127 0)
(1.1207866 -0.012233261 0)
(1.1200461 -0.014418835 0)
(1.1192178 -0.016668653 0)
(1.1182996 -0.018966356 0)
(1.1172845 -0.021302093 0)
(1.1161581 -0.023673301 0)
(1.1149008 -0.026081023 0)
(1.1134817 -0.028531652 0)
(1.1118653 -0.031030269 0)
(1.11 -0.033585661 0)
(1.1078326 -0.036197269 0)
(1.1052841 -0.038867478 0)
(1.102284 -0.041573876 0)
(1.0987181 -0.044298785 0)
(1.0945114 -0.046968367 0)
(1.0895098 -0.049527031 0)
(1.0836777 -0.051799011 0)
(1.0768228 -0.053684125 0)
(1.06905 -0.054822373 0)
(1.0601325 -0.055122873 0)
(1.0504808 -0.053892107 0)
(1.0398658 -0.051273376 0)
(1.0291203 -0.045944641 0)
(1.0184344 -0.03883286 0)
(1.0085128 -0.027749304 0)
(1.0022178 -0.014817134 0)
(1.0294146 -0.00046135201 0)
(1.0296934 -0.00043271939 0)
(1.0298123 -0.00044996267 0)
(1.0300535 -0.00044604131 0)
(1.0302355 -0.00045915392 0)
(1.0304772 -0.00046820343 0)
(1.0307018 -0.00048426496 0)
(1.0309617 -0.00050190548 0)
(1.0312236 -0.00052336699 0)
(1.031512 -0.00054813087 0)
(1.0318123 -0.00057605931 0)
(1.0321366 -0.00060785169 0)
(1.0324791 -0.00064301463 0)
(1.0328463 -0.00068236775 0)
(1.0332362 -0.00072559129 0)
(1.0336529 -0.00077338796 0)
(1.0340966 -0.00082568549 0)
(1.0345699 -0.00088307895 0)
(1.0350741 -0.00094570651 0)
(1.0356115 -0.0010141135 0)
(1.0361838 -0.0010886021 0)
(1.0367931 -0.0011697194 0)
(1.0374415 -0.0012578979 0)
(1.038131 -0.0013537199 0)
(1.0388639 -0.001457725 0)
(1.0396424 -0.0015705455 0)
(1.0404685 -0.0016928061 0)
(1.0413447 -0.0018251826 0)
(1.042273 -0.001968356 0)
(1.0432557 -0.0021230204 0)
(1.0442949 -0.0022898812 0)
(1.0453924 -0.0024696776 0)
(1.0465503 -0.0026631293 0)
(1.0477704 -0.0028709493 0)
(1.0490542 -0.0030938108 0)
(1.0504033 -0.0033323312 0)
(1.0518188 -0.0035870913 0)
(1.0533016 -0.0038585081 0)
(1.0548525 -0.0041467801 0)
(1.0564717 -0.0044519563 0)
(1.058159 -0.0047738305 0)
(1.0599138 -0.005111921 0)
(1.0617351 -0.0054654529 0)
(1.0636212 -0.0058333349 0)
(1.0655701 -0.0062141123 0)
(1.0675791 -0.0066059434 0)
(1.069645 -0.0070065687 0)
(1.0717637 -0.0074132968 0)
(1.0739308 -0.0078229967 0)
(1.076141 -0.0082321037 0)
(1.0783886 -0.0086366386 0)
(1.0806671 -0.0090322437 0)
(1.0829695 -0.0094142354 0)
(1.0852883 -0.0097776766 0)
(1.0876154 -0.010117468 0)
(1.0899425 -0.010428458 0)
(1.0922609 -0.010705573 0)
(1.094562 -0.010943959 0)
(1.096837 -0.011139136 0)
(1.0990774 -0.011287159 0)
(1.1012749 -0.01138477 0)
(1.103422 -0.011429537 0)
(1.1055117 -0.011419965 0)
(1.1075381 -0.011355568 0)
(1.109496 -0.011236885 0)
(1.1113816 -0.011065433 0)
(1.1131921 -0.010843587 0)
(1.1149257 -0.010574392 0)
(1.1165816 -0.010261304 0)
(1.11816 -0.009907895 0)
(1.1196613 -0.0095175301 0)
(1.1210864 -0.0090930846 0)
(1.1224359 -0.008636703 0)
(1.1237101 -0.00814971 0)
(1.1249086 -0.0076326387 0)
(1.1260302 -0.0070854967 0)
(1.1270725 -0.0065081829 0)
(1.1280325 -0.0059011403 0)
(1.1289061 -0.0052661132 0)
(1.129689 -0.0046069979 0)
(1.1303766 -0.0039306856 0)
(1.1309648 -0.0032477474 0)
(1.1314503 -0.002572973 0)
(1.1318308 -0.0019257081 0)
(1.1321052 -0.001329364 0)
(1.1322737 -0.00081265228 0)
(1.1323366 -0.00040461238 0)
(1.1322938 -0.00013546119 0)
(1.1321466 -3.664761e-05 0)
(1.1318951 -0.00013619957 0)
(1.1315378 -0.00045991068 0)
(1.1310701 -0.0010264494 0)
(1.1304832 -0.0018473857 0)
(1.1297665 -0.0029215602 0)
(1.128907 -0.0042359612 0)
(1.1278953 -0.005769024 0)
(1.1267269 -0.0074893256 0)
(1.1254002 -0.0093636188 0)
(1.1239182 -0.011358108 0)
(1.1222853 -0.013442843 0)
(1.1205068 -0.015592727 0)
(1.1185861 -0.017789256 0)
(1.1165238 -0.020019665 0)
(1.1143153 -0.022277548 0)
(1.1119513 -0.024559911 0)
(1.109414 -0.026868374 0)
(1.1066813 -0.029203467 0)
(1.1037182 -0.031568408 0)
(1.1004884 -0.033957879 0)
(1.0969352 -0.036367896 0)
(1.0930105 -0.038772254 0)
(1.0886315 -0.041147415 0)
(1.0837505 -0.043421146 0)
(1.0782578 -0.045536866 0)
(1.0721431 -0.04733668 0)
(1.0652755 -0.048730822 0)
(1.0577604 -0.04941433 0)
(1.0494631 -0.049314849 0)
(1.0407231 -0.047872253 0)
(1.0314749 -0.045200052 0)
(1.0223439 -0.040289972 0)
(1.0137203 -0.033775756 0)
(1.006027 -0.024166444 0)
(1.0014104 -0.012711671 0)
(1.0346332 -0.00057214477 0)
(1.0349271 -0.00055877389 0)
(1.0350502 -0.00058101345 0)
(1.0353035 -0.00058717501 0)
(1.035494 -0.00060838143 0)
(1.035748 -0.00062692439 0)
(1.0359843 -0.00065275428 0)
(1.0362578 -0.00068089608 0)
(1.036534 -0.00071379501 0)
(1.036838 -0.00075073421 0)
(1.037155 -0.00079190862 0)
(1.0374974 -0.0008378005 0)
(1.0378592 -0.00088817093 0)
(1.038247 -0.0009437099 0)
(1.038659 -0.0010042689 0)
(1.0390992 -0.0010704936 0)
(1.0395677 -0.0011424254 0)
(1.0400675 -0.0012206455 0)
(1.0405996 -0.0013053692 0)
(1.0411664 -0.0013971487 0)
(1.0417696 -0.0014963384 0)
(1.0424115 -0.0016034977 0)
(1.043094 -0.0017190916 0)
(1.0438191 -0.0018437105 0)
(1.0445891 -0.0019779093 0)
(1.0454061 -0.0021223216 0)
(1.0462722 -0.0022775755 0)
(1.0471894 -0.0024443513 0)
(1.04816 -0.0026233337 0)
(1.0491859 -0.0028152404 0)
(1.0502692 -0.0030207835 0)
(1.0514116 -0.0032406404 0)
(1.0526149 -0.0034754405 0)
(1.0538808 -0.0037257735 0)
(1.0552106 -0.0039921443 0)