/*--------------------------------*- C++ -*----------------------------------*\
| =========                 |                                                 |
| \\      /  F ield         | foam-extend: Open Source CFD                    |
|  \\    /   O peration     | Version:     4.1                                |
|   \\  /    A nd           | Web:         http://www.foam-extend.org         |
|    \\/     M anipulation  |                                                 |
\*---------------------------------------------------------------------------*/
FoamFile
{
    version     2.0;
    format      ascii;
    class       volScalarField;
    location    "0.35";
    object      p;
}
// * * * * * * * * * * * * * * * * * * * * * * * * * * * * * * * * * * * * * //

dimensions      [0 2 -2 0 0 0 0];

internalField   nonuniform List<scalar> 
4393
(
-46.435004
-92.971373
-146.71359
-201.4824
-258.45221
-317.93469
-380.31413
-445.90182
-514.9242
-587.49403
-663.58219
-742.98929
-825.32
-909.96379
-996.0862
-1082.6337
-1168.353
-1251.8215
-1331.486
-1405.7015
-1472.7693
-1530.9717
-1578.6084
-1614.037
-1635.7271
-1642.3342
-1632.804
-1606.5174
-1563.3697
-1503.8635
-1429.2131
-1341.3273
-1242.7042
-1136.2482
-1025.0442
-912.13053
-800.31045
-692.01981
-589.25852
-493.57707
-406.10471
-327.60391
-258.53629
-199.12846
-149.44226
-109.44676
-78.923124
-56.961782
-42.746361
-45.183485
-92.385867
-146.0011
-200.61841
-257.41872
-316.7459
-378.99781
-444.49782
-513.48424
-586.08191
-662.27343
-741.86962
-824.48239
-909.5039
-996.09667
-1083.1983
-1169.5416
-1253.6877
-1334.0661
-1409.0156
-1476.8224
-1535.7542
-1584.0938
-1620.1771
-1642.4448
-1649.519
-1640.3101
-1614.1246
-1570.7941
-1510.8142
-1435.4047
-1346.5096
-1246.6927
-1138.9442
-1026.4389
-912.29519
-799.37651
-690.15539
-586.6462
-490.39607
-402.51858
-323.75362
-254.54015
-195.09196
-145.46237
-105.56008
-75.11473
-53.985305
-43.375978
-44.3803
-91.489192
-144.74261
-198.99877
-255.4477
-314.46282
-376.46403
-441.79696
-510.72306
-583.391
-659.80638
-739.79996
-822.99737
-908.79505
-996.34795
-1084.5739
-1172.1763
-1257.6813
-1339.4831
-1415.8881
-1485.1531
-1545.5174
-1595.2314
-1632.5877
-1655.9667
-1663.9107
-1655.2418
-1629.1836
-1585.4762
-1524.5436
-1447.5999
-1356.6581
-1254.4187
-1144.0506
-1028.9148
-912.29301
-797.16889
-686.0855
-581.08135
-483.69106
-394.99058
-315.66817
-246.10891
-186.48288
-136.79991
-96.874632
-66.397497
-45.811902
-37.018149
-43.590741
-90.194133
-142.83926
-196.51632
-252.42032
-310.95317
-372.56353
-437.62893
-506.44567
-579.19904
-655.93078
-736.50348
-820.56552
-907.52153
-996.51593
-1086.4366
-1175.941
-1263.5017
-1347.4586
-1426.0698
-1497.55
-1560.0993
-1611.923
-1651.2534
-1676.3826
-1685.731
-1677.9747
-1652.187
-1607.9598
-1545.6107
-1466.3405
-1372.2684
-1266.312
-1151.9249
-1032.7645
-912.36941
-793.90947
-680.03364
-572.81327
-473.7592
-383.88613
-303.80154
-233.80666
-173.99631
-124.3052
-84.458277
-54.141616
-34.022735
-25.867287
-42.766616
-88.577435
-140.36935
-193.24154
-248.39647
-306.26678
-367.33646
-432.0245
-500.6738
-573.51972
-650.65414
-731.98485
-817.19334
-905.69726
-996.62721
-1088.8287
-1180.8942
-1271.2192
-1358.0688
-1439.6355
-1514.081
-1579.5579
-1634.2184
-1676.2203
-1703.7434
-1715.0467
-1708.6053
-1683.272
-1638.414
-1574.1807
-1491.7393
-1393.3541
-1282.2547
-1162.3087
-1037.6003
-912.03214
-789.03072
-671.38381
-561.19715
-459.93766
-368.52672
-287.45503
-216.90475
-156.86138
-107.15789
-67.43692
-37.392022
-17.744399
-9.9765366
-41.759626
-86.529708
-137.22208
-189.0583
-243.24959
-300.26357
-360.62684
-424.81004
-493.2157
-566.14445
-643.75499
-726.01678
-812.65831
-903.1178
-996.50954
-1091.6224
-1186.9597
-1280.8125
-1371.3456
-1456.6691
-1534.8819
-1604.0857
-1662.3769
-1707.8298
-1738.4894
-1752.4106
-1747.8012
-1723.212
-1677.6888
-1611.126
-1524.6188
-1420.6176
-1302.784
-1175.5635
-1043.6306
-911.3803
-782.57392
-660.1675
-546.29284
-442.34063
-349.09483
-266.88256
-195.72201
-135.44773
-85.758489
-46.197325
-16.42686
2.8688433
10.41927
-40.619228
-84.121523
-133.46171
-184.01536
-237.00684
-292.94462
-352.40559
-415.92277
-483.97233
-556.9374
-635.06299
-718.40063
-806.7442
-899.56397
-995.95669
-1094.6374
-1193.9898
-1292.1651
-1387.1973
-1477.0954
-1559.8901
-1633.6363
-1696.3811
-1746.1162
-1780.7365
-1798.0505
-1795.9226
-1772.5002
-1726.3783
-1657.0677
-1565.5228
-1454.4218
-1328.0137
-1191.5389
-1050.4728
-909.85977
-773.88267
-645.68844
-527.41226
-420.32033
-325.00151
-241.56286
-169.80833
-109.37982
-59.812239
-20.527126
8.8871431
27.838788
35.217823
-39.212313
-81.202811
-128.93011
-177.9496
-229.49738
-284.12792
-342.47589
-405.14786
-472.70895
-545.64425
-624.30824
-708.85995
-799.18318
-894.79749
-994.78308
-1097.7599
-1201.9512
-1305.3211
-1405.7339
-1501.0766
-1589.3111
-1668.4586
-1736.5364
-1791.4673
-1830.9907
-1852.6296
-1853.8189
-1832.1793
-1785.6836
-1713.2692
-1615.6306
-1495.7127
-1358.5605
-1210.5055
-1058.1032
-907.24216
-762.62002
-627.58332
-504.22405
-393.61081
-296.05871
-211.38276
-139.11264
-78.651474
-29.339133
9.5468556
38.521599
57.107755
64.324454
-37.681911
-77.930773
-123.77361
-170.98378
-220.81242
-273.86553
-330.84297
-392.43641
-459.31665
-532.09317
-611.25782
-697.10942
-789.65545
-888.49144
-992.68705
-1100.7413
-1210.6627
-1320.1632
-1426.886
-1528.573
-1623.1232
-1708.5515
-1782.8819
-1844.0008
-1889.5019
-1916.5901
-1922.1756
-1903.2023
-1856.7916
-1781.0289
-1676.145
-1545.379
-1394.8602
-1232.429
-1066.0981
-902.84547
-747.98062
-605.03419
-475.974
-361.56496
-261.74404
-175.94485
-103.35281
-43.081301
5.7591899
44.059847
72.461974
90.614247
97.649172
-35.781352
-74.009886
-117.67514
-162.78914
-210.61001
-261.79798
-317.1243
-377.37709
-443.35073
-515.80452
-595.40064
-682.61812
-777.63342
-880.15823
-989.26556
-1103.3014
-1219.9828
-1336.6769
-1450.7343
-1559.7243
-1661.4984
-1754.112
-1835.657
-1904.0426
-1956.7506
-1990.6482
-2002.0229
-1986.9616
-1941.4374
-1862.2738
-1748.8949
-1604.8279
-1437.6971
-1257.456
-1074.094
-895.98528
-729.14242
-577.22194
-441.93417
-323.58868
-221.6069
-134.93177
-62.324933
-2.5565297
45.525786
83.003081
110.65792
128.27266
135.08864
-33.834084
-69.815268
-111.01626
-153.73153
-199.2287
-248.22489
-301.56765
-360.15196
-424.91428
-496.79203
-576.65659
-665.21728
-762.8809
-869.53669
-984.29095
-1105.2997
-1229.882
-1354.9277
-1477.3959
-1594.6519
-1704.5334
-1805.2088
-1894.932
-1971.7294
-2033.0362
-2075.3847
-2094.35
-2084.9444
-2041.6175
-1959.3356
-1836.1371
-1675.7544
-1487.9059
-1285.559
-1081.4046
-885.59603
-704.91288
-543.008
-401.12412
-278.90222
-175.06996
-87.947684
-15.784202
43.04862
89.99697
126.34775
153.03258
169.97212
176.51727
-31.3639
-64.765533
-103.16312
-143.14346
-185.96549
-232.40089
-283.37587
-339.90165
-403.07607
-474.04681
-553.94062
-643.75931
-744.22254
-855.49047
-976.76075
-1105.9585
-1239.8511
-1374.6522
-1506.782
-1633.3609
-1752.2663
-1861.8859
-1960.7678
-2047.1992
-2118.6861
-2171.4663
-2200.3461
-2199.0065
-2159.9172
-2075.3573
-1940.9968
-1760.517
-1546.6246
-1316.6869
-1087.1166
-870.31302
-673.81975
-501.03853
-352.42263
-226.65014
-121.52856
-34.601045
36.49156
93.828124
139.17333
174.02802
199.47299
215.56878
221.77877
-28.980907
-59.598518
-94.906009
-131.83412
-171.635
-215.13256
-263.33093
-317.36318
-378.50529
-448.14816
-527.7248
-618.60152
-721.91572
-838.23548
-966.95452
-1105.7273
-1250.5467
-1396.6507
-1539.7067
-1676.5499
-1805.2009
-1924.4344
-2033.2845
-2130.5128
-2213.8894
-2279.4475
-2321.1625
-2331.1668
-2299.4493
-2214.3903
-2067.6602
-1862.2569
-1615.2367
-1350.5761
-1089.8484
-848.24811
-633.93456
-449.62108
-294.4893
-165.85603
-60.327769
25.503974
94.701846
149.8393
193.01287
225.93413
249.82382
264.87926
270.67892
-25.885768
-53.326901
-85.15608
-118.64042
-154.99246
-195.07664
-239.96887
-290.92563
-349.41616
-417.11079
-495.80924
-587.32952
-693.36383
-815.09635
-952.31417
-1102.3898
-1260.2247
-1419.6248
-1575.1824
-1723.4
-1862.6048
-1992.1811
-2111.8756
-2221.1936
-2318.4561
-2399.6637
-2457.943
-2483.7137
-2464.0427
-2381.8077
-2221.9561
-1985.3593
-1695.5153
-1386.6796
-1087.5975
-816.8575
-582.79769
-386.70517
-225.78271
-95.45897
9.1967521
92.730373
158.99338
211.0802
251.41482
281.90122
303.87941
317.67404
322.97923
-23.048561
-47.151053
-75.232898
-104.9579
-137.50019
-173.75599
-214.86409
-262.20043
-317.43608
-382.55408
-459.78412
-551.48764
-660.06743
-787.61165
-934.63465
-1098.2631
-1271.8207
-1446.9415
-1616.6271
-1776.9956
-1926.9761
-2066.9167
-2197.5971
-2319.6718
-2432.5101
-2532.4281
-2611.7502
-2659.0769
-2658.2672
-2584.7001
-2412.103
-2136.054
-1789.6857
-1423.9237
-1077.4074
-772.67742
-517.26237
-309.81922
-144.55665
-14.339274
87.683546
167.37429
229.43177
277.46783
314.20393
341.69841
361.37611
373.67153
378.39159
-19.295421
-39.617258
-63.53551
-89.077134
-117.32446
-149.1779
-185.81539
-228.713
-279.73655
-341.20599
-415.84851
-506.66943
-616.95839
-750.11547
-907.98312
-1087.6567
-1280.2054
-1473.9545
-1659.5627
-1832.7826
-1993.7078
-2144.1853
-2286.3535
-2422.4144
-2553.3915
-2676.3487
-2782.8094
-2859.5345
-2887.4086
-2832.4153
-2649.9479
-2323.5225
-1900.5525
-1460.3704
-1054.916
-711.00799
-433.34515
-216.04501
-48.900647
78.617971
175.68287
249.61371
305.96339
348.8118
381.11308
405.01774
421.98528
432.53336
436.57434
-15.991375
-32.444688
-51.973472
-73.034339
-96.615367
-123.6043
-155.19978
-192.96085
-238.93914
-295.81628
-366.89919
-455.94876
-567.30628
-706.19656
-876.78674
-1076.681
-1293.6451
-1510.7396
-1714.9787
-1901.7262
-2073.1302
-2233.2649
-2385.8663
-2535.0916
-2684.6841
-2833.5184
-2972.7453
-3087.666
-3157.2981
-3137.1479
-2953.0035
-2561.949
-2031.6144
-1492.6261
-1013.6471
-625.47908
-326.06051
-102.02461
63.177176
184.42485
273.57168
339.44461
388.37159
424.78609
451.76608
471.46434
485.308
493.86146
497.13022
-11.549643
-23.653841
-38.371435
-54.531979
-72.956902
-94.478432
-120.27018
-151.91972
-191.60136
-242.31958
-308.00027
-393.23972
-503.50593
-646.39858
-830.04414
-1053.8953
-1300.9661
-1545.8573
-1770.0154
-1968.6536
-2147.8602
-2315.3879
-2476.8973
-2638.9057
-2809.5321
-2991.0172
-3174.135
-3342.0116
-3473.3311
-3514.7146
-3347.609
-2874.0558
-2186.8385
-1514.8167
-943.94782
-507.50869
-189.29162
35.947414
193.58846
303.83824
381.43753
436.60243
476.22761
504.9004
525.66223
540.54885
550.87213
557.19759
559.6068
-7.6579494
-15.519343
-25.359301
-36.44764
-49.41657
-65.004206
-84.3135
-108.90979
-141.03143
-183.9751
-242.38349
-321.88424
-429.13307
-574.621
-773.0323
-1028.6943
-1317.8278
-1600.7724
-1850.1521
-2061.2403
-2247.3137
-2421.8906
-2592.0342
-2765.6128
-2956.83
-3173.3772
-3405.8027
-3634.3135
-3843.5565
-3983.2487
-3872.0331
-3298.0326
-2371.0868
-1517.6874
-831.59056
-345.6782
-15.767029
201.68393
343.88818
437.13969
498.9303
540.47203
568.84035
588.47454
602.16486
611.68395
618.13284
622.02594
623.49966
-2.5552455
-5.7124477
-10.188435
-15.698278
-22.62235
-31.574933
-43.549273
-60.031361
-83.220467
-116.55679
-165.34347
-236.32352
-337.04121
-480.61033
-691.61686
-985.55004
-1329.4391
-1658.8271
-1933.081
-2148.128
-2330.757
-2503.8425
-2674.7123
-2850.1775
-3054.904
-3308.0094
-3603.0622
-3917.8321
-4245.154
-4557.3788
-4587.7447
-3908.3245
-2593.2825
-1485.8185
-654.81334
-124.80144
202.75705
398.61435
514.83361
583.83483
625.08518
649.99414
665.212
674.62076
680.49729
684.18663
686.47789
687.77942
688.25916
2.809606
3.8118555
4.3394697
4.0976923
3.0217798
0.6860732
-3.6892153
-11.366859
-24.290524
-45.725825
-81.430672
-139.52609
-228.41868
-362.88356
-581.78088
-925.56604
-1351.5926
-1749.4083
-2058.6931
-2274.7214
-2449.4639
-2621.6472
-2798.0201
-2977.4199
-3200.4219
-3505.1272
-3887.2027
-4316.638
-4767.791
-5296.0793
-5579.424
-4831.5206
-2842.2804
-1379.2562
-378.35261
174.58098
474.6028
628.82813
705.71505
742.27104
758.13248
763.58296
764.00984
762.24025
759.74932
757.2882
755.23814
753.85008
753.30064
8.2191658
13.232287
19.260178
25.026615
30.787457
36.319624
41.103232
44.148944
43.834959
37.241787
18.300228
-23.037288
-96.409052
-214.94018
-432.76611
-839.3361
-1388.1468
-1874.7543
-2216.0464
-2403.7551
-2542.8887
-2698.4252
-2874.3162
-3037.0692
-3245.6189
-3578.7551
-4027.0272
-4564.6202
-5093.34
-5964.8984
-6830.0205
-6307.4565
-3080.457
-1174.5923
35.068611
572.53733
805.74916
891.45245
913.43958
909.20907
895.33178
879.08097
863.56894
850.04131
838.89809
830.15324
823.70405
819.60365
818.01814
17.648439
25.705036
36.549363
47.394819
58.92327
71.092671
83.67277
96.027798
107.03398
114.6414
113.6131
92.864541
41.663384
-45.564541
-230.95109
-694.60902
-1429.736
-2032.5639
-2420.6308
-2560.9192
-2658.5788
-2802.6959
-2995.6539
-3123.6116
-3283.2454
-3682.9746
-4226.6186
-4963.5407
-5682.7972
-7247.4856
-8889.8791
-9080.293
-3588.524
-1043.2722
633.86734
1099.362
1198.4883
1180.6135
1131.4763
1079.4501
1032.8993
993.7875
961.94292
936.58643
916.84557
901.90855
891.14809
884.39789
881.80131
22.008761
30.877649
46.083854
62.082246
79.84961
99.56954
121.4984
145.66875
171.87919
199.66052
226.07607
240.0097
225.81778
183.95665
63.943339
-448.9769
-1535.5965
-2310.1024
-2781.4678
-2793.2352
-2768.9798
-2832.3277
-3038.6499
-3111.4876
-3213.8903
-3770.2915
-4233.391
-5185.6761
-6473.0573
-7868.4452
-9597.5915
-12117.297
-4839.1792
-77.987215
1722.4911
1813.0105
1642.83
1480.8205
1348.5258
1245.6585
1166.1238
1104.6037
1057.0178
1020.372
992.47309
971.68073
956.85181
947.60374
944.05431
36.691792
46.483462
66.360506
87.082684
110.29826
136.32645
165.77192
199.11079
236.6508
278.78643
324.39302
362.37339
368.03842
344.27874
310.50428
-139.54757
-1795.7329
-2628.6811
-3129.3852
-2808.3986
-2648.1164
-2755.6759
-3147.6083
-3286.3298
-3302.1778
0
0
0
0
0
0
0
0
6202.9841
3404.0778
2584.4879
2070.5602
1758.389
1547.7942
1398.8532
1289.834
1208.3363
1146.6946
1099.938
1064.7089
1038.6398
1020.1357
1008.6278
1004.2156
35.062026
42.117815
63.882667
86.778658
112.68116
141.91771
175.38743
214.03894
258.87238
311.51942
374.25478
443.01257
498.84461
555.38014
731.15501
639.993
-1965.1698
-2791.7154
-3640.8553
-3002.9806
-3068.71
-3034.2779
0
0
0
0
0
0
0
0
0
0
10136.717
6289.9836
4126.8559
3003.2384
2364.276
1972.1907
1712.1016
1530.6454
1399.3899
1302.1623
1229.1229
1173.9935
1132.6003
1102.0434
1080.3887
1066.9341
1061.7772
44.068673
54.972988
80.942429
106.90688
135.95649
168.63694
206.18585
250.01998
301.8607
364.53068
443.44402
542.19897
648.70724
745.89994
853.21148
652.64183
-3080.3687
-3649.4634
-3240.8152
0
0
0
0
0
0
0
0
0
0
0
1793.9256
3377.5639
5764.6374
5241.495
3965.7742
3103.9823
2510.7368
2111.2288
1834.0871
1636.3907
1491.8052
1384.089
1302.9143
1241.5273
1195.3764
1161.2757
1137.0938
1122.0632
1116.301
22.083319
41.692376
65.820297
90.662852
118.0426
148.70539
183.70255
224.17454
271.33579
327.14393
395.59747
474.89692
534.83599
525.05137
547.3462
813.38849
0
0
0
0
0
0
-1118.5133
-1090.4536
-998.60736
-905.08715
-777.71209
-482.99577
-82.623327
709.2415
2038.3501
3373.0611
4759.6431
4495.9601
3719.9057
3063.1688
2556.8003
2186.1477
1915.2409
1715.3671
1565.996
1453.1253
1367.2488
1301.8727
1252.4889
1215.8739
1189.8467
1173.6462
1167.4317
19.989955
49.95545
74.977577
100.64774
128.13852
158.26172
191.6654
228.79838
269.62844
313.43996
358.325
397.82097
407.71367
337.39315
148.47199
-290.83685
-1258.7507
-1207.5204
-1129.3912
-1084.3785
-1036.2161
-1007.6062
-996.61089
-790.46899
-825.97316
-570.80301
-350.17373
-192.44926
270.96784
916.44897
1971.8472
3059.7621
3964.8489
3858.5277
3409.9572
2938.6393
2533.065
2210.3391
1960.8367
1769.4197
1622.4262
1509.2027
1421.8689
1354.7194
1303.6255
1265.5399
1238.3659
1221.4137
1214.9047
20.491773
46.232891
71.864253
97.757368
125.12604
154.7046
187.06781
222.57992
261.23618
302.28667
342.96295
376.04658
388.06938
358.61018
221.61936
-195.76965
-769.54909
-901.32401
-944.8418
-949.85646
-872.74184
-828.11933
-804.91617
-678.82813
-608.26114
-405.152
-166.96974
89.78829
522.632
1107.8077
1907.0359
2731.4298
3343.1435
3363.8006
3111.6939
2782.5778
2468.3471
2198.4808
1978.0375
1801.948
1662.6542
1552.9842
1467.0025
1400.0838
1348.7001
1310.1389
1282.4934
1265.1977
1258.5489
15.120622
36.395575
59.041405
81.640005
104.75188
128.6082
153.2136
178.20782
202.70578
224.87192
240.70367
242.80649
221.69054
165.4175
29.752524
-260.90795
-586.75102
-714.28153
-767.82289
-778.73025
-738.52365
-689.60579
-628.96307
-525.0288
-411.51887
-226.19438
0.28809308
281.43279
679.84367
1198.5642
1833.541
2460.3086
2897.7458
2974.2492
2841.3329
2618.7631
2381.504
2162.6513
1973.9055
1816.9058
1688.8404
1585.6253
1503.2464
1438.2515
1387.8246
1349.6849
1322.1889
1304.9288
1298.2847
23.819641
46.468009
70.307998
93.91158
117.96853
142.58665
167.59361
192.37688
215.66632
235.01813
245.82491
240.89297
211.45754
143.68797
6.5683668
-218.24157
-442.33759
-562.93322
-619.50227
-629.55408
-601.62751
-554.72611
-484.261
-381.91523
-252.1802
-71.096449
150.70021
427.35226
787.90895
1234.2319
1745.4174
2230.8706
2565.4147
2665.8846
2606.2149
2460.8592
2285.7606
2112.3587
1954.7129
1818.2178
1703.3736
1608.5556
1531.4437
1469.7101
1421.2711
1384.3199
1357.5163
1340.6282
1334.1175
12.232462
30.253829
50.501604
70.668952
90.859054
110.95437
130.65468
149.30733
165.71393
177.72449
181.69927
172.535
143.59672
83.298947
-27.500461
-188.05326
-342.97232
-441.24412
-491.15273
-499.93148
-475.22459
-426.8328
-352.99289
-250.32726
-116.62807
58.544296
273.12345
536.13738
860.25296
1242.4857
1658.2477
2041.7305
2310.0982
2419.0009
2404.8991
2314.7669
2188.9655
2054.4161
1925.5687
1809.4213
1708.6049
1623.3021
1552.573
1495.0806
1449.4304
1414.288
1388.6283
1372.3964
1366.1285
21.518567
40.884234
61.29415
81.029498
100.37176
119.05843
136.58546
152.07923
164.13226
170.52122
168.02107
152.68866
119.66114
61.089504
-31.964801
-151.95934
-264.66455
-341.75858
-381.61305
-386.79349
-361.96802
-311.93737
-236.29264
-133.27744
-0.11264559
168.12946
372.07817
616.7079
906.26727
1234.3063
1577.2484
1887.2825
2110.112
2219.6668
2234.0495
2183.1646
2095.8323
1993.7223
1890.4734
1793.5315
1706.6926
1631.3654
1567.6598
1515.0578
1472.7726
1439.9095
1415.7479
1400.3997
1394.4631
12.12662
28.419727
46.632272
64.526
82.00652
98.727969
114.17368
127.51262
137.45143
142.0409
138.62173
124.02047
94.348555
44.398497
-29.204168
-118.04759
-200.37998
-258.45775
-287.56183
-287.58085
-260.72866
-209.23666
-132.97311
-30.781601
99.406768
260.01033
451.80121
676.75548
934.66362
1217.4115
1504.3781
1760.8215
1950.7123
2057.2876
2089.481
2066.4841
2008.828
1933.454
1852.3934
1772.9998
1699.522
1634.1391
1577.7115
1530.3619
1491.8117
1461.5552
1439.1505
1424.8567
1419.3184
17.355403
33.668606
50.915516
67.350078
83.022331
97.558182
110.41618
120.79487
127.54026
129.05357
123.329
108.09589
80.689936
38.183241
-19.809205
-85.922054
-145.92689
-187.92049
-206.79046
-201.05325
-171.28264
-118.32206
-42.019896
58.419329
184.27598
336.65363
515.74768
721.49441
951.31137
1196.6564
1440.2862
1656.8773
1821.9874
1924.0479
1967.3026
1964.1566
1929.2449
1875.6564
1813.5263
1749.7666
1688.6849
1632.8675
1583.6737
1541.7012
1507.0772
1479.625
1459.1467
1446.0239
1440.9303
12.269478
26.919644
42.950349
58.37438
73.03624
86.517021
98.273335
107.54863
113.3126
114.23075
108.74086
95.179926
71.807616
37.272653
-7.3392717
-55.951139
-98.788028
-127.38429
-137.00686
-125.58182
-92.699247
-38.414878
37.511018
135.59758
256.48502
400.451
567.02248
754.85023
960.19041
1174.8202
1384.6377
1571.0269
1716.9567
1814.0259
1864.0353
1875.0507
1857.5286
1821.5296
1775.3872
1725.3132
1675.4852
1628.628
1586.4052
1549.7472
1519.0914
1494.5288
1476.067
1464.1827
1459.5616
13.964703
27.927629
42.765394
56.790115
69.930897
81.800352
91.907112
99.597466
104.0266
104.1632
98.869994
87.019008
67.60525
40.273125
6.6868819
-28.277754
-57.644198
-75.146069
-76.647407
-59.917887
-24.030584
31.387327
106.63878
202.02625
317.72222
453.44174
608.15708
779.76187
964.05708
1153.5188
1336.7296
1499.8289
1630.6113
1722.7475
1776.7525
1797.8903
1793.6583
1771.77
1739.0034
1700.7614
1660.9696
1622.3317
1586.6656
1555.1183
1528.3534
1506.6721
1490.2488
1479.6281
1475.4909
11.693
24.66782
38.634155
51.85539
64.181495
75.226445
84.535804
91.540559
95.550591
95.781355
91.434315
81.808123
66.456612
45.647201
21.220226
-2.8989116
-21.533576
-29.87171
-24.394462
-2.9270484
35.683439
92.018154
166.39526
258.94178
369.49659
497.38641
641.19186
798.40926
964.78828
1133.6425
1295.7462
1440.6172
1559.2637
1646.7824
1703.0136
1731.3942
1737.3217
1726.7091
1705.0425
1676.9325
1645.9621
1614.7351
1585.1135
1558.3712
1535.3281
1516.4446
1502.0257
1492.6584
1489.0032
11.753162
23.963496
36.964588
49.184566
60.512001
70.599687
79.05319
85.401456
89.105667
89.595954
86.347081
78.983798
67.448005
52.356038
35.51485
20.110842
10.120571
9.3363102
20.728922
46.312656
87.294138
144.32907
217.71204
307.42758
413.07857
533.72907
667.71559
812.37331
963.62019
1115.6086
1260.8564
1391.2963
1500.1275
1583.4627
1640.7959
1674.3609
1688.0603
1686.4346
1673.9149
1654.4008
1631.0941
1606.4526
1582.3082
1559.9967
1540.4387
1524.2114
1511.7189
1503.5673
1500.3816
10.714234
22.225779
34.52112
46.068641
56.743806
66.228213
74.182504
80.225806
83.953401
84.976956
82.993581
77.881677
69.852093
59.70941
49.148594
40.797177
37.806419
43.229116
59.575244
88.658126
131.64248
189.17916
261.51397
348.51575
449.62233
563.7282
689.03997
822.87897
961.43673
1099.6354
1231.3596
1350.2825
1451.1299
1530.7558
1588.4865
1625.7556
1645.3978
1650.912
1645.8789
1633.5896
1616.8653
1597.9873
1578.7241
1560.4237
1544.0651
1530.3081
1519.6306
1512.6372
1509.9014
10.322064
21.213688
32.817008
43.697835
53.751466
62.69591
70.246732
76.10485
79.979555
81.628912
80.921989
77.92374
73.020519
67.101888
61.725908
59.098067
61.781058
72.281663
92.730523
124.73507
169.37083
227.24051
298.52839
383.00982
480.00903
588.31876
706.09633
830.73461
958.73471
1085.6898
1206.5456
1316.2414
1410.5865
1486.9845
1544.6902
1584.6011
1608.7861
1619.9564
1621.0151
1614.7416
1603.6121
1589.716
1574.739
1560.0103
1546.5363
1535.0342
1526.0376
1520.1339
1517.8259
9.7521366
20.129401
31.196031
41.577147
51.176379
59.745056
67.049726
72.864445
76.995821
79.321346
79.844351
78.766657
76.587366
74.224668
73.102954
75.107422
82.372899
96.997171
120.80319
155.20627
201.17495
259.24384
329.53246
411.74137
505.11836
608.40194
719.75214
836.67626
955.98005
1073.821
1185.9631
1288.2726
1377.3386
1450.9756
1508.4183
1550.2022
1577.8455
1593.466
1599.4332
1598.1041
1591.6538
1581.9873
1570.6991
1559.0824
1548.1501
1538.6592
1531.1906
1526.3045
1524.4046
9.3398195
19.27096
29.869734
39.823443
49.047926
57.325407
64.467161
70.308911
74.736361
77.720714
79.366671
79.973048
80.107796
80.68706
83.016261
88.73726
99.669706
117.60307
144.11419
180.44934
227.46976
285.63696
355.00881
435.22695
525.48922
624.51145
730.48624
841.04999
953.28528
1063.811
1169.0167
1265.4498
1350.2655
1421.5863
1478.6526
1521.7549
1552.0159
1571.1096
1580.9905
1583.6741
1581.0827
1574.9536
1566.7898
1557.8424
1549.1151
1541.3899
1535.2957
1531.369
1529.8732
8.962646
18.546056
28.786102
38.418295
47.367365
55.443296
62.496344
68.413877
73.145333
76.734723
79.362341
81.394595
83.439796
86.397844
91.474509
100.12827
113.94637
134.48682
163.13332
200.99043
248.82213
307.02107
375.59071
454.12732
541.79745
637.31347
738.91405
844.36082
950.9733
1055.7367
1155.5127
1247.3466
1328.8043
1398.2376
1454.9036
1498.9269
1531.1471
1552.9095
1565.8514
1571.7185
1572.2261
1568.9683
1563.3629
1556.6192
1549.7232
1543.471
1538.5574
1535.5336
1534.4644
8.5995588
17.917797
27.882983
37.27335
46.019028
53.954238
60.961478
66.969187
71.97588
76.080012
79.516461
82.697539
86.25419
91.065907
98.259254
109.15711
125.17764
147.70806
177.98496
216.99984
265.43513
323.62432
391.52584
468.70208
554.30074
647.0407
745.20839
846.67499
948.95143
1049.3033
1144.94
1233.2653
1312.1389
1380.0804
1436.3661
1481.01
1514.6529
1538.4023
1553.6602
1561.9667
1564.8753
1563.8653
1560.2843
1555.308
1549.9058
1544.8767
1540.9967
1538.9093
1538.4042
8.2319084
17.428937
27.222086
36.456176
45.067614
52.914235
59.905158
66.000467
71.234967
75.746198
79.806968
83.859505
88.546292
94.727068
103.46837
115.99704
133.61392
157.58596
189.04359
228.89415
277.75728
335.92033
403.30742
479.45705
563.50636
654.18433
749.81919
848.36913
947.48911
1044.6477
1137.2989
1223.0946
1300.0967
1366.9423
1422.9254
1467.9878
1502.6357
1527.8117
1544.751
1554.8451
1559.5289
1560.1949
1558.1367
1554.5044
1550.2516
1546.1487
1543.0204
1541.7612
1542.0318
7.7330453
17.000738
26.716039
35.867941
44.400812
52.196658
59.185123
65.348186
70.744482
75.536407
80.020019
84.654727
90.087727
97.163964
106.91131
120.4983
139.15222
164.06093
196.28515
236.67636
285.81183
343.94748
410.98444
486.44595
569.46361
658.77525
752.73922
849.37333
946.4281
1041.5035
1132.2095
1216.3537
1292.1253
1358.2363
1413.9935
1459.2955
1494.565
1520.6404
1538.6501
1549.889
1555.7141
1557.4582
1556.3745
1553.5991
1550.0795
1546.5314
1543.7747
1543.3052
1545.4838
6.5095761
16.668839
26.439324
35.585404
44.088813
51.86361
58.853582
65.052768
70.532015
75.466222
80.163099
85.090889
90.899994
98.430937
108.69687
122.8276
142.00477
167.38253
199.98992
240.6511
289.9221
348.04288
414.90285
490.0175
572.5158
661.14037
754.2653
849.93896
945.96028
1039.995
1129.7303
1213.0509
1288.2087
1353.953
1409.5979
1455.0216
1490.6065
1517.1401
1535.6988
1547.5305
1553.9486
1556.2555
1555.6925
1553.3993
1550.3331
1547.1692
1544.6932
1545.1774
1551.0051
-2196.2796
-2460.7914
-2681.647
-2865.2398
-3006.3107
-3084.1345
-3080.3687
-2993.5639
-2816.7697
-2621.3772
-3240.8953
-3240.8152
-3236.8679
-3230.1276
-3220.076
-3211.0401
-3201.782
-3211.0407
-3211.1308
-3180.289
-3208.8621
-3207.695
-3194.8458
-3179.3247
-3163.4222
-3154.6918
-3137.8259
-3146.0162
-3135.4645
-3082.5584
-3167.8628
-3165.5792
-3154.5302
-3142.688
-3130.8076
-3130.2557
-3117.3591
-3117.8339
-3108.3289
-3073.9817
-3106.9712
-3104.8976
-3098.6421
-3090.391
-3079.3265
-3075.4767
-3075.1974
-3075.9818
-3076.8175
-3082.2507
-3058.3488
-3057.4557
-3052.6839
-3043.7869
-3030.9065
-3002.9806
-3022.9775
-3032.5546
-3037.1864
-3048.905
-3044.8133
-3046.2501
-3049.6208
-3052.9789
-3064.6033
-3043.4439
-3042.1292
-3035.8806
-3018.3348
-2993.0835
-3057.2565
-3058.2344
-3062.5607
-3068.71
-3089.5381
-3095.9965
-3078.5213
-3054.161
-3024.8637
-2989.1141
-3854.9933
-3866.5524
-3837.3381
-3793.0269
-3755.5718
-3723.7053
-3702.4263
-3688.9631
-3680.3066
-3682.2801
-3008.1258
-3007.2233
-3000.3774
-2985.4062
-2946.1227
-2971.4122
-2983.0258
-2984.6247
-2973.4927
-2945.617
-3031.0938
-3034.2779
-3040.8775
-3061.5213
-3039.1905
-3029.7661
-3025.073
-3016.8286
-3001.9614
-2985.9328
-3067.5864
-3069.6941
-3073.8591
-3097.4992
-3111.0674
-3087.9194
-3061.9015
-3041.9495
-3023.0749
-3006.3484
-3016.5211
-3012.7727
-2993.2962
-2967.8736
-2990.1107
-3007.5823
-3019.4399
-3027.5405
-3030.2864
-3037.4943
-3046.4137
-3049.0613
-3047.2108
-3009.3911
-3020.2384
-3034.661
-3046.2628
-3054.3541
-3058.0867
-3068.0146
-3172.7762
-3180.7876
-3204.9744
-3201.5193
-3174.2367
-3147.6083
-3127.6225
-3112.5328
-3097.1659
-3079.7337
-3165.5291
-3161.2514
-3155.5149
-3175.9049
-3174.3055
-3166.4261
-3158.6087
-3151.8969
-3144.8868
-3145.9357
-3182.3717
-3181.3443
-3157.3777
-3168.4255
-3179.7445
-3187.2553
-3190.8927
-3191.8425
-3190.2771
-3194.0945
-3292.4357
-3304.5358
-3299.5548
-3286.3298
-3272.2462
-3260.8043
-3252.0738
-3245.8779
-3238.4481
-3229.1452
-3301.6472
-3306.6669
-3313.8852
-3304.7357
-3293.8931
-3287.3714
-3286.2525
-3289.9281
-3294.3407
-3306.1308
-3197.524
-3183.5421
-3201.0278
-3226.9492
-3256.3533
-3284.9995
-3311.9415
-3336.4939
-3356.6196
-3381.4618
-3325.9843
-3302.1778
-3312.8609
-3334.7736
-3363.2147
-3390.0206
-3413.7585
-3433.1666
-3446.4
-3462.5442
-3702.0474
-3692.5394
-3662.708
-3629.735
-3605.8991
-3587.718
-3576.7792
-3570.5628
-3565.1752
-3562.7829
-3040.305
-3038.7604
-3032.6485
-3020.2973
-3013.654
-3021.64
-3021.3974
-3016.398
-3007.4646
-3006.2638
-3588.0458
-3597.112
-3610.8564
-3659.8607
-3718.2829
-3770.837
-3790.9853
-3770.2163
-3676.5075
-3494.8874
-3322.0354
-3322.5095
-3326.3031
-3333.8021
-3337.792
-3339.6566
-3339.4745
-3336.9266
-3330.1986
-3277.4813
-3176.6472
-3232.7659
-3300.6704
-3410.6134
-3524.9807
-3611.5906
-3653.4938
-3608.2538
-3450.9541
-3210.5634
-3543.8458
-3554.7814
-3575.6279
-3613.8772
-3649.4634
-3680.1186
-3689.6861
-3687.3768
-3643.2576
-3520.0667
-3429.4433
-3434.8624
-3449.8181
-3475.8876
-3499.0629
-3518.9496
-3528.5259
-3518.8172
-3501.6983
-3440.471
11325.296
10722.619
10136.717
9497.0868
8839.9374
8186.5334
7552.0571
6943.5404
6353.9707
5776.7077
8315.8336
8237.9873
8113.8838
7851.5358
7513.0034
7121.9804
6699.7622
6264.2267
5825.6012
5368.7855
-3721.1466
-3739.5631
-3755.5995
-3760.2375
-3767.7904
-3770.2915
-3774.5859
-3777.788
-3779.0723
-3782.5889
-3712.1907
-3716.1767
-3751.133
-3782.0087
-3820.6276
-3847.5951
-3871.4185
-3887.498
-3896.2914
-3900.6558
-3945.0123
-3938.3536
-3955.446
-3964.0843
-3993.1806
-4012.2717
-4032.6554
-4046.1545
-4052.0397
-4048.0128
-4221.0603
-4210.8631
-4225.3807
-4216.7018
-4233.391
-4236.0456
-4243.2375
-4244.9487
-4241.9817
-4238.2088
-4543.5555
-4525.6762
-4537.5659
-4511.1114
-4515.3415
-4498.1592
-4486.2961
-4466.8973
-4439.8168
-4408.0279
-4900.1471
-4873.2064
-4882.9133
-4837.0161
-4828.9151
-4790.9897
-4758.6512
-4715.7733
-4661.6208
-4601.9165
-5281.4552
-5243.3121
-5252.0107
-5185.6761
-5166.3702
-5108.7615
-5057.7651
-4994.7542
-4918.9403
-4834.0697
-5683.1529
-5631.4078
-5640.2557
-5551.6841
-5521.0419
-5443.2235
-5372.8748
-5290.8165
-5201.2101
-5119.0527
-6106.096
-6037.3271
-6047.1716
-5933.5993
-5890.2478
-5790.1884
-5696.0685
-5586.3385
-5461.3068
-5325.9876
-6550.3668
-6460.6536
-6473.0573
-6331.8093
-6274.631
-6152.0454
-6034.0759
-5900.2029
-5750.8236
-5589.2992
-7022.0602
-6905.3265
-6921.0495
-6747.9386
-6673.8336
-6526.4952
-6380.7396
-6218.6979
-6040.3822
-5854.7187
-7520.066
-7370.2451
-7392.3107
-7184.2127
-7090.0611
-6916.2073
-6738.5126
-6542.5535
-6324.0376
-6086.8666
-8062.6889
-7868.4452
-7897.3442