/*--------------------------------*- C++ -*----------------------------------*\
| =========                 |                                                 |
| \\      /  F ield         | foam-extend: Open Source CFD                    |
|  \\    /   O peration     | Version:     4.1                                |
|   \\  /    A nd           | Web:         http://www.foam-extend.org         |
|    \\/     M anipulation  |                                                 |
\*---------------------------------------------------------------------------*/
FoamFile
{
    version     2.0;
    format      ascii;
    class       surfaceScalarField;
    location    "0.35";
    object      phi;
}
// * * * * * * * * * * * * * * * * * * * * * * * * * * * * * * * * * * * * * //

dimensions      [0 3 -1 0 0 0 0];

internalField   nonuniform List<scalar> 
8438
(
-0.59730182
0.0016760821
-0.59904388
0.0017420627
-0.60082154
0.0017776631
-0.6026438
0.0018222616
-0.60452041
0.001876608
-0.60646179
0.0019413776
-0.60847733
0.0020155401
-0.61057464
0.0020973075
-0.61275882
0.0021841861
-0.61503181
0.0022729874
-0.61739163
0.0023598226
-0.61983177
0.0024401345
-0.62234057
0.0025087973
-0.62490087
0.0025603057
-0.62748992
0.0025890518
-0.63007961
0.0025896903
-0.63263706
0.0025574449
-0.63512548
0.0024884164
-0.6375052
0.0023797209
-0.63973468
0.002229488
-0.64177147
0.0020367884
-0.64357301
0.0018015397
-0.6450975
0.0015244842
-0.6463048
0.0012073011
-0.64715771
0.00085291157
-0.6476237
0.00046598894
-0.64767703
5.3337539e-05
-0.64730043
-0.00037660758
-0.64648899
-0.00081144018
-0.64525431
-0.0012346764
-0.64362543
-0.0016288838
-0.64164854
-0.0019768826
-0.6393849
-0.0022636473
-0.63690669
-0.0024782087
-0.63429182
-0.0026148663
-0.63161839
-0.0026734298
-0.62895983
-0.0026585603
-0.62638131
-0.0025785221
-0.6239376
-0.0024437108
-0.62167233
-0.0022652736
-0.61961832
-0.0020540081
-0.61779871
-0.0018196079
-0.61622848
-0.0015702278
-0.61491609
-0.0013123935
-0.61386462
-0.0010514729
-0.61307227
-0.00079234197
-0.61253538
-0.00053689406
-0.61225904
-0.00027634474
-1.408568e-05
-0.611095
0.0031443281
-0.61255728
0.0032043506
-0.61404741
0.0032677924
-0.61557864
0.0033534891
-0.61716341
0.0034613723
-0.6188129
0.0035908717
-0.62053696
0.003739601
-0.62234354
0.0039038905
-0.6242381
0.0040787425
-0.62622289
0.0042577807
-0.62829628
0.0044332132
-0.63045203
0.004595882
-0.63267869
0.0047354547
-0.63495918
0.004840801
-0.63727069
0.0049005569
-0.63958488
0.0049038776
-0.64186851
0.0048410826
-0.64408439
0.0047042928
-0.64619238
0.0044877131
-0.64815051
0.0041876151
-0.64991588
0.0038021618
-0.65144553
0.0033311867
-0.65269717
0.0027761232
-0.65363009
0.0021402234
-0.65420634
0.0014291595
-0.65439237
0.00065201853
-0.65416152
-0.00017751026
-0.65349803
-0.0010400951
-0.65239889
-0.0019105812
-0.65087517
-0.0027584005
-0.64895506
-0.0035489901
-0.64668446
-0.0042474793
-0.64412494
-0.0048231688
-0.64134952
-0.0052536303
-0.63843712
-0.0055272679
-0.63546675
-0.0056437999
-0.63251246
-0.0056128468
-0.62963968
-0.0054513099
-0.62690307
-0.0051803224
-0.62434592
-0.0048224222
-0.6220006
-0.004399323
-0.6198898
-0.0039304071
-0.61802814
-0.0034318948
-0.61642383
-0.0029167052
-0.6150802
-0.0023951011
-0.61399751
-0.0018750306
-0.61317527
-0.0013591348
-0.61260516
-0.00084644837
-0.00037444996
-0.61214186
0.0045625805
-0.61355908
0.0046215689
-0.6150018
0.0047105141
-0.61648497
0.0048366548
-0.61802186
0.0049982647
-0.61962427
0.0051932788
-0.62130251
0.0054178444
-0.62306505
0.0056664254
-0.62491788
0.0059315814
-0.62686392
0.0062038112
-0.62890215
0.0064714522
-0.631027
0.0067207237
-0.63322753
0.0069359919
-0.63548706
0.0071003292
-0.63778289
0.0071963834
-0.64008657
0.0072075615
-0.64236456
0.0071190732
-0.64457921
0.0069189418
-0.64668994
0.0065984396
-0.64865434
0.0061520205
-0.65042916
0.0055769781
-0.651971
0.0048730269
-0.653237
0.004042129
-0.65418557
0.0030887904
-0.65477739
0.0020209758
-0.65497705
0.00085167891
-0.65475546
-0.00039909843
-0.65409265
-0.0017029046
-0.65298129
-0.003021945
-0.65143044
-0.0043092428
-0.64946817
-0.0055112624
-0.64714208
-0.0065735717
-0.64451716
-0.0074480845
-0.641671
-0.0080997938
-0.63868734
-0.0085109288
-0.63564951
-0.0086816345
-0.6326348
-0.0086275512
-0.62971061
-0.0083754973
-0.62693237
-0.0079585669
-0.62434311
-0.007411679
-0.62197429
-0.006768146
-0.61984728
-0.0060574197
-0.61797524
-0.0053039316
-0.61636501
-0.0045269417
-0.61501896
-0.0037411457
-0.61393727
-0.0029567258
-0.6131182
-0.0021782006
-0.61255321
-0.0014114367
-0.00068271217
-0.61249769
0.0059515244
-0.61389461
0.0060184883
-0.61531768
0.0061335814
-0.61678183
0.0063008052
-0.61830081
0.0065172472
-0.61988711
0.0067795824
-0.62155183
0.0070825602
-0.62330426
0.0074188526
-0.62515132
0.0077786478
-0.62709687
0.0081493591
-0.62914085
0.0085154295
-0.63127846
0.0088583361
-0.63349937
0.0091569024
-0.63578708
0.0093880336
-0.63811861
0.0095279217
-0.64046479
0.0095537396
-0.64279091
0.0094451886
-0.64505793
0.009185969
-0.64722388
0.0087643885
-0.64924505
0.0081731873
-0.65107699
0.0074089207
-0.65267519
0.0064712231
-0.65399549
0.0053624337
-0.65499462
0.0040879205
-0.65563097
0.0026573213
-0.65586607
0.0010867789
-0.65566702
-0.00059814729
-0.6550098
-0.0023601203
-0.65388338
-0.0041483634
-0.65229429
-0.0058983407
-0.65027025
-0.0075352983
-0.6478615
-0.0089823178
-0.64513845
-0.010171138
-0.6421859
-0.01105235
-0.63909524
-0.011601586
-0.63595657
-0.011820299
-0.63285223
-0.011731891
-0.62985257
-0.011375159
-0.62701406
-0.010797084
-0.62437924
-0.010046492
-0.62197807
-0.0091693243
-0.61982983
-0.0082056593
-0.61794544
-0.0071883204
-0.61632961
-0.0061427673
-0.61498304
-0.0050877211
-0.61390428
-0.0040354848
-0.61308974
-0.0029927346
-0.612534
-0.0019671793
-0.00097176288
-0.6129204
0.0073134863
-0.61429417
0.0073922582
-0.61569506
0.0075344682
-0.61713819
0.0077439322
-0.61863779
0.0080168513
-0.62020714
0.00834893
-0.62185827
0.008733687
-0.62360156
0.009162148
-0.62544516
0.0096222512
-0.6273942
0.010098395
-0.62944988
0.010571108
-0.63160851
0.011016972
-0.63386055
0.011408942
-0.63618976
0.011717242
-0.63857278
0.011910943
-0.64097933
0.011960282
-0.64337302
0.011838882
-0.64571287
0.01152582
-0.64795493
0.011006445
-0.65005374
0.010272001
-0.65196339
0.0093185719
-0.653638
0.0081458361
-0.65503192
0.0067563524
-0.65609983
0.0051558299
-0.65679722
0.0033547049
-0.65708159
0.0013711503
-0.65691491
-0.00076482325
-0.65626742
-0.003007614
-0.65512249
-0.0052932954
-0.65348261
-0.0075382197
-0.65137471
-0.0096431974
-0.64885254
-0.011504482
-0.64599425
-0.013029435
-0.64289506
-0.014151535
-0.63965739
-0.01483926
-0.6363809
-0.015096788
-0.63315486
-0.014957934
-0.63005352
-0.014476496
-0.62713451
-0.013716099
-0.62443941
-0.012741588
-0.62199584
-0.011612895
-0.61982008
-0.010381417
-0.61791989
-0.0090885179
-0.61629706
-0.0077655915
-0.61494986
-0.0064349241
-0.61387468
-0.0051106657
-0.61306658
-0.0038008287
-0.61252163
-0.0025121366
-0.0012485889
-0.61345534
0.0086433072
-0.61479955
0.0087364673
-0.61617225
0.0089071611
-0.6175887
0.0091603916
-0.61906374
0.0094918836
-0.6206115
0.0098966937
-0.62224517
0.010367353
-0.62397648
0.010893463
-0.62581513
0.011460903
-0.62776792
0.012051178
-0.62983772
0.012640912
-0.63202238
0.013201625
-0.63431344
0.013700004
-0.63669511
0.014098916
-0.63914357
0.014359402
-0.64162707
0.014443782
-0.64410699
0.014318797
-0.64653966
0.013958499
-0.64887856
0.013345336
-0.651076
0.01246945
-0.65308434
0.011326904
-0.65485618
0.0099176824
-0.65634424
0.0082444126
-0.65750088
0.0063124704
-0.65827806
0.0041318887
-0.6586282
0.0017212829
-0.65850651
-0.00088651145
-0.6578754
-0.0036387193
-0.65671032
-0.006458379
-0.65500766
-0.009240881
-0.6527926
-0.011858255
-0.65012337
-0.014173714
-0.64708871
-0.016064098
-0.64379839
-0.017441856
-0.64036998
-0.018267664
-0.63691612
-0.018550651
-0.63353511
-0.018338939
-0.63030598
-0.017705626
-0.62728735
-0.016734734
-0.62451904
-0.015509898
-0.62202519
-0.014106743
-0.61981784
-0.012588766
-0.6179004
-0.011005964
-0.61627069
-0.0093952952
-0.61492355
-0.0077820657
-0.61385252
-0.0061816965
-0.61305099
-0.0046023571
-0.61251465
-0.0030484781
-0.0015182886
-0.61410564
0.0099372506
-0.61541437
0.010045197
-0.61675249
0.010245287
-0.61813599
0.010543894
-0.61958046
0.010936348
-0.6211011
0.011417332
-0.62271242
0.011978679
-0.62442782
0.012608864
-0.6262589
0.013291976
-0.62821455
0.014006833
-0.63029985
0.014726211
-0.63251463
0.015416409
-0.63485201
0.01603738
-0.63729688
0.016543786
-0.6398249
0.016887424
-0.64240246
0.017021339
-0.64498793
0.016904266
-0.64753413
0.016504697
-0.64999114
0.015802347
-0.65230859
0.014786905
-0.65443687
0.013455186
-0.65632715
0.011807959
-0.65793057
0.0098478314
-0.65919712
0.0075790196
-0.66007478
0.0050095582
-0.66050981
0.0021563059
-0.66044885
-0.00094747108
-0.65984389
-0.0042436728
-0.6586593
-0.0076429783
-0.65688235
-0.011017828
-0.65453482
-0.014205781
-0.65168031
-0.017028227
-0.64842185
-0.019322555
-0.64488912
-0.020974589
-0.64122025
-0.021936533
-0.63754497
-0.022225933
-0.63397301
-0.021910902
-0.63058885
-0.021089786
-0.6274516
-0.019871985
-0.6245981
-0.018363389
-0.62204755
-0.016657298
-0.61980624
-0.01483008
-0.61787192
-0.012940285
-0.61623734
-0.011029868
-0.61489301
-0.0091263986
-0.61382898
-0.0072457244
-0.61303628
-0.0053950554
-0.61250883
-0.0035759353
-0.0017821658
-0.61486573
0.011186919
-0.61613176
0.011311228
-0.61742856
0.01154209
-0.61877253
0.011887864
-0.62018009
0.012343904
-0.62166762
0.012904864
-0.62325119
0.01356225
-0.62494612
0.014303794
-0.62676632
0.015112176
-0.62872332
0.015963826
-0.63082492
0.016827817
-0.63307363
0.017665112
-0.63546466
0.018428416
-0.63798402
0.019063143
-0.64060685
0.019510255
-0.64329716
0.019711646
-0.64600935
0.019616462
-0.64869157
0.019186917
-0.65128955
0.018400325
-0.65374965
0.017247005
-0.65602022
0.015725751
-0.65805121
0.013838949
-0.65979261
0.011589231
-0.66119226
0.0089786736
-0.66219395
0.0060112517
-0.66273674
0.0026990927
-0.66275667
-0.00092754051
-0.66219217
-0.0048081699
-0.66099235
-0.0088427979
-0.65913103
-0.012879147
-0.65662373
-0.016713088
-0.65354013
-0.020111822
-0.65000246
-0.022860221
-0.64616759
-0.024809469
-0.64220134
-0.025902784
-0.63825569
-0.026171583
-0.63445437
-0.025712215
-0.63088769
-0.024656467
-0.6276141
-0.023145576
-0.62466559
-0.021311905
-0.6220543
-0.01926858
-0.61977894
-0.017105447
-0.61783
-0.014889219
-0.61619394
-0.012665928
-0.61485603
-0.010464311
-0.61380227
-0.0082994853
-0.61302076
-0.0061765617
-0.61250303
-0.004093662
-0.0020404004
-0.6157367
0.012388905
-0.61695407
0.012528592
-0.61820269
0.012790708
-0.61950007
0.013185245
-0.62086366
0.013707498
-0.62231119
0.014352394
-0.62386047
0.015111529
-0.62552906
0.015972382
-0.62733361
0.016916733
-0.62928885
0.017919067
-0.63140607
0.018945032
-0.63369118
0.019950218
-0.63614233
0.020879573
-0.63874722
0.021668031
-0.64148061
0.022243642
-0.64430352
0.022534553
-0.64716511
0.022478061
-0.65000731
0.022029111
-0.6527702
0.021163219
-0.65539625
0.019873055
-0.65783183
0.01816133
-0.66002627
0.016033391
-0.6619292
0.013492159
-0.66348699
0.010536466
-0.66463935
0.0071636077
-0.66531728
0.0033770273
-0.66544398
-0.00080083771
-0.66494042
-0.0053117311
-0.66373495
-0.010048271
-0.66178155
-0.014832541
-0.65908473
-0.019409915
-0.65572058
-0.02347597
-0.65183711
-0.026743692
-0.64762859
-0.029017993
-0.64329823
-0.030233142
-0.63902678
-0.03044303
-0.63495472
-0.029784273
-0.63117791
-0.028433277
-0.62775212
-0.026571367
-0.62470172
-0.024362302
-0.62202913
-0.02194118
-0.61972303
-0.019411545
-0.61776487
-0.016847373
-0.61613343
-0.014297369
-0.61480783
-0.011789919
-0.61376937
-0.0093379411
-0.61300274
-0.0069431893
-0.61249678
-0.0045996214
-0.002292234
-0.61671193
0.013531357
-0.61787194
0.013688607
-0.61906467
0.013983433
-0.62030785
0.014428427
-0.62161986
0.015019506
-0.6230198
0.015752336
-0.62452741
0.016619137
-0.62616279
0.017607762
-0.62794581
0.018699759
-0.62989505
0.019868309
-0.63202612
0.021076092
-0.63434935
0.022273454
-0.63686691
0.023397132
-0.63956907
0.024370187
-0.6424305
0.02510508
-0.64540854
0.025512584
-0.64844534
0.025514863
-0.65147439
0.025058165
-0.6544284
0.024117226
-0.65724513
0.022689788
-0.65986927
0.020785467
-0.66225054
0.018414668
-0.6643396
0.015581218
-0.66608266
0.012279521
-0.66741598
0.0084969357
-0.66826199
0.0042230318
-0.6685287
-0.0005341264
-0.66811489
-0.005725539
-0.66692101
-0.01124215
-0.66487208
-0.016881478
-0.66195364
-0.022328353
-0.65824748
-0.027182127
-0.65393655
-0.031054624
-0.64926725
-0.033687293
-0.64449353
-0.035006858
-0.63983316
-0.035103403
-0.63544601
-0.034171424
-0.63143216
-0.032447132
-0.62784126
-0.030162262
-0.62468613
-0.027517431
-0.62195581
-0.024671505
-0.61962614
-0.021741214
-0.6176674
-0.018806113
-0.61604927
-0.015915496
-0.61474384
-0.01309535
-0.6137272
-0.010354581
-0.61298025
-0.00769014
-0.61248902
-0.0050908494
-0.0025363044
-0.61779061
0.014613526
-0.61888778
0.014785777
-0.6200174
0.015113045
-0.62119862
0.015609649
-0.62245093
0.016271815
-0.6237949
0.017096311
-0.62525234
0.018076573
-0.62684616
0.019201587
-0.62859995
0.020453548
-0.63053686
0.021805221
-0.63267782
0.023217048
-0.63503886
0.024634498
-0.63762756
0.025985832
-0.64043814
0.027180765
-0.64344585
0.028112786
-0.64660348
0.028670214
-0.64984382
0.028755203
-0.65308884
0.028303186
-0.65626139
0.027289781
-0.65929366
0.025722055
-0.66212928
0.023621089
-0.66472007
0.021005455
-0.66701984
0.017880984
-0.66897677
0.014236458
-0.67052517
0.010045335
-0.67157866
0.0052765237
-0.67202811
-8.4681132e-05
-0.67174423
-0.0060094152
-0.67059042
-0.012395964
-0.6684497
-0.019022194
-0.66527568
-0.025502378
-0.66115281
-0.031304999
-0.65631194
-0.035895491
-0.65107349
-0.038925743
-0.6457609
-0.040319445
-0.64063934
-0.040224961
-0.63589017
-0.038920602
-0.63161445
-0.03672285
-0.6278503
-0.033926408
-0.62459337
-0.030774363
-0.62181464
-0.027450232
-0.61947366
-0.024082201
-0.61752718
-0.020752587
-0.61593438
-0.017508294
-0.61465951
-0.014370229
-0.61367301
-0.011341078
-0.61295184
-0.0084113135
-0.61247923
-0.0055634544
-0.0027707346
-0.61896932
0.01561857
-0.61999286
0.015809312
-0.62105035
0.016170539
-0.62216061
0.016719911
-0.62334385
0.01745505
-0.62462201
0.01837447
-0.62601902
0.019473588
-0.6275609
0.020743461
-0.62927541
0.022168061
-0.63119115
0.023720958
-0.63333556
0.02536146
-0.63573196
0.027030896
-0.63839526
0.028649142
-0.6413257
0.030111203
-0.64450036
0.03128744
-0.64786667
0.032036527
-0.65134468
0.032233215
-0.65484028
0.031798783
-0.65826284
0.030712346
-0.66153771
0.02899692
-0.66460854
0.026691925
-0.6674317
0.023828611
-0.66996722
0.020416504
-0.67216851
0.016437755
-0.67397057
0.011847386
-0.67527884
0.0065848025
-0.67596377
0.0006002425
-0.67586326
-0.006109921
-0.67479382
-0.013465402
-0.67257698
-0.021239034
-0.6691129
-0.02896646
-0.66448093
-0.035936969
-0.65897843
-0.041397992
-0.65303335
-0.044870821
-0.64706531
-0.046287484
-0.64139979
-0.045890487
-0.63624004
-0.04408035
-0.63168184
-0.041281048
-0.62774334
-0.037864915
-0.62439526
-0.034122436
-0.62158463
-0.03026087
-0.61925061
-0.026416221
-0.61733402
-0.022669177
-0.61578216
-0.019060149
-0.61455083
-0.015601558
-0.61360466
-0.012287248
-0.61291665
-0.009099323
-0.61246742
-0.0060126882
-0.0029932046
-0.62023755
0.016550189
-0.62118304
0.016754806
-0.62216113
0.017148623
-0.62319219
0.017750969
-0.62429734
0.018560209
-0.6254999
0.019577022
-0.62682591
0.020799598
-0.62830463
0.02222218
-0.62996849
0.023831924
-0.63185236
0.025604834
-0.63399159
0.027500686
-0.63641863
0.029457932
-0.63915821
0.031388725
-0.64221948
0.033172476
-0.64558359
0.034651542
-0.64919186
0.035644804
-0.65294682
0.035988172
-0.65673144
0.035583405
-0.66043636
0.034417263
-0.6639786
0.032539161
-0.667304
0.030017329
-0.67037742
0.026902028
-0.67316968
0.023208769
-0.67564429
0.018912357
-0.67774128
0.013944381
-0.67936013
0.0082036505
-0.68034942
0.0015895347
-0.68050741
-0.0059519346
-0.67958997
-0.014382836
-0.67733236
-0.023496651
-0.67354669
-0.032752123
-0.66828967
-0.041193996
-0.66195197
-0.04773569
-0.65512244
-0.051700351
-0.64835519
-0.053054736
-0.64205147
-0.0521942
-0.63643329
-0.04969853
-0.63157971
-0.046134634
-0.6274762
-0.041968422
-0.62405815
-0.037540488
-0.62124123
-0.033077785
-0.61893978
-0.028717677
-0.61707621
-0.024532749
-0.6155849
-0.020551458
-0.6144129
-0.016773554
-0.61351913
-0.013181018
-0.61287293
-0.0097455257
-0.6124526
-0.0064330148
-0.0032010058
-0.62159901
0.017385445
-0.62245335
0.017609142
-0.62334171
0.018036979
-0.62428307
0.018692333
-0.62529871
0.019575851
-0.6264129
0.02069121
-0.62765368
0.022040376
-0.62905359
0.023622092
-0.63065011
0.025428444
-0.63248531
0.027440036
-0.63460403
0.029619403
-0.63705022
0.031904122
-0.6398617
0.034200206
-0.64306094
0.036371715
-0.64663729
0.038227896
-0.6505261
0.03953361
-0.65460583
0.040067898
-0.65872643
0.039704011
-0.66275194
0.038442768
-0.66658914
0.036376371
-0.67018944
0.033617622
-0.67353157
0.03024416
-0.67660268
0.026279877
-0.67938231
0.021691995
-0.68182195
0.016384016
-0.68381916
0.010200865
-0.68520003
0.0029704006
-0.68571678
-0.0054351882
-0.68505119
-0.015048426
-0.68281964
-0.025728192
-0.67869092
-0.036880847
-0.67266136
-0.047223552
-0.66525313
-0.055143923
-0.65730449
-0.059648997
-0.6495592
-0.060800025
-0.64251168
-0.059241712
-0.63639205
-0.05581816
-0.6312431
-0.051283587
-0.626999
-0.046212526
-0.62354595
-0.040993534
-0.62075964
-0.035864094
-0.61852483
-0.030952488
-0.61674348
-0.026314101
-0.61533649
-0.021958453
-0.61424238
-0.017867661
-0.61341488
-0.014008516
-0.61282026
-0.010340147
-0.61243505
-0.0068182234
-0.0033911068
-0.62302106
0.018133426
-0.62378116
0.018369242
-0.62457249
0.018828315
-0.62541547
0.019535314
-0.6263317
0.020492077
-0.62734622
0.02170573
-0.62848885
0.023183009
-0.6297954
0.024928638
-0.63130864
0.026941686
-0.63307873
0.029210122
-0.63516175
0.031702427
-0.63761588
0.034358248
-0.64049591
0.037080237
-0.64384358
0.039719388
-0.64766328
0.04204759
-0.65188561
0.043755941
-0.65635522
0.044537512
-0.66087266
0.044221445
-0.66526257
0.04283268
-0.66941863
0.040532433
-0.67330357
0.037502568
-0.67691864
0.033859223
-0.68027528
0.02963652
-0.68337813
0.024794845
-0.68620101
0.019206897
-0.68864832
0.01264817
-0.69052503
0.0048471113
-0.69153123
-0.0044289868
-0.69126104
-0.015318614
-0.68917225
-0.027816981
-0.68470343
-0.041349665
-0.67771249
-0.054214493
-0.66890429
-0.063952125
-0.65952066
-0.069032627
-0.65057378
-0.069746908
-0.64266789
-0.067147605
-0.63601614
-0.062469904
-0.6305927
-0.05670703
-0.62625367
-0.050551551
-0.62281856
-0.044428644
-0.62011336
-0.038569302
-0.61798889
-0.033076954
-0.61632541
-0.027977577
-0.61503066
-0.023253204
-0.61403559
-0.018862733
-0.6132898
-0.014754308
-0.61275745
-0.010872495
-0.61241408
-0.0071615912
-0.0035602405
-0.62453761
0.018764999
-0.62518895
0.019020582
-0.62587289
0.019512254
-0.62660686
0.020269291
-0.62741148
0.021296694
-0.62831176
0.022606012
-0.62933867
0.02420992
-0.63053078
0.026120748
-0.63193601
0.028346914
-0.63361309
0.030887198
-0.63563109
0.033720426
-0.63806548
0.036792641
-0.6409927
0.040007455
-0.64448189
0.043208576
-0.64856426
0.046129969
-0.65317127
0.048362944
-0.658101
0.049467243
-0.66308011
0.049200559
-0.66787569
0.047628261
-0.67236619
0.045022931
-0.67653734
0.041673715
-0.68042654
0.037748432
-0.68407892
0.033288892
-0.68753291
0.028248838
-0.69079734
0.02247133
-0.69379434
0.015645166
-0.69630935
0.007362121
-0.697984
-0.0027543294
-0.69831435
-0.014988267
-0.69656256
-0.029568767
-0.69180946
-0.046102771
-0.68361717
-0.062406784
-0.67293088
-0.074638416
-0.66167858
-0.080284918
-0.65125041
-0.080175078
-0.64236967
-0.076028349
-0.63518025
-0.069659323
-0.62953562
-0.062351662
-0.6251767
-0.054910468
-0.62183512
-0.047770226
-0.61927739
-0.041127029
-0.61731738
-0.035036971
-0.61581389
-0.029481062
-0.61466313
-0.024403965
-0.61379039
-0.019735473
-0.61314289
-0.015401805
-0.6126841
-0.011331288
-0.61238958
-0.0074561118
-0.0037050198
-0.62605984
0.019294574
-0.62660037
0.019561105
-0.6271691
0.020080987
-0.62778411
0.020884299
-0.62846506
0.021977645
-0.62923651
0.023377459
-0.63013006
0.025103476
-0.63118669
0.027177378
-0.63245934
0.029619565
-0.63401592
0.032443776
-0.63594063
0.035645136
-0.63833027
0.039182283
-0.64128854
0.042965726
-0.64492239
0.04684242
-0.64930894
0.050516525
-0.65439374
0.05344774
-0.65990986
0.054983361
-0.66546831
0.054759006
-0.67074681
0.052906768
-0.67560256
0.049878678
-0.68006083
0.046131984
-0.68421324
0.041900844
-0.68814691
0.037222564
-0.69194224
0.032044167
-0.69566417
0.026193262
-0.69927825
0.019259244
-0.70256487
0.010648745
-0.70511081
-0.00020839311
-0.70630926
-0.013789818
-0.7052037
-0.030674329
-0.70033145
-0.050975019
-0.69064585
-0.072092382
-0.67735826
-0.087926006
-0.66363023
-0.094012955
-0.65137338
-0.092431926
-0.64141575
-0.085985973
-0.63372939
-0.077345687
-0.62796584
-0.068115209
-0.62370156
-0.059174746
-0.62055682
-0.05091497
-0.6182307
-0.043453149
-0.61649981
-0.036767863
-0.61520431
-0.03077656
-0.61423232
-0.025375959
-0.61350661
-0.020461183
-0.61297453
-0.015933883
-0.6126007
-0.011705116
-0.61236202
-0.0076947957
-0.0038220869
-0.62767883
0.019686719
-0.62809378
0.019976054
-0.62853848
0.020525692
-0.62902586
0.021371674
-0.62957284
0.02252463
-0.63020232
0.024006939
-0.63094536
0.025846515
-0.631844
0.028076019
-0.63295479
0.030730358
-0.6343537
0.033842685
-0.63614058
0.037432011
-0.63843681
0.041478512
-0.64137825
0.045907168
-0.64512
0.050584173
-0.64981355
0.055210071
-0.65544841
0.059082604
-0.66166945
0.061204393
-0.66790436
0.060993918
-0.6736949
0.05869731
-0.67887379
0.05505757
-0.6835434
0.050801598
-0.6878876
0.046245042
-0.69205205
0.041387011
-0.69616874
0.03616086
-0.70039079
0.030415311
-0.70476365
0.023632109
-0.70907464
0.014959733
-0.71281815
0.0035351184
-0.71528304
-0.011324934
-0.71532161
-0.030635752
-0.71071052
-0.055586111
-0.69922116
-0.083581744
-0.68219398
-0.10495319
-0.66513097
-0.11107596
-0.65062476
-0.10693813
-0.63953631
-0.09707442
-0.63147425
-0.085407754
-0.62576591
-0.073823551
-0.62176222
-0.063178433
-0.61894999
-0.053727201
-0.61695811
-0.04544503
-0.61553067
-0.038195303
-0.61449562
-0.031811602
-0.61373884
-0.026132742
-0.61318514
-0.021014885
-0.6127853
-0.016333718
-0.6125074
-0.011983023
-0.61233115
-0.0078710377
-0.0039082911
-0.6291258
0.019955549
-0.62941251
0.020262763
-0.62972383
0.020837008
-0.63007082
0.021718666
-0.63046711
0.022920922
-0.6309327
0.02447253
-0.63149663
0.026410448
-0.6322005
0.028779882
-0.633103
0.03163286
-0.63428712
0.035026805
-0.63586955
0.039014441
-0.63800235
0.043611315
-0.64086221
0.048767027
-0.64466451
0.054386466
-0.64967823
0.060223798
-0.65600367
0.065408041
-0.66317376
0.06837448
-0.67031318
0.068133342
-0.67675108
0.065135207
-0.68228488
0.060591374
-0.68715439
0.055671107
-0.69168778
0.050778432
-0.696092
0.04579123
-0.70052476
0.040593626
-0.70525059
0.035141143
-0.71043836
0.028819874
-0.71591375
0.020435122
-0.72108407
0.0087054414
-0.72516136
-0.0072476475
-0.7269856
-0.028811509
-0.7234126
-0.059159111
-0.70996836
-0.097025989
-0.68738422
-0.12753733
-0.66577649
-0.13268369
-0.64853694
-0.12417768
-0.63637518
-0.10923618
-0.62819291
-0.093590023
-0.62281589
-0.079200566
-0.61930272
-0.066691609
-0.61699387
-0.056036044
-0.61545602
-0.046982886
-0.61441341
-0.039237907
-0.61369323
-0.032531789
-0.61318771
-0.026638263
-0.61282975
-0.021372843
-0.61257761
-0.01658586
-0.61240541
-0.012155217
-0.6122974
-0.0079790461
-0.0039608945
-0.63027476
0.020059622
-0.63041184
0.020399848
-0.63057236
0.020997529
-0.6307605
0.021906799
-0.63098501
0.023145438
-0.63126202
0.024749535
-0.63161731
0.026765739
-0.63209037
0.029252943
-0.63273978
0.032282274
-0.63365212
0.035939142
-0.63495752
0.040319845
-0.63684043
0.045494226
-0.63952347
0.051450066
-0.64328194
0.058144933
-0.64854425
0.065486108
-0.65564738
0.072511168
-0.66399982
0.07672692
-0.67219938
0.076332903
-0.67925372
0.072189551
-0.68491007
0.066247722
-0.68966571
0.060426749
-0.69408674
0.055199465
-0.69845459
0.050159079
-0.70290371
0.045042745
-0.70789052
0.040127951
-0.71384334
0.0347727
-0.72072453
0.027316307
-0.72793547
0.015916381
-0.7344735
-0.00070961593
-0.73939382
-0.023891187
-0.73852254
-0.060030386
-0.72368187
-0.11186666
-0.69264722
-0.15857197
-0.66482552
-0.1605054
-0.64439842
-0.14460478
-0.6314649
-0.1221697
-0.62363862
-0.10141631
-0.61900866
-0.083830527
-0.61629022
-0.069410044
-0.61468942
-0.057636844
-0.61373761
-0.047934699
-0.61316333
-0.039812188
-0.6128104
-0.032884719
-0.61258898
-0.026859678
-0.61244735
-0.021514477
-0.61235574
-0.016677473
-0.6122971
-0.012213851
-0.61226184
-0.0080143035
-0.0039777883
-0.62986492
0.019967064
-0.62982344
0.020358366
-0.62980164
0.020975728
-0.62979547
0.021900628
-0.62980679
0.023156756
-0.62984506
0.024787806
-0.62992884
0.02684952
-0.63009007
0.029414174
-0.63038029
0.032572496
-0.6308807
0.036439551
-0.63172461
0.041163752
-0.6331271
0.046896718
-0.63537123
0.053694194
-0.63879473
0.061568439
-0.64402562
0.070716993
-0.65189969
0.080385236
-0.66179212
0.086619347
-0.67133041
0.085871195
-0.67906071
0.079919855
-0.68461653
0.071803541
-0.68897782
0.06478804
-0.69310574
0.059327383
-0.69740585
0.054459195
-0.70184158
0.049478474
-0.70712691
0.045413277
-0.71410864
0.041754431
-0.72280744
0.036015106
-0.73280746
0.025916401
-0.7420865
0.0085694309
-0.75071219
-0.015265502
-0.75440956
-0.056333015
-0.74067444
-0.12560178
-0.69659717
-0.20264925
-0.66068903
-0.19641353
-0.63713102
-0.16816279
-0.6242236
-0.13507711
-0.61756852
-0.10807139
-0.61427729
-0.087121757
-0.61273312
-0.070954217
-0.61206898
-0.058300978
-0.61183708
-0.048166601
-0.61180873
-0.039840541
-0.61186802
-0.032825426
-0.61195685
-0.026770846
-0.61204679
-0.021424543
-0.61212457
-0.016599688
-0.61218459
-0.012153835
-0.61222487
-0.0079740252
-0.0039577052
-0.62599597
0.019642563
-0.62571752
0.020079909
-0.62543763
0.020695842
-0.62514943
0.021612424
-0.62484726
0.022854586
-0.62453184
0.024472389
-0.62421123
0.026528913
-0.62390569
0.029108632
-0.62365529
0.032322099
-0.62353081
0.036315065
-0.62366023
0.04129318
-0.62428523
0.047521712
-0.62577313
0.055182095
-0.62852293
0.064318245
-0.63330326
0.07549732
-0.64183343
0.088915399
-0.65381741
0.098603328
-0.66484555
0.096899338
-0.67291479
0.087989095
-0.67739335
0.076282101
-0.68030007
0.067694763
-0.6832349
0.062262212
-0.68682596
0.058050255
-0.6903913
0.053043814
-0.69478658
0.049808556
-0.70184155
0.048809406
-0.71132692
0.045500475
-0.72423791
0.038827389
-0.73570656
0.020038087
-0.75000631
-0.00096575648
-0.7626142
-0.043725118
-0.75936298
-0.128853
-0.69477446
-0.26723777
-0.65086782
-0.24032017
-0.6253946
-0.19363602
-0.6140257
-0.14644601
-0.60980822
-0.11228887
-0.60864274
-0.088287232
-0.60870846
-0.070888495
-0.60921002
-0.05779942
-0.60981602
-0.047560599
-0.61039398
-0.039262588
-0.61089625
-0.032323156
-0.61131083
-0.026356261
-0.61163997
-0.0210954
-0.61189077
-0.016348892
-0.61207103
-0.011973572
-0.6121875
-0.0078575606
-0.0039004016
-0.61265071
0.018837165
-0.61193462
0.019363819
-0.61120476
0.019965983
-0.61043429
0.020841961
-0.60960516
0.022025448
-0.60870473
0.023571967
-0.60772399
0.025548172
-0.60666132
0.02804596
-0.60552996
0.031190744
-0.60436695
0.035152052
-0.60325328
0.040179512
-0.60239019
0.04665862
-0.60219075
0.054982658
-0.60310558
0.065233075
-0.60580235
0.078194085
-0.61333419
0.096447237
-0.62729389
0.11256303
-0.63873441
0.10833986
-0.64570273
0.09495741
-0.64679966
0.077379035
-0.64621154
0.067106647
-0.64613307
0.062183739
-0.64768239
0.059599579
-0.64861522
0.05397664
-0.6496284
0.050821737
-0.65629766
0.055478669
-0.6661169
0.055319715
-0.68384401
0.056554506
-0.69891569
0.035109762
-0.72790171
0.028020265
-0.75035572
-0.021271109
-0.77341079
-0.10579792
-0.67734908
-0.36329948
-0.6308897
-0.28677955
-0.60629892
-0.2182268
-0.59997125
-0.15277368
-0.60030172
-0.1119584
-0.60227487
-0.086314085
-0.60439248
-0.068770884
-0.60624598
-0.055945926
-0.60776581
-0.04604076
-0.60897906
-0.038049342
-0.60993348
-0.031368733
-0.61067488
-0.025614861
-0.61124129
-0.020528992
-0.6116624
-0.015927783
-0.61196046
-0.011675516
-0.61215133
-0.0076666822
-0.003806786
-0.5848487
0.017610709
-0.58359914
0.018114254
-0.58225368
0.018620522
-0.58080672
0.019394999
-0.57923106
0.020449792
-0.57749495
0.021835859
-0.57556089
0.023614114
-0.57338801
0.025873073
-0.57093757
0.028740306
-0.56818065
0.032395131
-0.56510936
0.037108224
-0.56181735
0.043366611
-0.55874549
0.051910795
-0.55665129
0.063138875
-0.55599267
0.077535463
-0.56091722
0.10137179
-0.58010028
0.13174609
-0.59269994
0.12093952
-0.59910805
0.10136552
-0.59457241
0.072843391
-0.58816686
0.060701101
-0.58274961
0.056766495
-0.58172566
0.058575622
-0.57950197
0.051752954
-0.57342149
0.044741258
-0.58483307
0.032341831
-0.59520288
0.037266545
-0.60425526
0.040189116
-0.60296623
0.020445846
-0.6348709
0.039799017
-0.71419479
0.019735517
-0.66919164
-0.054732021
-0.60698571
-0.22740739
-0.57386389
-0.31990137
-0.57154974
-0.22054095
-0.5811679
-0.14315552
-0.58947552
-0.10365077
-0.59563596
-0.080153644
-0.60009953
-0.064307315
-0.60337059
-0.052674872
-0.60580342
-0.043607929
-0.60763457
-0.036218188
-0.60902228
-0.029981024
-0.61007429
-0.024562856
-0.61086517
-0.019738109
-0.61144702
-0.015345934
-0.61185611
-0.011266429
-0.61211709
-0.0074057023
-0.0036789661
-0.52743445
0.015233738
-0.52497537
0.015655178
-0.52236232
0.016007468
-0.51955042
0.016583102
-0.51648371
0.017383077
-0.51309327
0.018445425
-0.50929291
0.019813745
-0.5049773
0.02155747
-0.50002251
0.023785515
-0.49429183
0.02666445
-0.48763984
0.030456233
-0.47994481
0.035671585
-0.47139357
0.043359554
-0.46297184
0.054717143
-0.45480952
0.069373146
-0.44702151
0.093583776
-0.4706786
0.15540319
-0.47084958
0.1211105
-0.46152394
0.092039876
-0.42800713
0.039326585
-0.39538602
0.028079993
-0.36727252
0.028652999
-0.30188369
0.02072355
-0.1604801
0.013157782
-0.039713461
0.0074670461
0
0
0
0
0
0
0
0
0
0
0
0
0