/*--------------------------------*- C++ -*----------------------------------*\
| =========                 |                                                 |
| \\      /  F ield         | foam-extend: Open Source CFD                    |
|  \\    /   O peration     | Version:     4.1                                |
|   \\  /    A nd           | Web:         http://www.foam-extend.org         |
|    \\/     M anipulation  |                                                 |
\*---------------------------------------------------------------------------*/
FoamFile
{
    version     2.0;
    format      ascii;
    class       volScalarField;
    location    "0.35";
    object      rAU;
}
// * * * * * * * * * * * * * * * * * * * * * * * * * * * * * * * * * * * * * //

dimensions      [0 0 1 0 0 0 0];

internalField   nonuniform List<scalar> 
4393
(
0.0002276734
0.00022729901
0.00022693225
0.0002265575
0.00022617266
0.0002257763
0.00022536604
0.0002249407
0.00022449943
0.00022404203
0.00022356911
0.00022308217
0.00022258371
0.00022207729
0.00022156729
0.00022105989
0.00022056091
0.0002200774
0.00021961703
0.00021918744
0.00021879642
0.00021845169
0.00021816079
0.00021793093
0.00021776876
0.00021768022
0.00021766995
0.00021766995
0.00021774124
0.00021789517
0.00021812989
0.00021844039
0.00021881845
0.00021925298
0.00021973071
0.00022023707
0.00022075719
0.00022127687
0.00022178326
0.00022226532
0.00022271407
0.00022312253
0.00022348564
0.00022379994
0.00022406331
0.00022427476
0.00022443438
0.00022454266
0.00022458498
0.00022453964
0.00022421848
0.00022391211
0.00022359656
0.00022326905
0.00022292795
0.00022257103
0.00022219743
0.00022180674
0.00022139933
0.00022097646
0.00022054043
0.00022009461
0.00021964349
0.0002191924
0.0002187484
0.00021831813
0.00021790925
0.00021752988
0.00021718794
0.00021689133
0.00021664777
0.0002164647
0.00021634913
0.00021630739
0.00021634487
0.00021643235
0.00021640501
0.00021644772
0.00021657437
0.00021678646
0.00021708242
0.00021745708
0.00021790166
0.00021840413
0.00021895021
0.00021952438
0.00022011109
0.00022069574
0.00022126538
0.00022180911
0.00022231818
0.00022278599
0.00022320778
0.00022358029
0.00022390138
0.00022417016
0.00022438813
0.00022454252
0.00022403361
0.00022372411
0.00022342299
0.00022311019
0.00022278297
0.00022243984
0.00022207879
0.00022169926
0.00022130124
0.00022088561
0.0002204543
0.00022001034
0.00021955799
0.00021910273
0.00021865089
0.00021821055
0.00021778924
0.00021739535
0.00021703757
0.00021672413
0.00021646313
0.00021626234
0.00021612917
0.00021607056
0.00021609265
0.00021620048
0.0002162899
0.00021616979
0.00021613079
0.0002161799
0.00021632203
0.00021655883
0.00021688771
0.0002173015
0.00021778863
0.00021833415
0.0002189211
0.00021953194
0.00022014989
0.00022075982
0.00022134888
0.00022190667
0.00022242527
0.00022289891
0.00022332359
0.00022369667
0.00022401705
0.00022428483
0.00022448034
0.00022367804
0.00022337378
0.00022307244
0.00022275636
0.00022242307
0.0002220713
0.00022169918
0.00022130639
0.00022089326
0.00022046112
0.00022001247
0.0002195511
0.00021908217
0.00021861218
0.00021814864
0.00021770074
0.00021727713
0.00021688713
0.00021654013
0.00021624486
0.00021600971
0.00021584266
0.00021575125
0.00021574253
0.00021582273
0.00021599686
0.00021608234
0.00021587592
0.00021575237
0.00021572223
0.00021579417
0.0002159734
0.00021626003
0.00021664828
0.0002171266
0.00021767882
0.00021828586
0.00021892771
0.00021958496
0.00022024013
0.00022087833
0.00022148757
0.00022205869
0.00022258511
0.0002230623
0.00022348744
0.0002238593
0.00022417687
0.00022442207
0.00022331607
0.00022301582
0.00022271465
0.00022239561
0.0002220564
0.00022169587
0.00022131229
0.00022090552
0.00022047613
0.00022002585
0.00021955771
0.00021907621
0.00021858741
0.00021809891
0.00021761945
0.00021715955
0.00021672909
0.00021633845
0.00021599783
0.00021571651
0.0002155032
0.0002153661
0.00021531297
0.00021535109
0.00021548705
0.00021572617
0.00021581849
0.00021552133
0.00021530928
0.00021519689
0.00021519725
0.00021531964
0.00021556715
0.00021593532
0.00021641207
0.0002169793
0.00021761506
0.00021829611
0.000219
0.00021970656
0.00022039879
0.00022106312
0.00022168934
0.00022227022
0.00022280092
0.00022327861
0.00022370196
0.00022406978
0.00022436628
0.00022293839
0.00022264267
0.00022234272
0.00022202166
0.00022167732
0.00022130857
0.00022091376
0.00022049284
0.00022004656
0.00021957696
0.00021908751
0.0002185834
0.00021807158
0.0002175608
0.0002170612
0.00021658477
0.00021614284
0.00021574702
0.00021540841
0.00021513685
0.00021494138
0.00021483041
0.00021481196
0.00021489373
0.0002150829
0.00021538556
0.00021549981
0.0002151061
0.00021479993
0.00021460051
0.00021452619
0.00021459118
0.00021480209
0.00021515568
0.00021563878
0.00021623036
0.00021690461
0.00021763421
0.000218393
0.00021915782
0.00021990941
0.00022063273
0.00022131671
0.0002219537
0.00022253887
0.00022306957
0.0002235447
0.0002239635
0.00022431196
0.00022254546
0.00022225495
0.00022195725
0.00022163518
0.00022128653
0.00022091017
0.0002205044
0.00022006919
0.00021960536
0.00021911515
0.0002186024
0.00021807291
0.00021753454
0.00021699728
0.0002164728
0.00021597482
0.0002155164
0.00021511056
0.00021476942
0.00021450337
0.00021432173
0.00021423305
0.0002142456
0.00021436764
0.00021460727
0.00021497185
0.00021512833
0.00021463079
0.00021422302
0.00021392973
0.00021377569
0.00021378136
0.00021395765
0.00021430259
0.00021480111
0.00021542802
0.00021615226
0.00021694135
0.00021776465
0.00021859559
0.00021941258
0.00022019921
0.00022094375
0.00022163846
0.00022227878
0.00022286256
0.00022338922
0.00022385883
0.00022425884
0.0002221393
0.00022185535
0.00022156106
0.00022123899
0.00022088688
0.00022050349
0.00022008701
0.00021963729
0.00021915513
0.00021864282
0.00021810448
0.00021754644
0.00021697744
0.0002164088
0.00021585396
0.00021532869
0.00021484811
0.00021442695
0.00021407843
0.00021381348
0.00021364153
0.00021357112
0.00021361074
0.00021376929
0.00021405613
0.00021448046
0.00021470559
0.00021409528
0.00021357627
0.0002131797
0.00021293845
0.00021288106
0.0002130241
0.00021336691
0.00021389147
0.00021456665
0.00021535444
0.0002162157
0.00021711447
0.00021802033
0.00021890931
0.00021976382
0.00022057179
0.00022132577
0.00022202182
0.00022265857
0.00022323631
0.00022375618
0.00022420687
0.00022172159
0.00022144504
0.00022115525
0.00022083424
0.0002204796
0.00022008986
0.00021966301
0.00021919866
0.00021869743
0.00021816152
0.00021759518
0.00021700515
0.00021640102
0.00021579553
0.00021520414
0.00021464512
0.00021413611
0.00021369395
0.00021333307
0.00021306482
0.00021289846
0.00021284229
0.00021290483
0.00021309566
0.00021342574
0.00021390683
0.00021423447
0.00021350064
0.00021285815
0.0002123458
0.00021200673
0.00021188031
0.00021199078
0.00021233903
0.00021290245
0.00021364164
0.00021450916
0.00021545751
0.00021644428
0.0002174348
0.00021840279
0.00021932978
0.00022020385
0.00022101826
0.00022177013
0.00022245926
0.00022308714
0.00022365613
0.00022415622
0.00022129433
0.00022102706
0.00022074317
0.00022042441
0.00022006824
0.00021967293
0.00021923613
0.00021875708
0.00021823605
0.00021767495
0.00021707796
0.00021645209
0.0002158077
0.00021515901
0.00021452383
0.00021392351
0.00021337892
0.00021290945
0.00021253095
0.00021225495
0.00021209014
0.00021204411
0.0002121251
0.00021234335
0.00021271171
0.0002132453
0.00021371834
0.00021284825
0.00021206706
0.00021142252
0.0002109709
0.00021076643
0.00021084417
0.00021120692
0.00021182518
0.00021264774
0.00021361457
0.0002146675
0.00021575652
0.00021684239
0.00021789676
0.00021890077
0.00021984325
0.00022071878
0.00022152605
0.00022226643
0.00022294294
0.00022355938
0.00022410715
0.00022086013
0.00022060273
0.00022032583
0.0002200105
0.0002196539
0.00021925392
0.00021880775
0.00021831412
0.0002177727
0.00021718493
0.00021655463
0.00021588886
0.00021519861
0.00021449961
0.0002138124
0.00021316217
0.00021257397
0.00021207052
0.00021166921
0.00021138138
0.00021121447
0.00021117471
0.00021126954
0.00021150963
0.00021191005
0.00021249018
0.00021316249
0.00021214128
0.00021120264
0.0002104046
0.00020982017
0.00020952437
0.00020956812
0.00020995674
0.00021065018
0.00021158039
0.00021267035
0.00021384846
0.00021505584
0.00021624857
0.00021739671
0.00021848185
0.0002194944
0.00022043098
0.00022129244
0.00022208222
0.00022280519
0.00022346682
0.00022406004
0.00022041998
0.00022017498
0.00021990683
0.00021959643
0.00021924078
0.00021883734
0.00021838273
0.00021787496
0.0002173129
0.00021669715
0.00021603092
0.00021532095
0.00021457862
0.0002138211
0.00021307207
0.00021236159
0.00021172029
0.00021117526
0.0002107457
0.00021044216
0.00021026983
0.00021023254
0.00021033624
0.00021059164
0.00021101615
0.00021163441
0.0002124625
0.00021138424
0.00021026571
0.00020928673
0.00020854174
0.00020813524
0.00020814216
0.00020857145
0.00020936664
0.00021043542
0.00021167777
0.00021300527
0.00021434902
0.00021566068
0.00021690972
0.00021807935
0.00021916263
0.00022015917
0.00022107267
0.00022190912
0.0002226756
0.00022337946
0.00022401535
0.00021997913
0.00021974663
0.00021948828
0.00021918414
0.00021883079
0.00021842516
0.00021796315
0.00021744186
0.00021685905
0.00021621417
0.00021550935
0.00021475064
0.00021394936
0.00021312392
0.00021230152
0.00021151851
0.00021081314
0.00021021848
0.00020975586
0.00020943406
0.00020925441
0.00020921693
0.00020932497
0.00020958856
0.00021002742
0.00021067242
0.0002115633
0.00021058521
0.00020925973
0.00020806467
0.00020712097
0.00020657533
0.00020654022
0.00020703023
0.00020796267
0.00020920993
0.00021064074
0.00021214596
0.00021364588
0.0002150887
0.00021644493
0.00021770109
0.00021885436
0.0002199084
0.00022087056
0.00022174991
0.00022255607
0.00022329848
0.00022397362
0.0002195363
0.00021931961
0.00021907325
0.00021877728
0.00021842818
0.00021802231
0.00021755475
0.00021702146
0.00021641881
0.00021574461
0.00021499939
0.0002141879
0.00021332078
0.00021241718
0.000211508
0.00021063764
0.00020985499
0.00020920161
0.00020870137
0.00020835969
0.00020817169
0.00020813157
0.00020823879
0.00020850178
0.00020894218
0.00020959806
0.00021052208
0.0002097559
0.00020819167
0.00020673604
0.00020554121
0.00020481424
0.00020472801
0.00020530701
0.00020642521
0.00020790309
0.00020956694
0.00021128273
0.00021296
0.0002145456
0.00021601369
0.00021735648
0.00021857704
0.00021968442
0.00022069041
0.00022160769
0.00022244872
0.00022322516
0.00022393546
0.00021910211
0.0002189007
0.00021866733
0.00021838111
0.00021803805
0.00021763383
0.00021716254
0.0002166188
0.0002159972
0.00021529341
0.00021450566
0.00021363661
0.0002126954
0.0002117009
0.00021068761
0.00020971028
0.00020883309
0.0002081101
0.00020756851
0.00020720795
0.00020701368
0.00020697132
0.00020707473
0.00020732926
0.00020775721
0.00020840433
0.000209339
0.00020891285
0.00020707378
0.00020530227
0.00020378429
0.00020281241
0.00020265924
0.00020336874
0.00020474034
0.00020651778
0.00020846965
0.00021043343
0.00021230972
0.00021404794
0.00021562987
0.00021705653
0.00021833916
0.00021949356
0.00022053685
0.00022148576
0.00022235577
0.00022316088
0.00022390152
0.00021866824
0.00021848609
0.00021826813
0.00021799387
0.00021765928
0.00021725945
0.00021678743
0.00021623628
0.00021559849
0.00021486701
0.0002140369
0.00021310777
0.00021208604
0.0002109887
0.00020985271
0.0002087458
0.00020775442
0.00020695145
0.00020636832
0.00020599465
0.00020579989
0.00020575713
0.00020585285
0.00020608773
0.00020648297
0.00020709231
0.00020800354
0.00020808172
0.00020592654
0.00020377169
0.00020183224
0.0002005181
0.00020026945
0.00020117304
0.00020289417
0.00020506315
0.00020737038
0.0002096235
0.00021171927
0.00021361637
0.0002153099
0.0002168138
0.00021815002
0.00021934261
0.00022041473
0.00022138748
0.00022227949
0.00022310704
0.00022387248
0.00021825727
0.00021809315
0.00021789166
0.0002176314
0.00021730793
0.00021691562
0.00021644632
0.00021589133
0.0002152406
0.00021448365
0.00021361126
0.00021261857
0.00021150773
0.0002102913
0.0002090059
0.00020773476
0.00020659762
0.00020569699
0.00020507032
0.00020469102
0.00020450388
0.00020446456
0.00020455144
0.00020475927
0.00020510429
0.00020564636
0.00020649551
0.00020729113
0.00020477963
0.00020216485
0.00019967202
0.00019786423
0.00019746583
0.00019866518
0.00020087494
0.00020355905
0.00020630279
0.00020888858
0.00021122009
0.00021327606
0.0002150728
0.00021664211
0.00021801947
0.00021923847
0.00022032885
0.00022131618
0.00022222209
0.00022306502
0.000223849
0.00021784882
0.00021770707
0.00021752444
0.00021728043
0.0002169708
0.00021658934
0.00021612673
0.00021557238
0.00021491353
0.00021413567
0.00021322418
0.00021216814
0.0002109637
0.00020961573
0.00020815479
0.00020668054
0.00020536307
0.0002043529
0.00020369559
0.00020333753
0.0002031833
0.00020316304
0.00020324659
0.00020342132
0.00020369098
0.0002041171
0.00020483666
0.00020600621
0.00020369306
0.00020052952
0.00019730854
0.00019476967
0.00019411209
0.00019577566
0.00019867758
0.00020204326
0.00020531837
0.00020827766
0.00021085211
0.00021305682
0.00021493969
0.00021655603
0.00021795738
0.00021918781
0.00022028373
0.00022127489
0.00022218561
0.00022303607
0.00022383171
0.00021750047
0.00021737913
0.00021721663
0.00021699171
0.00021669999
0.00021633469
0.00021588535
0.00021533946
0.00021468126
0.0002138916
0.00021294884
0.00021183338
0.00021053274
0.0002090397
0.00020736783
0.00020562847
0.00020406843
0.00020291945
0.00020223776
0.00020192628
0.00020182428
0.00020182615
0.0002018985
0.00020202692
0.00020219324
0.00020245473
0.00020298076
0.00020401769
0.00020273425
0.00019895829
0.00019480494
0.00019116493
0.00019001233
0.00019242069
0.00019631248
0.00020058339
0.00020449478
0.00020785708
0.00021066472
0.00021299268
0.000214933
0.00021656998
0.00021797295
0.00021919652
0.00022028318
0.00022126613
0.0002221717
0.00022302125
0.00022382116
0.00021723285
0.00021713668
0.00021699832
0.00021679701
0.00021652877
0.00021618631
0.00021575807
0.00021522959
0.00021458202
0.00021379123
0.00021282732
0.00021165923
0.00021026337
0.0002086176
0.00020670274
0.00020462422
0.00020274579
0.00020144428
0.00020078566
0.00020060384
0.00020062803
0.00020070173
0.00020079956
0.00020091908
0.00020099409
0.00020105413
0.00020129806
0.00020203411
0.00020227878
0.00019777892
0.00019240759
0.00018707817
0.00018490857
0.00018851977
0.00019383197
0.00019929974
0.0002039486
0.00020771488
0.00021071692
0.00021312048
0.0002150748
0.0002166969
0.00021807375
0.0002192691
0.00022032995
0.00022129167
0.00022218153
0.00022302133
0.00022381776
0.0002172911
0.00021722238
0.00021711388
0.00021694373
0.00021670831
0.00021640011
0.00021600701
0.00021551328
0.00021489768
0.00021413179
0.00021317716
0.00021198772
0.00021052345
0.00020874448
0.00020657576
0.00020406426
0.00020174152
0.00020026239
0.00019968552
0.00019974378
0.00019997444
0.0002001478
0.00020026397
0.00020037161
0.00020031207
0.00020005232
0.00019985405
0.00020007883
0.00020115157
0.00019735791
0.00019061815
0.00018287109
0.00017856248
0.00018410663
0.00019141302
0.000198403
0.00020385117
0.00020796375
0.00021107514
0.00021347661
0.00021538409
0.00021694637
0.00021826452
0.00021940788
0.00022042527
0.00022135222
0.0002222156
0.0002230367
0.00022382179
0.00021804284
0.00021800899
0.000217945
0.00021782405
0.00021764272
0.00021739351
0.00021706428
0.00021663863
0.0002160933
0.00021539565
0.00021449786
0.00021333342
0.0002118352
0.00020994487
0.00020751735
0.00020443064
0.00020143142
0.00019977547
0.00019943366
0.00020000948
0.00020066661
0.00020107122
0.0002012747
0.00020150218
0.00020144881
0.00020090132
0.00020029854
0.00019984899
0.00020079441
0.00019972426
0.00019126009
0.00017998106
0.00017089738
0.00017959616
0.00018941963
0.00019821853
0.0002044419
0.00020874002
0.00021180687
0.00021409117
0.00021587284
0.00021732229
0.00021854585
0.00021961235
0.00022056841
0.00022144724
0.00022227364
0.00022306729
0.00022383327
0.00022067627
0.00022071786
0.00022074014
0.0002207115
0.00022063044
0.0002204904
0.00022028057
0.00021998552
0.00021958214
0.00021903658
0.00021829639
0.00021727751
0.00021587704
0.00021401901
0.00021150625
0.00020782489
0.0002038218
0.00020221581
0.00020252767
0.00020427619
0.00020581757
0.00020675216
0.00020720399
0.00020790342
0.0002082889
0.00020731573
0.00020620182
0.00020433918
0.00020496475
0.0002034745
0.00019647977
0.00018115612
0.00016217562
0.00017624158
0.00018863374
0.00019944085
0.00020610056
0.00021020462
0.00021296821
0.00021497848
0.00021654068
0.00021782017
0.00021891292
0.00021987852
0.00022075648
0.00022157479
0.00022235448
0.00022311253
0.00022385204
0.0002263974
0.00022653225
0.00022668485
0.00022680184
0.00022688157
0.0002269197
0.00022690964
0.00022684117
0.00022669665
0.00022644761
0.0002260454
0.00022539436
0.00022433098
0.00022270008
0.00022028494
0.00021587892
0.00020950127
0.0002080408
0.00020924508
0.00021317595
0.00021625302
0.00021820171
0.0002188843
0.00022039547
0.00022220524
9.2993984e-05
9.5418548e-05
9.7705123e-05
9.9912467e-05
0.00010293349
9.4484425e-05
8.6196889e-05
0.00010660939
0.00017926362
0.00019336821
0.00020406991
0.00020940515
0.00021249244
0.00021456947
0.00021612126
0.00021736855
0.00021842477
0.00021935467
0.0002201987
0.00022098429
0.00022173151
0.0002224561
0.00022317135
0.00022387767
0.00023910299
0.00023953545
0.00024001911
0.00024048804
0.00024095209
0.00024141609
0.00024188546
0.00024236452
0.00024285269
0.00024334005
0.00024379688
0.00024413577
0.00024413477
0.00024346479
0.00024199146
0.00023829033
0.00022663609
0.00022883803
0.0002350326
0.00024954265
0.00026123186
0.00027027988
0.00012851798
0.00016751116
0.0003261839
0.00046270072
0.00049956686
0.00049956686
0.00049956686
0.00049956686
0.00049956686
0.00045029775
0.00033646081
6.8070658e-05
0.00021290365
0.00021340183
0.00021432934
0.00021545248
0.00021650073
0.00021745065
0.00021831393
0.00021910939
0.00021985396
0.00022056176
0.00022124459
0.00022191279
0.00022257567
0.00022324217
0.00022390952
0.00026391527
0.00026488824
0.00026600274
0.00026715984
0.00026838135
0.00026969298
0.00027112969
0.00027273503
0.00027456231
0.00027667855
0.00027917172
0.00028214826
0.00028570837
0.00028990268
0.00029478128
0.00030302271
0.0002727073
0.00030281811
0.00035486737
0.00037548395
0.00027629868
0.00032023173
0.00049956686
0.00049956686
0.00049956686
0.00049956686
0.00049956686
0.00049956686
0.00049956686
0.00049956686
0.00041268458
0.00041834803
0.00010206289
0.00026645113
0.0002310592
0.00022203711
0.00021922654
0.00021849386
0.00021851937
0.00021885197
0.00021931603
0.00021983893
0.00022038935
0.0002209541
0.00022152866
0.00022211302
0.00022270973
0.00022332307
0.00022394673
0.00030159198
0.00030367686
0.0003057534
0.00030790586
0.00031021063
0.00031274246
0.0003155888
0.00031886336
0.00032272391
0.000327409
0.00033330858
0.00034101305
0.00035108763
0.000363974
0.00038376331
0.00040128337
0.00024935392
0.00025404293
0.0002546535
0.00049044597
0.00047778317
0.00048801494
0.00047870953
0.00047373367
0.00047747171
0.00045867513
0.00045173946
0.0004535363
0.00044096487
0.00043655969
0.00010696056
0.00010771125
0.00021990487
0.00025237983
0.00023688185
0.00022735588
0.00022306987
0.00022117991
0.00022041584
0.0002202159
0.00022031353
0.00022057693
0.00022093814
0.0002213612
0.00022182703
0.00022232609
0.00022285444
0.0002234118
0.0002239883
0.00028925366
0.0002897853
0.00029000606
0.00029023105
0.00029045858
0.00029071653
0.0002910264
0.00029142011
0.00029194551
0.00029267588
0.00029372638
0.00029487795
0.00029574762
0.00029635726
0.00029353146
0.0001034527
0.00037704371
0.00047143239
0.00047068432
0.00049381034
0.00048612855
0.00048244749
0.00012425773
0.00012132065
0.00010080433
0.00010008955
0.00010066473
0.00010201071
0.00010296587
0.00010456075
0.00020129151
0.00020777085
0.00021818937
0.00023912828
0.00023957254
0.00023071199
0.00022591535
0.00022338031
0.00022207654
0.0002214653
0.00022125662
0.00022129123
0.00022147931
0.00022176907
0.00022213037
0.00022254579
0.00022300579
0.00022350599
0.00022403313
0.00022338255
0.0002232116
0.00022291787
0.00022263088
0.00022235728
0.00022211373
0.00022191592
0.00022178703
0.00022175935
0.00022187753
0.00022220461
0.0002221967
0.00022129048
0.00021957674
0.00021692731
0.00021361877
9.5959542e-05
9.9192698e-05
9.9915028e-05
9.9816924e-05
0.0001001904
0.00010021597
0.00021261521
0.00021088729
0.0002090027
0.00020561713
0.0002045082
0.00020395162
0.00020218177
0.00020220184
0.00020338355
0.000209099
0.00021833247
0.00023227205
0.00023803769
0.00023243913
0.00022781914
0.00022505564
0.00022344642
0.00022255328
0.00022211028
0.00022195685
0.00022199528
0.00022216546
0.00022243012
0.00022276623
0.00022315989
0.00022360326
0.00022408008
0.00021920015
0.00021927308
0.00021939136
0.000219519
0.00021966744
0.0002198489
0.00022007589
0.00022036435
0.00022073341
0.00022120537
0.00022180616
0.00022168796
0.00022095629
0.00021975228
0.00021804572
0.00021530554
0.00021268149
0.00021415115
0.00021597215
0.00021429661
0.00021246105
0.00021129182
0.00021013218
0.00020840884
0.00020737311
0.00020575477
0.00020484819
0.00020427404
0.00020354957
0.00020402029
0.00020600706
0.0002109692
0.00021863421
0.00022819202
0.00023390849
0.00023314454
0.00022898641
0.00022625525
0.00022452097
0.00022346075
0.00022285455
0.00022255696
0.00022247294
0.00022254046
0.00022271901
0.00022298221
0.00022331314
0.00022370135
0.00022412803
0.00021780862
0.00021788391
0.00021800445
0.00021813858
0.00021828941
0.00021846446
0.00021867212
0.00021892327
0.00021923012
0.00021960585
0.00022003109
0.00021959326
0.00021885389
0.00021780737
0.00021642764
0.00021461818
0.00021342302
0.00021423478
0.00021534628
0.00021356396
0.00021197161
0.00021075189
0.00020959445
0.0002083786
0.0002074227
0.00020636319
0.00020571278
0.00020535273
0.00020527965
0.00020615715
0.00020840321
0.00021269597
0.00021883724
0.00022569062
0.00023037057
0.00023232629
0.0002295974
0.00022705375
0.0002253226
0.00022418804
0.00022348188
0.00022308225
0.00022290362
0.00022288682
0.00022299128
0.00022318934
0.00022346239
0.0002237982
0.00022417595
0.00021712716
0.00021724379
0.00021737922
0.00021752616
0.00021769077
0.00021787954
0.00021809864
0.00021835555
0.00021865716
0.00021900864
0.00021929822
0.00021887196
0.00021823798
0.00021737187
0.00021625217
0.00021500057
0.00021434035
0.00021481559
0.00021508966
0.00021346947
0.00021207544
0.00021092494
0.00020986799
0.00020888653
0.00020806624
0.00020733066
0.00020691233
0.00020679816
0.0002070953
0.00020818965
0.00021040364
0.00021406282
0.00021894177
0.00022407824
0.0002279272
0.00023027671
0.00022982029
0.00022753491
0.00022588827
0.00022474812
0.00022399397
0.0002235297
0.00022328273
0.00022319986
0.00022324278
0.00022338422
0.00022360505
0.00022389203
0.00022422291
0.00021683887
0.00021690943
0.00021702247
0.00021715462
0.0002173042
0.00021747485
0.00021767039
0.00021789572
0.00021815467
0.00021844878
0.00021859948
0.00021822452
0.00021770778
0.00021704026
0.00021622972
0.00021543819
0.00021510599
0.00021547407
0.00021503513
0.00021364318
0.00021242309
0.00021137956
0.00021044779
0.0002096283
0.00020895444
0.00020843671
0.00020819641
0.00020827003
0.00020877462
0.00020995118
0.00021201763
0.00021511629
0.00021901643
0.00022300665
0.00022619845
0.0002283579
0.00022931176
0.00022777249
0.00022625841
0.00022516042
0.00022439852
0.00022390092
0.000223609
0.00022347714
0.00022347081
0.00022356437
0.00022373907
0.00022398138
0.00022426811
0.00021669703
0.00021680752
0.00021693063
0.00021706399
0.00021721173
0.00021737703
0.00021756167
0.00021776755
0.00021799475
0.00021824024
0.00021832004
0.00021798428
0.00021754567
0.0002170097
0.00021641197
0.00021590319
0.00021574948
0.00021602159
0.00021507961
0.00021390016
0.00021284329
0.00021192131
0.00021111468
0.00021043151
0.00020989505
0.00020953815
0.00020943626
0.00020964206
0.00021025696
0.00021143692
0.00021331781
0.00021594382
0.00021910279
0.00022229149
0.00022496265
0.00022690666
0.00022813506
0.00022783199
0.00022647252
0.00022544705
0.00022470673
0.00022420071
0.00022388369
0.0002237181
0.00022367401
0.0002237282
0.000223863
0.00022406513
0.00022431092
0.00021662627
0.00021669517
0.00021680002
0.00021692164
0.00021705778
0.00021720967
0.0002173776
0.00021756184
0.00021776062
0.00021796866
0.00021803315
0.00021775936
0.00021741515
0.00021701335
0.00021659891
0.00021629237
0.00021625855
0.00021619245
0.00021516557
0.00021417446
0.00021327009
0.00021247313
0.00021178676
0.00021122481
0.00021081036
0.00021057922
0.00021058598
0.00021088335
0.00021155141
0.0002126918
0.00021438244
0.00021661678
0.00021921318
0.00022181822
0.00022407413
0.00022580687
0.00022699117
0.00022751496
0.00022656489
0.00022562975
0.00022493125
0.00022443575
0.00022410982
0.00022392363
0.00022385211
0.00022387491
0.0002239759
0.00022414247
0.00022435086
0.00021657519
0.00021666565
0.0002167714
0.00021688649
0.00021701261
0.00021715085
0.00021730043
0.00021746026
0.0002176271
0.00021779443
0.000217856
0.00021762814
0.00021735572
0.00021705701
0.00021677736
0.000216608
0.00021663991
0.00021611699
0.00021527446
0.00021444752
0.00021368357
0.00021300822
0.00021243583
0.00021198411
0.00021167686
0.00021154749
0.00021163907
0.00021199798
0.00021268438
0.00021376337
0.00021527439
0.00021718669
0.00021935108
0.00022151701
0.00022343899
0.0002249769
0.00022609109
0.0002268118
0.00022656552
0.00022572876
0.00022508493
0.00022461369
0.00022429152
0.00022409564
0.00022400569
0.00022400434
0.0002240773
0.00022421288
0.00022438759
0.00021654575
0.00021661218
0.00021670667
0.00021681352
0.00021693068
0.000217058
0.00021719371
0.00021733573
0.00021747985
0.00021761881
0.0002177015
0.00021752235
0.00021731699
0.00021710584
0.00021693006
0.00021685794
0.0002167344
0.00021609436
0.00021540341
0.00021471882
0.00021408234
0.00021352121
0.00021305488
0.00021270319
0.00021248966
0.00021244405
0.00021260141
0.00021299991
0.00021368316
0.00021469132
0.00021603946
0.00021768737
0.00021951505
0.00022134173
0.00022299251
0.00022435581
0.00022538856
0.00022610055
0.00022638741
0.00022576167
0.00022517991
0.00022474235
0.00022443352
0.00022423673
0.00022413596
0.00022411688
0.00022416712
0.00022427613
0.00022442091
0.00021652454
0.00021659697
0.00021668736
0.0002167859
0.00021689234
0.00021700644
0.00021712599
0.00021724844
0.00021736925
0.00021748124
0.00021756719
0.0002174471
0.00021729672
0.00021715478
0.00021705652
0.00021698189
0.00021663713
0.00021611462
0.00021555046
0.00021498955
0.00021446785
0.00021401198
0.00021364309
0.00021338157
0.00021324978
0.00021327364
0.00021348173
0.0002139042
0.00021457156
0.00021550701
0.0002167109
0.00021814132
0.00021970249
0.00022126141
0.00022268969
0.00022389867
0.00022484697
0.00022553295
0.00022598104
0.00022574368
0.00022522727
0.00022482935
0.00022454077
0.00022434989
0.00022424458
0.00022421329
0.0002242456
0.00022433219
0.00022445074
0.00021651637
0.00021657703
0.00021666006
0.00021675159
0.00021684978
0.00021695379
0.00021706097
0.00021716845
0.00021727159
0.00021736357
0.00021743475
0.00021738917
0.00021728513
0.00021719822
0.00021713147
0.00021695172
0.00021659483
0.00021617024
0.00021571369
0.00021526063
0.00021484171
0.0002144817
0.00021420151
0.00021402091
0.00021396042
0.00021404225
0.00021428951
0.00021472518
0.00021536982
0.00021623512
0.00021731309
0.00021856388
0.00021991108
0.00022125485
0.00022249873
0.00022357209
0.00022443743
0.00022508714
0.00022553506
0.00022567053
0.00022523676
0.0002248818
0.00022461817
0.00022443833
0.00022433349
0.00022429464
0.00022431322
0.00022438123
0.00022447709
0.00021651549
0.00021657498
0.00021665277
0.00021673691
0.00021682613
0.00021691954
0.00021701437
0.00021710771
0.00021719515
0.00021727046
0.00021732535
0.00021733007
0.00021727765
0.00021720956
0.0002171076
0.0002168862
0.0002165952
0.00021625405
0.00021589006
0.00021553157
0.00021520452
0.00021493125
0.00021473136
0.00021462322
0.00021462511
0.00021475575
0.00021503351
0.00021547533
0.00021609428
0.00021689445
0.00021786344
0.0002189651
0.0002201382
0.00022130641
0.00022239587
0.00022335012
0.00022413626
0.00022474398
0.00022518034
0.00022546358
0.00022521671
0.00022490612
0.00022467038
0.00022450527
0.00022440478
0.00022436218
0.00022437066
0.00022442352
0.00022450005
0.00021652312
0.0002165765
0.00021664881
0.00021672677
0.00021680863
0.00021689331
0.000216978
0.00021705991
0.00021713495
0.00021719768
0.00021724113
0.00021725687
0.00021723538
0.00021716681
0.00021704291
0.00021686165
0.00021662886
0.00021636001
0.00021607659
0.0002158015
0.00021555663
0.00021536168
0.00021523438
0.00021519121
0.00021524805
0.00021542034
0.00021572233
0.00021616606
0.000216759
0.00021750027
0.00021837552
0.00021935272
0.00022038247
0.00022140549
0.00022236433
0.00022321371
0.00022392537
0.00022448821
0.00022490515
0.00022518883
0.00022517447
0.00022490812
0.00022470182
0.00022455387
0.00022446061
0.00022441728
0.00022441869
0.00022445946
0.00022451978
0.00021653674
0.00021658711
0.00021665473
0.00021672674
0.00021680153
0.00021687807
0.00021695364
0.00021702565
0.00021709049
0.00021714354
0.0002171791
0.00021719057
0.00021717083
0.00021711306
0.00021701223
0.00021686858
0.00021668775
0.00021648241
0.00021626987
0.00021606882
0.00021589769
0.00021577354
0.00021571195
0.0002157273
0.000215833
0.00021604146
0.00021636338
0.00021680678
0.00021737504
0.00021806407
0.00021885896
0.00021973169
0.0002206421
0.00022154351
0.00022239073
0.00022314731
0.00022378936
0.00022430617
0.00022469828
0.0002249745
0.00022510264
0.00022489276
0.00022471639
0.00022458709
0.00022450309
0.00022446134
0.00022445817
0.00022448947
0.00022453642
0.00021655573
0.00021660238
0.00021666578
0.00021673269
0.00021680143
0.00021687102
0.00021693888
0.00021700275
0.00021705954
0.00021710544
0.00021713597
0.00021714615
0.00021713089
0.00021708576
0.00021700804
0.00021689945
0.00021676537
0.00021661645
0.00021646688
0.00021633206
0.00021622742
0.00021616753
0.00021616574
0.00021623423
0.00021638397
0.00021662462
0.00021696377
0.00021740617
0.00021795217
0.00021859565
0.0002193219
0.00022010652
0.00022091661
0.00022171498
0.00022246577
0.00022313965
0.00022371673
0.00022418732
0.00022455077
0.00022481344