/*--------------------------------*- C++ -*----------------------------------*\
| =========                 |                                                 |
| \\      /  F ield         | foam-extend: Open Source CFD                    |
|  \\    /   O peration     | Version:     4.1                                |
|   \\  /    A nd           | Web:         http://www.foam-extend.org         |
|    \\/     M anipulation  |                                                 |
\*---------------------------------------------------------------------------*/
FoamFile
{
    version     2.0;
    format      ascii;
    class       volScalarField;
    location    "1.4";
    object      p;
}
// * * * * * * * * * * * * * * * * * * * * * * * * * * * * * * * * * * * * * //

dimensions      [0 2 -2 0 0 0 0];

internalField   nonuniform List<scalar> 
16126
(
-6.3936728e-05
0.00035248328
0.00028055141
0.00061807214
0.0006099447
0.00086331627
0.00089787236
0.0010821498
0.0011330766
0.0012613801
0.001307166
0.0013864571
0.0014110691
0.0014430769
0.0014343678
0.0014172584
0.0013654553
0.0012952092
0.001191917
0.001063297
0.00090097791
0.00070821893
0.00047999588
0.00021735597
-8.2854469e-05
-0.00042056938
-0.00079782923
-0.0012148564
-0.0016729349
-0.0021721302
-0.0027126163
-0.0032939033
-0.0039150441
-0.0045752947
-0.0052723628
-0.0060068871
-0.0067768587
-0.007577242
-0.0084085305
-0.0092640504
-0.010141199
-0.011038666
-0.011949876
-0.012870373
-0.013794246
-0.014715643
-0.015627987
-0.016524454
-0.017397712
-0.018240147
-0.019043778
-0.019800396
-0.020501571
-0.021138766
-0.021703395
-0.022186941
-0.02258104
-0.022877612
-0.023068963
-0.023147914
-0.023107902
-0.022943102
-0.022648508
-0.022220023
-0.0216545
-0.020949798
-0.020104763
-0.019119231
-0.017993962
-0.016730589
-0.015331491
-0.013799718
-0.012138814
-0.010352721
-0.0084455783
-0.0064216359
-0.0042850352
-0.0020397862
0.00031044015
0.0027622172
0.005312486
0.0079582583
0.010696557
0.013523815
0.016435597
0.019425895
0.022487025
0.025609389
0.028781879
0.031992224
0.035227631
0.038475451
0.041723442
0.044960658
0.048176788
0.051363698
0.054513186
0.057620363
0.060678413
0.063686201
0.066636862
0.069534677
0.072370488
0.075158815
0.077884756
0.080585612
0.083235019
0.085923339
0.088600841
0.091479296
0.094451354
0.097995356
0.10183146
0.10700466
0.11268845
0.12116008
0.12992008
0.14426489
0.15670313
0.18149019
0.19506881
0.24539255
0.24155571
0.41058452
-6.8817488e-05
0.00035572096
0.00027806554
0.0006167554
0.00060706169
0.00085937314
0.00089370721
0.0010766348
0.001127528
0.0012546535
0.0013002316
0.0013784843
0.0014026856
0.001433781
0.0014245435
0.0014066358
0.0013542752
0.0012833511
0.0011795412
0.001050374
0.00088759119
0.00069431117
0.00046559133
0.00020241639
-9.8326629e-05
-0.00043657323
-0.00081428069
-0.0012315343
-0.0016892572
-0.002187305
-0.0027260582
-0.0033048171
-0.0039244006
-0.0045845841
-0.005282605
-0.0060160448
-0.0067777694
-0.0075671605
-0.0083912005
-0.009245133
-0.010119798
-0.011011269
-0.011916426
-0.01283019
-0.013747005
-0.014660939
-0.015565495
-0.016453879
-0.017318823
-0.01815277
-0.018947812
-0.019695817
-0.020388441
-0.02101724
-0.021573726
-0.022049487
-0.022436272
-0.022726119
-0.022911456
-0.022985228
-0.022941001
-0.022773074
-0.022476559
-0.022047468
-0.02148275
-0.020780331
-0.019939102
-0.018958907
-0.017840475
-0.01658536
-0.01519582
-0.013674733
-0.012025422
-0.010251569
-0.0083570071
-0.006345646
-0.0042212505
-0.0019874212
0.00035261228
0.0027958861
0.005339809
0.0079818247
0.010719302
0.013548867
0.016466099
0.019464831
0.022537133
0.025673126
0.028861422
0.032089505
0.035344444
0.038613588
0.041884863
0.045147613
0.048391966
0.051610275
0.054794987
0.057941874
0.061045059
0.064104307
0.067114176
0.070080145
0.072995231
0.075875349
0.078708808
0.081533846
0.084328563
0.08718183
0.090049896
0.09313605
0.09634205
0.10012182
0.10421563
0.10961088
0.11553908
0.12414346
0.13310011
0.14732968
0.15993255
0.18354454
0.19775724
0.23795033
0.24592929
0.30586881
-9.4727859e-05
0.00036512104
0.00026937358
0.00061853399
0.00060709958
0.00086128916
0.0008975903
0.0010802133
0.0011334276
0.0012601324
0.0013077371
0.0013860659
0.0014120136
0.0014436242
0.0014359171
0.00141881
0.0013678212
0.0012978445
0.0011952931
0.0010671425
0.00090563544
0.00071368
0.00048656629
0.00022516811
-7.344544e-05
-0.00040928605
-0.00078420168
-0.0011984857
-0.0016540745
-0.0021514433
-0.0026905155
-0.0032711486
-0.0038902845
-0.0045459183
-0.0052321169
-0.0059557809
-0.0067251231
-0.0075282851
-0.0083584073
-0.0092115948
-0.010086171
-0.010979439
-0.011886447
-0.012802601
-0.013722136
-0.014639229
-0.015547369
-0.016439783
-0.017309205
-0.018148077
-0.018948482
-0.01970227
-0.02040107
-0.021036401
-0.021599731
-0.022082591
-0.022476668
-0.022773928
-0.022966722
-0.023047916
-0.023010989
-0.022850157
-0.022560448
-0.022137793
-0.02157906
-0.020882106
-0.020045752
-0.019069782
-0.017954868
-0.016702516
-0.015314939
-0.013794977
-0.012145918
-0.010371412
-0.0084752638
-0.0064613597
-0.0043334461
-0.0020951224
0.00025037273
0.0027000472
0.0052512908
0.0079015423
0.010648229
0.013488077
0.016416796
0.019428292
0.022514586
0.025665585
0.028869628
0.032113907
0.035385254
0.038670775
0.041958224
0.045236697
0.048496196
0.051728837
0.054927037
0.058086308
0.061200902
0.064270258
0.067289482
0.070263713
0.073187635
0.076077016
0.078924534
0.081768741
0.084597764
0.087500538
0.090453417
0.093653919
0.097038634
0.10102947
0.10542068
0.11108805
0.11735704
0.12606398
0.13514381
0.14872986
0.16091846
0.18199874
0.1958772
0.22902734
0.24208534
0.2858032
-0.00014443528
0.00037807055
0.00025132988
0.00061788041
0.00059889737
0.00085654968
0.00089314822
0.0010758781
0.001131256
0.0012577947
0.0013075072
0.0013858203
0.0014134921
0.0014454748
0.0014393147
0.0014230378
0.0013736843
0.001305079
0.0012044969
0.0010783935
0.00091930537
0.00072960886
0.00050484636
0.00024565232
-5.0895126e-05
-0.00038494708
-0.00075847365
-0.0011715766
-0.0016243619
-0.0021162324
-0.0026470218
-0.0032132124
-0.0038212514
-0.0044747709
-0.0051732303
-0.0059071028
-0.0066674113
-0.0074581217
-0.0082790193
-0.0091276173
-0.0099983314
-0.010887278
-0.011790291
-0.012702533
-0.013618603
-0.014532679
-0.015438409
-0.016329086
-0.017197551
-0.018036325
-0.018837577
-0.019593225
-0.020294968
-0.020934377
-0.021502964
-0.021992289
-0.022394056
-0.022700229
-0.022903142
-0.022995622
-0.022971089
-0.022823675
-0.022548294
-0.022140736
-0.021597694
-0.020916816
-0.02009668
-0.019136788
-0.0180375
-0.016799984
-0.015426087
-0.013918275
-0.012279454
-0.010512903
-0.00862207
-0.0066105155
-0.0044816843
-0.0022389191
0.00011477197
0.0025765618
0.0051439477
0.007814338
0.010584987
0.01345225
0.016411392
0.019455798
0.022577076
0.025764825
0.029007261
0.032291486
0.035604368
0.038933058
0.042265497
0.045591017
0.048900087
0.052185275
0.055439805
0.058659919
0.06184127
0.064984409
0.068086785
0.07115506
0.074187732
0.07720216
0.080196945
0.08321086
0.086240619
0.089369852
0.092586545
0.096067545
0.099765696
0.10404666
0.10873554
0.11457679
0.12098345
0.12949431
0.13833361
0.15087287
0.16221044
0.18016788
0.19248634
0.21614783
0.227197
0.24526311
-0.00021932087
0.00039728685
0.00022262942
0.00061819434
0.00059143535
0.00085771497
0.00089500593
0.0010800411
0.0011380699
0.0012654421
0.0013182209
0.0013978365
0.0014286823
0.0014625686
0.0014595862
0.0014457078
0.0013995368
0.0013336459
0.0012362286
0.0011129053
0.00095703026
0.0007709408
0.00055045326
0.00029612594
5.4377248e-06
-0.0003216966
-0.00068615766
-0.001087672
-0.0015305175
-0.0020165373
-0.0025452908
-0.0031197335
-0.0037325406
-0.0043792298
-0.0050617097
-0.0057808276
-0.0065382063
-0.0073287051
-0.0081486865
-0.0089944468
-0.0098629851
-0.010750893
-0.011653812
-0.012567194
-0.013485666
-0.014403586
-0.015314704
-0.016212434
-0.017089708
-0.017939129
-0.018752921
-0.019523041
-0.020241196
-0.020898939
-0.021487732
-0.021999057
-0.0224245
-0.02275587
-0.022985309
-0.023105409
-0.023109308
-0.022990814
-0.022744471
-0.022365655
-0.021850603
-0.021196471
-0.020401314
-0.019464095
-0.018384626
-0.017163532
-0.015802138
-0.014302428
-0.012666868
-0.010898374
-0.009000098
-0.006975419
-0.0048277021
-0.0025603663
-0.00017663865
0.0023202373
0.0049271925
0.007640883
0.010457778
0.013373373
0.016382149
0.019476811
0.0226485
0.025886432
0.029178624
0.032512062
0.035873659
0.039250594
0.042630958
0.046003998
0.049360263
0.052692209
0.055993291
0.059259715
0.06248765
0.065677718
0.068828539
0.071946966
0.075033935
0.078107031
0.081169595
0.084259962
0.08738337
0.090619516
0.093970257
0.097596535
0.10147206
0.10591399
0.11078207
0.1166969
0.12315728
0.13141478
0.13998179
0.15154449
0.1621997
0.17789436
0.18959739
0.20889414
0.22019425
0.2325032
-0.00031228228
0.00041855056
0.00019162209
0.00062178135
0.00057750524
0.00085381044
0.00088959685
0.0010782974
0.0011393057
0.0012693026
0.0013256302
0.0014072775
0.0014415331
0.0014777724
0.0014782956
0.0014674155
0.0014251895
0.0013632494
0.0012706677
0.0011529806
0.0010036201
0.00082382316
0.00060977913
0.00036183638
7.7297748e-05
-0.00024430018
-0.00060552841
-0.0010074614
-0.0014479372
-0.0019259361
-0.0024431583
-0.002999118
-0.0035960024
-0.0042339565
-0.0049123118
-0.0056269651
-0.0063741877
-0.0071535696
-0.0079632372
-0.0088008004
-0.0096623469
-0.010544306
-0.011442544
-0.012352542
-0.013269227
-0.014187101
-0.015100152
-0.016001966
-0.016885663
-0.017743997
-0.018569337
-0.019353746
-0.020089019
-0.020766756
-0.021378432
-0.021915496
-0.022369452
-0.022731974
-0.022995005
-0.023150872
-0.023192374
-0.023112906
-0.022906514
-0.022568001
-0.022092949
-0.021477795
-0.020719811
-0.019817139
-0.018768735
-0.017574374
-0.016234541
-0.014750433
-0.013123799
-0.011356943
-0.0094525261
-0.0074136027
-0.0052433674
-0.0029452849
-0.00052279747
0.0020203804
0.0046805399
0.0074534233
0.010334402
0.013317684
0.016396618
0.019562786
0.022806473
0.026116296
0.029480095
0.032884739
0.036317262
0.039764906
0.043215926
0.046659827
0.050087633
0.053492184
0.056867577
0.060210554
0.063518409
0.06679253
0.070033302
0.073248455
0.076441547
0.079630524
0.082822287
0.086053288
0.08933308
0.092733232
0.096260447
0.10005311
0.10409199
0.10864178
0.11358224
0.11942104
0.12572959
0.13351119
0.14152669
0.15185048
0.16137607
0.17436826
0.18423614
0.19816126
0.20673327
0.21290119
-0.00040938567
0.00044219304
0.00015666072
0.0006277831
0.00057048338
0.00086140219
0.00089584553
0.001090144
0.0011530403
0.0012855807
0.0013455682
0.0014305077
0.0014692976
0.001509476
0.0015149624
0.0015086389
0.0014716837
0.0014147054
0.0013274804
0.0012141804
0.0010691838
0.00089470979
0.00068701266
0.00044621727
0.00016997309
-0.00014210031
-0.00049144347
-0.00087882666
-0.0013062319
-0.0017744082
-0.0022835977
-0.0028343313
-0.0034241556
-0.0040514699
-0.0047164035
-0.0054183436
-0.0061568113
-0.0069290477
-0.007732549
-0.0085643456
-0.0094214598
-0.010300552
-0.011197727
-0.012108731
-0.013028702
-0.013952388
-0.014873987
-0.01578729
-0.016685599
-0.017561822
-0.01840845
-0.019217633
-0.019981205
-0.020690763
-0.021337717
-0.02191339
-0.022409094
-0.022816228
-0.023126381
-0.023331435
-0.02342365
-0.023395786
-0.023241166
-0.022953778
-0.022528315
-0.021960263
-0.0212459
-0.020382356
-0.019367581
-0.018200384
-0.016880345
-0.015407861
-0.013783992
-0.012010527
-0.010089768
-0.0080246408
-0.0058184111
-0.0034748926
-0.00099810112
0.0016073788
0.0043367709
0.0071844691
0.010144564
0.013209829
0.016372162
0.019621833
0.022948241
0.026339199
0.02978198
0.033263074
0.036769389
0.040288175
0.043808034
0.047318267
0.050809978
0.054275826
0.057710233
0.061109948
0.064472718
0.067800068
0.071093354
0.074360461
0.077606696
0.080849921
0.084099921
0.087391788
0.090739483
0.09420908
0.097813578
0.101675
0.10578382
0.1103635
0.11531555
0.12105398
0.12721978
0.13460991
0.14221755
0.15163751
0.16047151
0.17179781
0.18089285
0.19228023
0.20007265
0.20422163
-0.00050001708
0.00046611173
0.00012354159
0.00063445117
0.00055999176
0.00086540429
0.00089763178
0.0010986919
0.0011647356
0.0013022537
0.0013666351
0.0014556226
0.0014990984
0.0015435319
0.0015540857
0.0015526709
0.001521436
0.001470392
0.001389954
0.0012843722
0.0011479521
0.00098190489
0.00078281944
0.00055067821
0.0002830909
-2.0491107e-05
-0.00036183999
-0.00074150545
-0.0011595161
-0.0016159827
-0.0021116959
-0.0026468624
-0.0032221797
-0.0038373026
-0.0044916486
-0.0051832289
-0.005910172
-0.006671176
-0.0074643283
-0.0082874147
-0.0091374347
-0.010011246
-0.010905184
-0.011815196
-0.01273672
-0.013664746
-0.014593756
-0.015517782
-0.016430364
-0.017324611
-0.01819319
-0.019028378
-0.019822097
-0.020565966
-0.021251357
-0.02186948
-0.022411443
-0.022868357
-0.023231412
-0.023491988
-0.02364173
-0.023672671
-0.023577292
-0.023348647
-0.022980401
-0.022466948
-0.021803421
-0.020985795
-0.020010866
-0.018876345
-0.017580775
-0.016123644
-0.014505226
-0.012726718
-0.010790004
-0.0086978508
-0.0064535623
-0.0040613018
-0.0015256197
0.0011480106
0.0039538159
0.006884899
0.0099337731
0.013091388
0.016348378
0.019693624
0.023115255
0.026600113
0.03013522
0.033706594
0.037301118
0.040905737
0.044508668
0.048099397
0.051669496
0.055211973
0.058721581
0.062195394
0.065632005
0.06903336
0.072401893
0.075745848
0.079071894
0.08239745
0.085733766
0.089113218
0.092550938
0.096105029
0.099789237
0.10370672
0.1078502
0.11240285
0.1172794
0.1228105
0.12869219
0.13554238
0.14253855
0.15086287
0.15865709
0.16803891
0.17565906
0.18420033
0.19024181
0.19281056
-0.00057789158
0.00049025039
9.5412727e-05
0.00064566028
0.00055716291
0.00087884731
0.00090971104
0.0011186859
0.0011876027
0.0013303285
0.0013993372
0.0014934281
0.001542513
0.001592518
0.0016093113
0.0016140723
0.0015895828
0.0015452696
0.0014719929
0.0013735038
0.0012447101
0.0010869461
0.00089692394
0.0006745896
0.00041773994
0.00012578124
-0.00020284647
-0.00056901687
-0.00097404764
-0.0014185519
-0.0019029982
-0.0024276065
-0.0029916927
-0.0035946818
-0.0042363655
-0.0049160404
-0.0056328993
-0.0063852233
-0.0071711601
-0.0079884276
-0.0088344974
-0.0097064627
-0.010600984
-0.011514295
-0.012442126
-0.013379753
-0.014321928
-0.015262934
-0.016196537
-0.017116037
-0.018014249
-0.018883548
-0.019715893
-0.02050287
-0.021235739
-0.021905506
-0.022502978
-0.023018853
-0.023443798
-0.02376855
-0.023983991
-0.024081278
-0.024051911
-0.023887871
-0.023581671
-0.023126513
-0.022516308
-0.021745825
-0.020810686
-0.019707513
-0.018433857
-0.016988368
-0.015370631
-0.013581379
-0.011622218
-0.0094959215
-0.0072060091
-0.0047571823
-0.0021547494
0.00059477805
0.0034843779
0.0065054882
0.009649502
0.012906033
0.016263848
0.019710118
0.023232093
0.026815516
0.030446197
0.034109393
0.037791281
0.041478757
0.045160993
0.048826775
0.052467519
0.056075727
0.059646744
0.063177711
0.066667484
0.070118187
0.073533029
0.076920252
0.080287648
0.08365227
0.087026799
0.090441858
0.093914329
0.097496861
0.10120541
0.10512928
0.10926555
0.11376605
0.11856017
0.12391198
0.1295701
0.13601157
0.14257994
0.15014815
0.15730781
0.16550404
0.17238554
0.17944815
0.18471347
0.18648955
-0.00064027867
0.00051246801
7.2613331e-05
0.00065750811
0.00055535138
0.00089219476
0.0009217673
0.0011390939
0.0012115275
0.0013606106
0.0014348809
0.0015347936
0.0015898819
0.0016459815
0.0016694155
0.0016809506
0.0016638866
0.0016273082
0.001562455
0.0014729054
0.0013536047
0.0012055276
0.0010255324
0.00081342491
0.00056701672
0.000285662
-3.2202936e-05
-0.00038723201
-0.0007801976
-0.0012116327
-0.0016822487
-0.0021924822
-0.0027427272
-0.0033328558
-0.0039625572
-0.0046308641
-0.0053367389
-0.006079039
-0.0068562603
-0.0076665965
-0.0085077497
-0.0093771127
-0.010271634
-0.011187835
-0.012121763
-0.013068987
-0.014024566
-0.014983052
-0.015938468
-0.016884325
-0.017813611
-0.018718812
-0.019591935
-0.020424535
-0.021207753
-0.021932375
-0.022588879
-0.023167517
-0.023658386
-0.024051527
-0.024337004
-0.024505037
-0.024546078
-0.024450974
-0.02421103
-0.023818197
-0.023265108
-0.022545282
-0.021653118
-0.020584117
-0.019334792
-0.017902931
-0.016287391
-0.014488422
-0.012507313
-0.010346828
-0.0080106522
-0.0055040171
-0.0028328495
-4.7878864e-06
0.0029722035
0.0060885352
0.009333608
0.012694466
0.016159137
0.019713556
0.023343049
0.027031958
0.030766362
0.0345305
0.038310833
0.04209338
0.045865264
0.049615644
0.053336764
0.057021743
0.060665585
0.064265437
0.067821046
0.071334647
0.07480998
0.078255413
0.081679256
0.085097748
0.088523862
0.09198537
0.095498779
0.09910979
0.10283333
0.10674383
0.11083858
0.11523964
0.11988542
0.12498108
0.13031558
0.13624578
0.14224394
0.14893069
0.15523812
0.16211161
0.16792964
0.17346394
0.17770188
0.17901861
-0.00068710913
0.00053325146
5.749058e-05
0.00067325358
0.00056096163
0.00091288696
0.00094248379
0.0011686741
0.0012450525
0.0014009126
0.0014808353
0.0015872834
0.0016490164
0.0017120465
0.0017428509
0.0017619254
0.0017528802
0.0017245155
0.0016683387
0.0015877332
0.001477945
0.0013399041
0.0011705875
0.00096974699
0.00073527115
0.00046641656
0.00016160013
-0.00018009756
-0.00055988463
-0.00097848977
-0.0014365925
-0.0019346137
-0.0024726269
-0.0030506107
-0.0036685163
-0.0043259604
-0.0050223788
-0.0057567363
-0.0065277611
-0.007333818
-0.0081729671
-0.0090428838
-0.0099408587
-0.010863728
-0.011807867
-0.012769153
-0.013742943
-0.014724062
-0.015706771
-0.016684776
-0.017651208
-0.01859863
-0.01951905
-0.020403938
-0.021244246
-0.022030467
-0.022752666
-0.023400561
-0.023963582
-0.024430982
-0.02479191
-0.025035562
-0.025151265
-0.025128664
-0.024957799
-0.024629333
-0.024134603
-0.023465874
-0.022616337
-0.021580402
-0.020353592
-0.018932895
-0.017316508
-0.015504285
-0.013497284
-0.011298362
-0.0089114704
-0.0063424555
-0.0035980934
-0.00068691829
0.0023817382
0.0055957546
0.0089443017
0.012414207
0.015990325
0.019656529
0.023398308
0.027198127
0.031039924
0.034907008
0.038783499
0.042655613
0.046514212
0.050346434
0.05414343
0.057896786
0.061603133
0.065259977
0.068866647
0.07242561
0.075941429
0.079422093
0.082876686
0.086320861
0.089768074
0.093244266
0.096766201
0.10037469
0.10408487
0.10796011
0.11199952
0.11630221
0.1208167
0.12570239
0.13078602
0.13633288
0.14192639
0.14800168
0.15375981
0.15979458
0.16499413
0.16964076
0.17329011
0.17424628
-0.00071997104
0.0005511607
4.8276196e-05
0.00068938164
0.00056924734
0.00093464788
0.00096504797
0.0012000535
0.0012809925
0.0014442017
0.0015303535
0.0016439207
0.0017127854
0.001783303
0.0018219917
0.0018492365
0.0018488855
0.0018295598
0.0017829725
0.0017123527
0.0016130162
0.0014857315
0.0013275418
0.0011381096
0.0009153437
0.00065847045
0.00036593004
3.6873903e-05
-0.00032979652
-0.00073487963
-0.0011792325
-0.0016635178
-0.0021882556
-0.0027536885
-0.0033598752
-0.0040065203
-0.0046931728
-0.0054191554
-0.0061835071
-0.0069849692
-0.0078219124
-0.008692348
-0.009593898
-0.01052373
-0.011478557
-0.012454584
-0.013447482
-0.014452362
-0.015463741
-0.016475534
-0.017481019
-0.018472845
-0.019443014
-0.020382904
-0.021283266
-0.022134277
-0.02292556
-0.023646266
-0.024285123
-0.024830554
-0.025270749
-0.025593843
-0.025787989
-0.025841593
-0.025743387
-0.025482714
-0.025049571
-0.024434938
-0.023630755
-0.022630313
-0.021428098
-0.020020268
-0.018404315
-0.016579668
-0.014547102
-0.012309547
-0.009871147
-0.0072384192
-0.0044186388
-0.0014220783
0.0017413306
0.0050596142
0.0085180637
0.012100179
0.015791837
0.019575007
0.023433322
0.027348335
0.031304058
0.035282284
0.039269723
0.043247696
0.047202082
0.051121481
0.055000001
0.058831237
0.062609319
0.066330805
0.069997063
0.073610319
0.077174887
0.080699128
0.084192033
0.087668288
0.091141158
0.094633824
0.0981621
0.10176101
0.10544408
0.10926336
0.11321744
0.11738416
0.12171848
0.1263401
0.1311047
0.13620211
0.14130185
0.14669605
0.15179008
0.1569355
0.16139277
0.16518165
0.16821844
0.16901326
-0.00074074589
0.00056727519
4.6323684e-05
0.00070845314
0.00058409814
0.00096210808
0.00099484243
0.0012387946
0.0013250126
0.001495936
0.0015888287
0.0017100505
0.0017865943
0.001865204
0.0019123359
0.0019483178
0.0019571426
0.0019472993
0.0019106598
0.0018503566
0.001761855
0.0016458607
0.0014994885
0.0013223356
0.0011123257
0.00086858401
0.00058948475
0.00027400241
-7.9152421e-05
-0.000470909
-0.00090219135
-0.0013737304
-0.0018860675
-0.0024396302
-0.0030347152
-0.0036713919
-0.0043495355
-0.0050687213
-0.0058282768
-0.0066272194
-0.0074642646
-0.0083377496
-0.0092456544
-0.010185492
-0.011154327
-0.012148696
-0.01316459
-0.014197404
-0.015241904
-0.016292197
-0.017341697
-0.018383105
-0.019408391
-0.020408797
-0.021374827
-0.022296287
-0.023162302
-0.023961389
-0.024681506
-0.025310181
-0.02583458
-0.026241707
-0.026518484
-0.026652023
-0.0266297
-0.026439498
-0.02607004
-0.025511001
-0.024753056
-0.023788373
-0.022610402
-0.021214495
-0.019597448
-0.017758311
-0.015697599
-0.013418384
-0.010925054
-0.0082247905
-0.0053260431
-0.0022388766
0.0010248928
0.0044496043
0.0080210627
0.011721847
0.015535043
0.01944077
0.023421567
0.027456696
0.031528785
0.035618291
0.039709787
0.043787559
0.047839946
0.051852835
0.055814429
0.059715844
0.063556855
0.067336096
0.071051717
0.074706327
0.078306153
0.081858095
0.085371991
0.088861909
0.092340908
0.09583062
0.099346319
0.10291899
0.10656155
0.1103176
0.11418647
0.11822981
0.12240968
0.12681562
0.13132948
0.13608474
0.14082209
0.14572962
0.15036726
0.15491569
0.15888741
0.16212119
0.1647412
0.16534824
-0.00075175798
0.00058083589
4.9559093e-05
0.00072794197
0.00060214283
0.00099117903
0.0010273721
0.0012800384
0.0013722219
0.0015511872
0.0016513951
0.001780758
0.0018655084
0.0019527508
0.0020088749
0.0020541966
0.0020728223
0.0020731431
0.0020471463
0.00199786
0.001920809
0.0018166062
0.0016824005
0.0015177236
0.0013205058
0.0010898312
0.00082406569
0.00052216061
0.00018279455
-0.0001950764
-0.00061253721
-0.0010705302
-0.0015698618
-0.0021111878
-0.0026949945
-0.0033215584
-0.0039909823
-0.0047031586
-0.0054577339
-0.0062540828
-0.0070912684
-0.007967991
-0.0088825964
-0.0098329633
-0.010816524
-0.011830166
-0.012870216
-0.013932375
-0.015011671
-0.016102422
-0.017198183
-0.018291719
-0.019374969
-0.020439034
-0.021474163
-0.022469778
-0.02341448
-0.024296128
-0.025101878
-0.025818322
-0.026431557
-0.026927411
-0.027291519
-0.027509647
-0.027567751
-0.027452394
-0.027150759
-0.026651152
-0.02594291
-0.02501702
-0.023865823
-0.02248381
-0.020867012
-0.019014063
-0.016925157
-0.014603479
-0.012053604
-0.009283534
-0.0063015255
-0.0031203441
0.00024752945
0.0037850151
0.007476463
0.011301683
0.015243094
0.019278451
0.023389067
0.02755227
0.031750118
0.035961055
0.040169541
0.044356359
0.048508815
0.05261383
0.056664636
0.060651376
0.064565976
0.068405285
0.072175142
0.075877612
0.079516066
0.083099447
0.086636909
0.090141346
0.093625907
0.097109466
0.10060648
0.10414324
0.10773118
0.11140561
0.11516528
0.11905733
0.12304856
0.12720319
0.13142339
0.13579821
0.14012398
0.14451321
0.14864409
0.15258845
0.15604265
0.15876708
0.16100525
0.16154039
-0.00075461495
0.00059299718
5.8762786e-05
0.00074978068
0.00062580962
0.0010248753
0.0010660592
0.0013274158
0.0014263852
0.0016136969
0.0017217962
0.0018597515
0.0019532369
0.0020496229
0.0021152536
0.002170425
0.0021993366
0.0022103012
0.0021954098
0.002157624
0.0020925484
0.0020007372
0.0018793713
0.0017279164
0.0015442862
0.0013274711
0.0010757637
0.00078798331
0.00046268179
9.8690017e-05
-0.00030518967
-0.00075002755
-0.0012367673
-0.0017662756
-0.0023392797
-0.0029563589
-0.0036179162
-0.0043241454
-0.0050750147
-0.0058702289
-0.0067092139
-0.0075910356
-0.0085144235
-0.0094776368
-0.010478489
-0.011514232
-0.012581541
-0.013676428
-0.014794189
-0.015929353
-0.017075615
-0.018225794
-0.019371782
-0.020504526
-0.021613987
-0.022689173
-0.023718121
-0.024687987
-0.025585068
-0.026394968
-0.027102646
-0.027692692
-0.028149381
-0.028457061
-0.028600194
-0.028563858
-0.028333718
-0.027896661
-0.027240614
-0.026355348
-0.025232039
-0.023864306
-0.022247376
-0.020379487
-0.018260468
-0.015893709
-0.013283843
-0.010439881
-0.0073705656
-0.0040901478
-0.00061284509
0.003043032
0.0068604405
0.010817154
0.014893793
0.019065634
0.023312711
0.027609748
0.031937749
0.036273104
0.040599555
0.044897274
0.049153814
0.053353612
0.057488077
0.061548088
0.065532932
0.069435752
0.073254023
0.076992159
0.080661147
0.084264784
0.087813673
0.091320824
0.094798091
0.098263753
0.10173119
0.10522371
0.10875194
0.11234505
0.11600218
0.11975954
0.12358899
0.12753582
0.13151989
0.13559754
0.13960942
0.14361354
0.14737458
0.15088826
0.15397193
0.15633404
0.15828061
0.15870731
-0.00075106441
0.00060334689
7.2191853e-05
0.00077225768
0.00065271891
0.0010605183
0.0011079003
0.0013777125
0.0014841944
0.0016800921
0.0017966625
0.0019436389
0.0020463983
0.0021524382
0.0022281246
0.0022937085
0.0023334866
0.0023556912
0.0023524968
0.0023267872
0.0022742131
0.0021952613
0.0020871291
0.0019492242
0.0017794492
0.0015767386
0.0013393462
0.0010660211
0.00075523236
0.00040567905
1.6004924e-05
-0.00041505569
-0.00088866602
-0.0014059205
-0.0019677754
-0.0025750661
-0.0032284725
-0.0039285121
-0.0046754934
-0.00546949
-0.0063103071
-0.0071974048
-0.0081299146
-0.0091065004
-0.010125379
-0.011184193
-0.012279988
-0.013409113
-0.014567159
-0.015748888
-0.016948156
-0.018157853
-0.019369839
-0.020574912
-0.021762749
-0.022921936
-0.024039933
-0.025103168
-0.026097046
-0.027006136
-0.027814208
-0.028504544
-0.029059983
-0.029463374
-0.029697585
-0.029746115
-0.029593002
-0.029223612
-0.02862435
-0.027783681
-0.026691502
-0.025340493
-0.023724974
-0.021842746
-0.019693225
-0.017279887
-0.014607881
-0.01168566
-0.0085250316
-0.0051404667
-0.0015470369
0.0022346511
0.006186271
0.010282733
0.014503561
0.018821034
0.023214107
0.027654628
0.032122918
0.036592651
0.041047211
0.04546411
0.049830911
0.054131098
0.05835742
0.062499014
0.066552551
0.070514798
0.074390077
0.078173651
0.081871422
0.08549576
0.089056217
0.092563036
0.096030164
0.099472321
0.10290289
0.10634147
0.10979755
0.1132946
0.11683137
0.12043469
0.12408004
0.12779746
0.1315209
0.13528223
0.13895721
0.14256698
0.14594289
0.14903725
0.15175512
0.15379655
0.15549316
0.1558798
-0.00074205638
0.00061281674
9.0327179e-05
0.00079675301
0.00068438965
0.0011000786
0.001155067
0.0014332897
0.0015481084
0.0017528667
0.0018785047
0.002034915
0.0021474759
0.0022636448
0.0023498977
0.0024263937
0.0024775465
0.0025115045
0.0025205311
0.0025074455
0.0024679503
0.0024024743
0.0023082252
0.0021845451
0.0020293047
0.001841351
0.0016188622
0.0013604719
0.0010645345
0.00072961695
0.00035422463
-6.3069686e-05
-0.00052361182
-0.0010287227
-0.001579611
-0.0021774053
-0.0028230934
-0.0035175221
-0.00426135
-0.0050550204
-0.0058987317
-0.0067923499
-0.0077354272
-0.0087270514
-0.0097658632
-0.010849917
-0.011976651
-0.013142771
-0.01434418
-0.015575893
-0.016831938
-0.01810529
-0.01938778
-0.020670058
-0.02194151
-0.023190284
-0.024403236
-0.025566033
-0.026663138
-0.027678031
-0.028593217
-0.029390596
-0.030051474
-0.030557106
-0.030888657
-0.031027942
-0.030957256
-0.030660346
-0.030121983
-0.029329247
-0.028270659
-0.026937917
-0.025324347
-0.023427332
-0.021245736
-0.018783407
-0.016044938
-0.013041719
-0.0097837872
-0.006288871
-0.0025722876
0.0013427148
0.0054366891
0.0096815073
0.014055347
0.018527058
0.023074525
0.027666093
0.032281394
0.036891019
0.041478161
0.04601806
0.050498553
0.054900926
0.059218155
0.063438633
0.067561165
0.071580193
0.075497879
0.079318961
0.083046946
0.086684984
0.090246697
0.093746931
0.097194616
0.10060645
0.10399396
0.10737491
0.1107582
0.11416296
0.11758844
0.12105436
0.12453995
0.12806404
0.1315724
0.13507923
0.13848739
0.14179188
0.14487164
0.14764969
0.15008705
0.15188212
0.15337277
0.15369198
-0.00072869928
0.00062114361
0.00011187299
0.00082211295
0.00071915194
0.0011417772
0.0012055227
0.0014919962
0.0016158736
0.0018297131
0.001964992
0.0021312326
0.0022541276
0.0023809072
0.002478262
0.0025661996
0.002629278
0.0026755419
0.002697342
0.0026974224
0.0026715273
0.0026200249
0.0025401293
0.0024311243
0.002290856
0.0021181039
0.0019109872
0.0016680472
0.0013875339
0.0010678736
0.00070741001
0.00030452356
-0.00014234545
-0.00063475416
-0.0011741647
-0.0017619887
-0.0023995221
-0.0030879548
-0.0038283122
-0.0046214327
-0.0054679285
-0.0063680984
-0.00732194
-0.0083289939
-0.0093883541
-0.01049852
-0.011657353
-0.012861956
-0.014108577
-0.01539252
-0.01670802
-0.018048168
-0.019404794
-0.020768421
-0.022128155
-0.023471714
-0.02478534
-0.026053917
-0.027260932
-0.028388724
-0.02941846
-0.030330576
-0.031104735
-0.03172049
-0.032157159
-0.032394747
-0.032413642
-0.032195842
-0.031724315
-0.030984643
-0.029963807
-0.028652443
-0.027042739
-0.025131621
-0.02291731
-0.02040393
-0.017595874
-0.014506728
-0.011146233
-0.0075338576
-0.0036858502
0.00037166923
0.0046181714
0.0090218761
0.013559963
0.018197185
0.022910648
0.027664542
0.032438153
0.037198202
0.041927994
0.046599481
0.051201129
0.055712074
0.060126402
0.064430833
0.068624648
0.072702316
0.076668493
0.08052255
0.08427394
0.087929668
0.091494673
0.094980677
0.098406154
0.10178093
0.10511828
0.10843305
0.11173332
0.1150348
0.11833642
0.12165238
0.12496469
0.12828367
0.13156478
0.13480989
0.1379437
0.14094528
0.14373048
0.14620931
0.14838265
0.14996433
0.15128375
0.15157674
-0.00071148846
0.00062898762
0.00013714212
0.00084927829
0.00075795067
0.0011868879
0.0012606297
0.001555346
0.0016890624
0.0019122508
0.0020577597
0.0022342254
0.0023679788
0.0025058286
0.0026147984
0.0027146761
0.0027902047
0.0028493064
0.0028844329
0.0028982522
0.0028865541
0.0028496454
0.0027847417
0.0026910611
0.0025664108
0.0024094859
0.0022183279
0.0019913669
0.0017267371
0.0014227251
0.0010775204
0.0006893231
0.00025636866
-0.00022313935
-0.00075092947
-0.0013287148
-0.0019581163
-0.0026406785
-0.0033778068
-0.0041707458
-0.0050205386
-0.0059279356
-0.0068934031
-0.0079169599
-0.0089981821
-0.010136044
-0.011328866
-0.012574176
-0.013868607
-0.015207782
-0.016586178
-0.017997031
-0.019432194
-0.020882083
-0.022335535
-0.023779835
-0.025200597
-0.026581901