/*--------------------------------*- C++ -*----------------------------------*\
| =========                 |                                                 |
| \\      /  F ield         | foam-extend: Open Source CFD                    |
|  \\    /   O peration     | Version:     4.1                                |
|   \\  /    A nd           | Web:         http://www.foam-extend.org         |
|    \\/     M anipulation  |                                                 |
\*---------------------------------------------------------------------------*/
FoamFile
{
    version     2.0;
    format      ascii;
    class       surfaceScalarField;
    location    "1.4";
    object      phi;
}
// * * * * * * * * * * * * * * * * * * * * * * * * * * * * * * * * * * * * * //

dimensions      [0 3 -1 0 0 0 0];

internalField   nonuniform List<scalar> 
31929
(
-4.1924083e-05
1.2315378e-08
-4.1917296e-05
-6.7871182e-09
-4.1914898e-05
-2.3975478e-09
-4.1905826e-05
-9.0721255e-09
-4.1894987e-05
-1.0839029e-08
-4.1881046e-05
-1.3941171e-08
-4.1863817e-05
-1.7228781e-08
-4.1844313e-05
-1.9503569e-08
-4.1821337e-05
-2.2976505e-08
-4.1796041e-05
-2.5296161e-08
-4.1767372e-05
-2.8669166e-08
-4.1736152e-05
-3.1219465e-08
-4.1701664e-05
-3.4488202e-08
-4.1664411e-05
-3.7252533e-08
-4.1623956e-05
-4.0454952e-08
-4.1580595e-05
-4.3361518e-08
-4.1534089e-05
-4.6506106e-08
-4.1484627e-05
-4.9461611e-08
-4.1432118e-05
-5.2509213e-08
-4.1376721e-05
-5.5397323e-08
-4.1318465e-05
-5.8255523e-08
-4.1257541e-05
-6.0923803e-08
-4.1194097e-05
-6.3444344e-08
-4.1128393e-05
-6.5703872e-08
-4.1060702e-05
-6.7691065e-08
-4.0991393e-05
-6.9309233e-08
-4.0920883e-05
-7.0510025e-08
-4.0849721e-05
-7.1162003e-08
-4.0778574e-05
-7.1146297e-08
-4.0708201e-05
-7.0373365e-08
-4.063945e-05
-6.8750859e-08
-4.0573284e-05
-6.6165964e-08
-4.0510811e-05
-6.2473397e-08
-4.0453024e-05
-5.7786284e-08
-4.0400763e-05
-5.2261869e-08
-4.035588e-05
-4.4882764e-08
-4.032037e-05
-3.550999e-08
-4.0295457e-05
-2.4912264e-08
-4.028305e-05
-1.2407472e-08
-4.0287006e-05
3.9558093e-09
-4.0308532e-05
2.1525757e-08
-4.0346844e-05
3.8312617e-08
-4.040299e-05
5.6145819e-08
-4.0478114e-05
7.5124213e-08
-4.0573519e-05
9.5405028e-08
-4.0690426e-05
1.1690657e-07
-4.0829979e-05
1.3955298e-07
-4.09932e-05
1.6322151e-07
-4.1180973e-05
1.877733e-07
-4.1394015e-05
2.1304179e-07
-4.1632853e-05
2.3883797e-07
-4.18978e-05
2.6494691e-07
-4.218893e-05
2.9112952e-07
-4.2506051e-05
3.1712161e-07
-4.2848685e-05
3.4263412e-07
-4.3216041e-05
3.6735533e-07
-4.3606993e-05
3.9095212e-07
-4.4020066e-05
4.1307324e-07
-4.445342e-05
4.3335411e-07
-4.4904843e-05
4.5142315e-07
-4.5371751e-05
4.6690824e-07
-4.58512e-05
4.7944859e-07
-4.6339905e-05
4.8870469e-07
-4.6834277e-05
4.9437218e-07
-4.7330472e-05
4.9619571e-07
-4.7824457e-05
4.9398443e-07
-4.8312084e-05
4.876271e-07
-4.8789188e-05
4.7710447e-07
-4.9251692e-05
4.6250377e-07
-4.9695719e-05
4.4402672e-07
-5.0117714e-05
4.2199556e-07
-5.051457e-05
3.9685527e-07
-5.088374e-05
3.6917041e-07
-5.1223357e-05
3.3961662e-07
-5.1532325e-05
3.0896892e-07
-5.1810409e-05
2.7808388e-07
-5.2058285e-05
2.4787613e-07
-5.2277578e-05
2.1929309e-07
-5.2470859e-05
1.9328105e-07
-5.2641609e-05
1.7074981e-07
-5.2794134e-05
1.5252484e-07
-5.2933425e-05
1.392912e-07
-5.3064938e-05
1.315126e-07
-5.3194298e-05
1.2936021e-07
-5.3326968e-05
1.3267017e-07
-5.3467976e-05
1.410077e-07
-5.3621759e-05
1.5378317e-07
-5.3792162e-05
1.7040269e-07
-5.3982562e-05
1.9040065e-07
-5.4196142e-05
2.1357976e-07
-5.4436182e-05
2.4004036e-07
-5.4706348e-05
2.7016621e-07
-5.5010865e-05
3.0451699e-07
-5.5354642e-05
3.4377657e-07
-5.5743288e-05
3.8864586e-07
-5.6183175e-05
4.3988756e-07
-5.668143e-05
4.9825467e-07
-5.724609e-05
5.6465956e-07
-5.7886166e-05
6.4007606e-07
-5.8612064e-05
7.2589837e-07
-5.9435802e-05
8.2373805e-07
-6.0371969e-05
9.3616739e-07
-6.1438239e-05
1.0662698e-06
-6.2657437e-05
1.2191976e-06
-6.4058555e-05
1.4011186e-06
-6.5680989e-05
1.6224338e-06
-6.7576168e-05
1.8951796e-06
-6.981565e-05
2.2394818e-06
-7.2492587e-05
2.6769366e-06
-7.5735901e-05
3.2433146e-06
-7.970775e-05
3.9718489e-06
-8.4626218e-05
4.9184674e-06
-9.0747722e-05
6.1215039e-06
-9.8402277e-05
7.6545551e-06
-0.00010793666
9.534382e-06
-0.0001197778
1.1841145e-05
-0.00013428901
1.4511202e-05
-0.00015192291
1.7633899e-05
-0.00017286417
2.0941264e-05
-0.0001975109
2.4646729e-05
-0.00022529461
2.7783713e-05
-0.00025683694
3.1542325e-05
-0.00028729923
3.0462289e-05
3.5281374e-05
-0.00012122231
2.4200022e-08
-0.0001212161
-1.2996121e-08
-0.00012121079
-7.7128867e-09
-0.00012119672
-2.3143564e-08
-0.00012117911
-2.8447779e-08
-0.00012115576
-3.7292895e-08
-0.0001211277
-4.5284899e-08
-0.00012109481
-5.2392341e-08
-0.00012105697
-6.0820215e-08
-0.00012101447
-6.779003e-08
-0.00012096701
-7.6128786e-08
-0.00012091489
-8.3340114e-08
-0.00012085786
-9.1518481e-08
-0.00012079615
-9.8961145e-08
-0.00012072964
-1.0697109e-07
-0.00012065851
-1.1448953e-07
-0.00012058277
-1.2224622e-07
-0.00012050264
-1.2959526e-07
-0.00012041825
-1.3689607e-07
-0.00012032991
-1.4373334e-07
-0.00012023794
-1.5022785e-07
-0.00012014279
-1.5607542e-07
-0.00012004498
-1.6125529e-07
-0.00011994517
-1.6550667e-07
-0.00011984416
-1.6870251e-07
-0.00011974289
-1.7057788e-07
-0.00011964247
-1.7093051e-07
-0.00011954418
-1.6946108e-07
-0.00011944943
-1.6589225e-07
-0.00011935984
-1.5996094e-07
-0.00011927719
-1.5140283e-07
-0.00011920362
-1.397394e-07
-0.00011914202
-1.2406594e-07
-0.0001190958
-1.0401303e-07
-0.00011906837
-7.9693616e-08
-0.00011906304
-5.020859e-08
-0.00011908434
-1.4205627e-08
-0.00011913556
2.6302962e-08
-0.00011921641
6.8439419e-08
-0.00011932625
1.138032e-07
-0.00011946805
1.6332653e-07
-0.00011964612
2.1637538e-07
-0.0001198632
2.7323115e-07
-0.00012012194
3.3386632e-07
-0.0001204247
3.981573e-07
-0.00012077363
4.6583684e-07
-0.00012117064
5.3656882e-07
-0.00012161735
6.0993251e-07
-0.00012211502
6.8543956e-07
-0.00012266451
7.6252804e-07
-0.00012326624
8.4056753e-07
-0.00012392014
9.1885635e-07
-0.00012462564
9.9662491e-07
-0.00012538156
1.0730373e-06
-0.00012618611
1.1471916e-06
-0.00012703689
1.218128e-06
-0.00012793077
1.2848337e-06
-0.00012886395
1.3462535e-06
-0.0001298319
1.4013037e-06
-0.00013082937
1.4488926e-06
-0.0001318504
1.4879399e-06
-0.00013288836
1.5174122e-06
-0.00013393601
1.5363551e-06
-0.00013498557
1.5439351e-06
-0.00013602886
1.5394835e-06
-0.00013705742
1.5225434e-06
-0.00013806271
1.492918e-06
-0.00013903632
1.4507078e-06
-0.00013997017
1.3963543e-06
-0.0001408568
1.3306638e-06
-0.00014168963
1.2548237e-06
-0.00014246318
1.1704055e-06
-0.00014317336
1.0793534e-06
-0.0001438177
9.83954e-07
-0.00014439553
8.8679741e-07
-0.00014490817
7.907208e-07
-0.00014535903
6.9873505e-07
-0.00014575367
6.1394225e-07
-0.00014609982
5.3942626e-07
-0.0001464072
4.7812574e-07
-0.00014668734
4.3266903e-07
-0.00014695324
4.0518763e-07
-0.00014721882
3.9709822e-07
-0.00014749841
4.0894539e-07
-0.00014780607
4.4033741e-07
-0.00014815518
4.901132e-07
-0.00014855806
5.5665959e-07
-0.000149026
6.3834934e-07
-0.0001495695
7.3389938e-07
-0.00015019857
8.4265061e-07
-0.00015092316
9.6462697e-07
-0.00015175351
1.1005211e-06
-0.00015270054
1.2515394e-06
-0.00015377608
1.4193175e-06
-0.00015499318
1.6057451e-06
-0.0001563663
1.8130073e-06
-0.00015791151
2.0434684e-06
-0.00015964675
2.2999036e-06
-0.00016159205
2.585374e-06
-0.00016376988
2.9037262e-06
-0.00016620548
3.2593353e-06
-0.00016892738
3.6580671e-06
-0.00017196775
4.1066479e-06
-0.00017536312
4.614563e-06
-0.00017915449
5.1924921e-06
-0.00018338812
5.8560617e-06
-0.00018811499
6.6220486e-06
-0.00019339123
7.5157258e-06
-0.00019927594
8.5616434e-06
-0.00020583072
9.7980907e-06
-0.00021311391
1.1255045e-05
-0.0002211788
1.2983353e-05
-0.00023006103
1.5003733e-05
-0.0002397758
1.7369326e-05
-0.00025029229
2.0050869e-05
-0.00026153399
2.3082854e-05
-0.00027332393
2.6301135e-05
-0.00028540732
2.9717294e-05
-0.00029731671
3.2850652e-05
-0.00030849463
3.5824651e-05
-0.00031794515
3.7234227e-05
-0.00032461319
3.8210366e-05
-0.00032737764
3.322674e-05
3.0484337e-05
-0.00018940034
3.8918677e-08
-0.00018939898
-1.435633e-08
-0.00018939745
-9.2440736e-09
-0.00018938773
-3.2864999e-08
-0.00018937476
-4.1417303e-08
-0.00018935602
-5.6028399e-08
-0.00018933334
-6.7971913e-08
-0.00018930586
-7.9864526e-08
-0.00018927428
-9.2404812e-08
-0.00018923835
-1.0372009e-07
-0.00018919837
-1.161129e-07
-0.00018915433
-1.2737373e-07
-0.00018910644
-1.3940714e-07
-0.00018905483
-1.505703e-07
-0.00018899973
-1.6208009e-07
-0.00018894136
-1.7285173e-07
-0.00018888006
-1.8354783e-07
-0.0001888162
-1.9345595e-07
-0.00018875024
-2.028564e-07
-0.00018868273
-2.1124182e-07
-0.00018861433
-2.1863222e-07
-0.0001885458
-2.2460245e-07
-0.00018847805
-2.2900111e-07
-0.00018841214
-2.3142375e-07
-0.00018834925
-2.3158635e-07
-0.00018829077
-2.2905685e-07
-0.00018823827
-2.2343803e-07
-0.00018819363
-2.1409879e-07
-0.00018815915
-2.0037096e-07
-0.00018813738
-1.817359e-07
-0.00018813111
-1.5767049e-07
-0.00018814334
-1.2750522e-07
-0.0001881772
-9.0212437e-08
-0.00018823612
-4.5087009e-08
-0.000188324
8.185955e-09
-0.0001884412
6.6990813e-08
-0.00018858627
1.3086566e-07
-0.00018876163
2.016648e-07
-0.00018897212
2.7892045e-07
-0.0001892217
3.6338348e-07
-0.00018951378
4.5541303e-07
-0.00018985195
5.5454073e-07
-0.00019023908
6.6036095e-07
-0.00019067777
7.7256295e-07
-0.00019117037
8.9075582e-07
-0.00019171891
1.014378e-06
-0.0001923251
1.1427551e-06
-0.00019299024
1.2750747e-06
-0.00019371521
1.4104061e-06
-0.00019450038
1.5476952e-06
-0.00019534558
1.6857708e-06
-0.00019625006
1.823342e-06
-0.00019721244
1.9590033e-06
-0.00019823064
2.0912387e-06
-0.00019930187
2.2184216e-06
-0.00020042258
2.3388304e-06
-0.0002015884
2.450658e-06
-0.00020279418
2.5520325e-06
-0.00020403392
2.6410434e-06
-0.00020530081
2.7157835e-06
-0.00020658726
2.7743854e-06
-0.00020788493
2.8150911e-06
-0.00020918489
2.8363136e-06
-0.00021047767
2.8367162e-06
-0.00021175349
2.8152948e-06
-0.0002130024
2.7714627e-06
-0.00021421462
2.7051371e-06
-0.00021538072
2.6168023e-06
-0.00021649194
2.5075803e-06
-0.00021754055
2.3792664e-06
-0.00021852007
2.2343459e-06
-0.00021942565
2.0759869e-06
-0.0002202543
1.9080045e-06
-0.00022100514
1.7347889e-06
-0.00022167955
1.5612163e-06
-0.00022228136
1.3925242e-06
-0.00022281678
1.2341557e-06
-0.00022329442
1.0915872e-06
-0.00022372511
9.7011613e-07
-0.00022412162
8.746327e-07
-0.00022449831
8.0935506e-07
-0.00022487069
7.7756648e-07
-0.00022525493
7.8134665e-07
-0.00022566742
8.2142732e-07
-0.00022612425
8.9717361e-07
-0.00022664099
1.0068484e-06
-0.00022723235
1.1480266e-06
-0.00022791216
1.318153e-06
-0.00022869326
1.5150013e-06
-0.00022958767
1.737066e-06
-0.00023060675
1.9837015e-06
-0.00023176139
2.2551645e-06
-0.00023306232
2.5524685e-06
-0.00023452029
2.8772832e-06
-0.00023614624
3.2317006e-06
-0.00023795147
3.6182315e-06
-0.00023994763
4.0396287e-06
-0.00024214681
4.4990853e-06
-0.0002445615
5.0000631e-06
-0.00024720453
5.54676e-06
-0.00025008902
6.1438244e-06
-0.0002532282
6.7972464e-06
-0.00025663524
7.5136866e-06
-0.00026032289
8.3022119e-06
-0.00026430303
9.1726391e-06
-0.00026858588
1.0138906e-05
-0.00027317897
1.1215141e-05
-0.00027808542
1.2422174e-05
-0.00028330198
1.3778205e-05
-0.00028881556
1.5311674e-05
-0.00029459996
1.703944e-05
-0.00030060979
1.8993188e-05
-0.00030677598
2.1169923e-05
-0.00031299691
2.3590251e-05
-0.00031913348
2.618744e-05
-0.0003249993
2.8948674e-05
-0.00033035586
3.1657699e-05
-0.00033490875
3.4270179e-05
-0.00033829913
3.6241036e-05
-0.00034012052
3.7646036e-05
-0.00033993982
3.705353e-05
-0.00033718494
3.5455483e-05
-0.00033227446
2.8316265e-05
2.0790677e-05
-0.00024280976
6.205289e-08
-0.00024282037
-3.7396615e-09
-0.00024283093
1.3096349e-09
-0.00024283577
-2.8019576e-08
-0.00024283934
-3.7854871e-08
-0.00024283909
-5.627061e-08
-0.00024283686
-7.0210516e-08
-0.00024283166
-8.5055318e-08
-0.00024282448
-9.9586846e-08
-0.000242815
-1.132023e-07
-0.00024280383
-1.2727889e-07
-0.00024279102
-1.4018561e-07
-0.00024277706
-1.533728e-07
-0.00024276218
-1.6545154e-07
-0.00024274687
-1.7738382e-07
-0.00024273156
-1.8816781e-07
-0.00024271681
-1.9829847e-07
-0.00024270321
-2.07055e-07
-0.00024269148
-2.1458185e-07
-0.00024268242
-2.2030407e-07
-0.00024267696
-2.2408975e-07
-0.00024267617
-2.2539834e-07
-0.00024268123
-2.2393662e-07
-0.0002426935
-2.1915376e-07
-0.0002427145
-2.1058909e-07
-0.00024274593
-1.9762409e-07
-0.0002427897
-1.7967233e-07
-0.00024284779
-1.5600611e-07
-0.00024292234
-1.25815e-07
-0.00024301577
-8.8305954e-08
-0.00024313061
-4.2833703e-08
-0.00024326915
1.1031297e-08
-0.00024343169
7.232824e-08
-0.00024361804
1.4126546e-07
-0.00024382898
2.1912769e-07
-0.00024406805
3.0605788e-07
-0.00024433965
4.0247145e-07
-0.00024464699
5.0899754e-07
-0.00024499393
6.2586735e-07
-0.00024538356
7.5300471e-07
-0.00024581829
8.9014991e-07
-0.00024630055
1.0368032e-06
-0.00024683272
1.1925238e-06
-0.0002474169
1.3567474e-06
-0.00024805495
1.5288003e-06
-0.00024874839
1.7078217e-06
-0.00024949843
1.8927943e-06
-0.00025030588
2.082526e-06
-0.00025117113
2.2756581e-06
-0.0002520941
2.4706631e-06
-0.00025307418
2.6658465e-06
-0.00025411018
2.8593438e-06
-0.0002552003
3.0491228e-06
-0.00025634205
3.2329915e-06
-0.00025753222
3.4085944e-06
-0.00025876683
3.5734384e-06
-0.00026004108
3.7249087e-06
-0.00026134935
3.8603041e-06
-0.00026268519
3.976882e-06
-0.00026404134
4.0719285e-06
-0.00026540977
4.1428198e-06
-0.00026678181
4.1871329e-06
-0.00026814824
4.2027434e-06
-0.00026949947
4.1879456e-06
-0.00027082575
4.1415727e-06
-0.0002721174
4.0631163e-06
-0.00027336511
3.9528425e-06
-0.00027456017
3.8118681e-06
-0.00027569484
3.642242e-06
-0.00027676254
3.4469721e-06
-0.00027775822
3.2300218e-06
-0.0002786785
2.9962687e-06
-0.00027952192
2.7514242e-06
-0.00028028903
2.5019012e-06
-0.00028098248
2.2546623e-06
-0.00028160698
2.0170238e-06
-0.00028216925
1.7964251e-06
-0.00028267785
1.6001867e-06
-0.00028314296
1.4352329e-06
-0.00028357614
1.3078119e-06
-0.00028398998
1.2231966e-06
-0.00028439783
1.1854137e-06
-0.00028481346
1.1969758e-06
-0.00028525079
1.2587616e-06
-0.00028572362
1.3700039e-06
-0.00028624535
1.5285774e-06
-0.00028682875
1.7314188e-06
-0.00028748573
1.9751336e-06
-0.00028822724
2.2565113e-06
-0.00028906317
2.5730036e-06
-0.00029000239
2.9229173e-06
-0.00029105274
3.3055119e-06
-0.00029222115
3.7208828e-06
-0.00029351374
4.169875e-06
-0.00029493587
4.6538318e-06
-0.00029649221
5.1745693e-06
-0.00029818674
5.7341545e-06
-0.0003000227
6.3350516e-06
-0.00030200256
6.9799158e-06
-0.00030412779
7.6719898e-06
-0.00030639878
8.4148145e-06
-0.00030881451
9.2129833e-06
-0.00031137233
1.0071509e-05
-0.0003140674
1.0997281e-05
-0.00031689227
1.1997507e-05
-0.00031983586
1.3082497e-05
-0.00032288272
1.4261999e-05
-0.00032601105
1.5550498e-05
-0.00032919146
1.6958622e-05
-0.00033238347
1.8503683e-05
-0.00033553391
2.0189883e-05
-0.00033857128
2.2030556e-05
-0.00034140527
2.4003912e-05
-0.00034391923
2.6104207e-05
-0.00034597477
2.8242984e-05
-0.00034740418
3.0378084e-05
-0.00034802823
3.228175e-05
-0.00034764985
3.3891795e-05
-0.00034610772
3.4698903e-05
-0.00034324687
3.4785193e-05
-0.00033915043
3.2957091e-05
-0.00033377589
3.0080942e-05
-0.00032844675
2.2987127e-05
1.4924523e-05
-0.00028104651
1.0020391e-07
-0.00028107794
2.768662e-08
-0.00028110916
3.2536027e-08
-0.00028113785
6.6649385e-10
-0.00028116744
-8.2608349e-09
-0.00028119607
-2.7648389e-08
-0.00028122527
-4.1001763e-08
-0.00028125429
-5.6035021e-08
-0.00028128415
-6.9729079e-08
-0.00028131467
-8.2687055e-08
-0.00028134659
-9.5355075e-08
-0.00028138006
-1.067201e-07
-0.00028141572
-1.1771323e-07
-0.00028145394
-1.272271e-07
-0.0002814954
-1.3592564e-07
-0.00028154065
-1.4291575e-07
-0.00028159045
-1.4850069e-07
-0.00028164553
-1.5197147e-07
-0.00028170679
-1.5332853e-07
-0.00028177513
-1.5195834e-07
-0.0002818516
-1.4761829e-07
-0.00028193731
-1.3968926e-07
-0.0002820335
-1.2774494e-07
-0.00028214152
-1.1113416e-07
-0.00028226284
-8.9272129e-08
-0.000282399
-6.1465539e-08
-0.00028255162
-2.704922e-08
-0.00028272201
1.4384999e-08
-0.00028291082
6.2993784e-08
-0.00028311866
1.1952933e-07
-0.00028334635
1.848637e-07
-0.0002835949
2.5958041e-07
-0.00028386688
3.443066e-07
-0.00028416523
4.3961068e-07
-0.00028449219
5.4608701e-07
-0.00028485077
6.6464608e-07
-0.00028524391
7.9560466e-07
-0.00028567368
9.3877162e-07
-0.00028614192
1.0941041e-06
-0.00028665048
1.2615627e-06
-0.00028720131
1.4409837e-06
-0.00028779634
1.6318291e-06
-0.00028843729
1.8334754e-06
-0.0002891257
2.0451576e-06
-0.00028986287
2.2659707e-06
-0.00029064985
2.4948074e-06
-0.00029148743
2.7303702e-06
-0.00029237606
2.9711518e-06
-0.00029331583
3.2154307e-06
-0.00029430643
3.4612684e-06
-0.00029534709
3.7065024e-06
-0.00029643649
3.94874e-06
-0.00029757272
4.1853562e-06
-0.00029875323
4.413504e-06
-0.00029997475
4.6301094e-06
-0.00030123322
4.8319105e-06
-0.0003025238
5.0154855e-06
-0.0003038408
5.1773085e-06
-0.00030517774
5.3138216e-06
-0.00030652735
5.4215402e-06
-0.00030788168
5.4971466e-06
-0.00030923219
5.5376449e-06
-0.00031056994
5.5404969e-06
-0.00031188578
5.5037784e-06
-0.00031317053
5.4263302e-06
-0.00031441532
5.3078991e-06
-0.00031561174
5.1492671e-06
-0.00031675219
4.952321e-06
-0.00031783008
4.7201241e-06
-0.00031884002
4.4569138e-06
-0.00031977806
4.1680603e-06
-0.00032064177
3.8599798e-06
-0.00032143035
3.5400035e-06
-0.00032214464
3.2161903e-06
-0.0003227871
2.897125e-06
-0.00032336175
2.5916755e-06
-0.00032387404
2.3087172e-06
-0.00032433071
2.056858e-06
-0.0003247396
1.8441247e-06
-0.00032510945
1.6776616e-06
-0.00032544967
1.5634094e-06
-0.00032577009
1.5058387e-06
-0.0003260808
1.5076886e-06
-0.00032639193
1.5698917e-06
-0.00032671351
1.691578e-06
-0.00032705532
1.8703844e-06
-0.00032742675
2.1028562e-06
-0.00032783667
2.3850495e-06
-0.00032829318
2.7130263e-06
-0.00032880354
3.0833559e-06
-0.00032937395
3.4933283e-06
-0.00033000954
3.9411094e-06
-0.00033071433
4.4256725e-06
-0.00033149122
4.9467598e-06
-0.00033234201
5.5046259e-06
-0.00033326746
6.1000156e-06
-0.00033426723
6.7339252e-06
-0.0003353399
7.4077231e-06
-0.00033648291
8.1229255e-06
-0.00033769244
8.8815213e-06
-0.00033896332
9.6856952e-06
-0.00034028878
1.0538439e-05
-0.00034166024
1.1442969e-05
-0.00034306686
1.24039e-05
-0.00034449517
1.342582e-05
-0.00034592817
1.4515492e-05
-0.00034734474
1.5678569e-05
-0.000348718
1.6923767e-05
-0.00035001467
1.8255282e-05
-0.00035119229
1.9681303e-05
-0.00035219924
2.1196836e-05
-0.00035297106
2.280238e-05
-0.0003534331
2.4465951e-05
-0.00035349664
2.6167743e-05
-0.00035306867
2.781502e-05
-0.00035204816
2.9357571e-05
-0.00035035085
3.0584445e-05
-0.00034789881
3.1439754e-05
-0.00034468261
3.1482698e-05
-0.00034069504
3.0797622e-05
-0.00033616109
2.8423148e-05
-0.0003311209
2.5040746e-05
-0.0003266472
1.8513431e-05
1.0857921e-05
-0.00030614066
1.5704042e-07
-0.00030619878
8.5802259e-08
-0.00030625793
9.1691345e-08
-0.00030631736
6.0094375e-08
-0.00030637832
5.2701982e-08
-0.00030644057
3.4603879e-08
-0.00030650563
2.4056023e-08
-0.00030657322
1.1548766e-08
-0.00030664444
1.4927848e-09
-0.00030671933
-7.7955026e-09
-0.00030679868
-1.6008459e-08
-0.00030688269
-2.2704977e-08
-0.00030697209
-2.8315599e-08
-0.00030706732
-3.1996394e-08
-0.00030716912
-3.4123737e-08
-0.00030727812
-3.3915677e-08
-0.00030739512
-3.1498865e-08
-0.0003075209
-2.6192382e-08
-0.00030765635
-1.7886143e-08
-0.00030780236
-5.9480889e-09
-0.00030795982
9.8499446e-09
-0.00030812958
3.0065525e-08
-0.00030831251
5.5186503e-08
-0.0003085095
8.5857507e-08
-0.00030872142
1.2264569e-07
-0.00030894911
1.6622662e-07
-0.00030919339
2.1722769e-07
-0.00030945534
2.7633323e-07
-0.0003097366
3.4425479e-07
-0.0003100388
4.217365e-07
-0.00031036339
5.0944592e-07
-0.00031071197
6.0816298e-07
-0.00031108652
7.188574e-07
-0.00031148902
8.4210846e-07
-0.00031192112
9.7818669e-07
-0.000312384
1.1275291e-06
-0.00031287882
1.2904228e-06
-0.0003134071
1.46705e-06
-0.00031397045
1.6574588e-06
-0.00031457033
1.8614459e-06
-0.00031520803
2.0786796e-06
-0.00031588475
2.3085528e-06
-0.00031660166
2.5503839e-06
-0.00031735978
2.8032784e-06
-0.00031815999
3.0661785e-06
-0.00031900298
3.3377985e-06
-0.00031988924
3.6166281e-06
-0.000320819
3.9009095e-06
-0.00032179218
4.1886176e-06
-0.00032280837
4.4774529e-06
-0.00032386669
4.7648238e-06
-0.00032496579
5.047835e-06
-0.00032610371
5.3232817e-06
-0.00032727787
5.5876641e-06
-0.00032848495
5.8371848e-06
-0.00032972084
6.0678061e-06
-0.00033098065
6.275297e-06
-0.00033225866
6.4553173e-06
-0.00033354836
6.6035225e-06
-0.00033484253
6.7157105e-06
-0.00033613334
6.7879494e-06
-0.00033741247
6.8167782e-06
-0.00033867135
6.7993742e-06
-0.00033990131
6.7337391e-06
-0.00034109385
6.6188681e-06
-0.00034224084
6.4548979e-06
-0.00034333481
6.2432318e-06
-0.00034436908
5.9865876e-06
-0.00034533799
5.6890437e-06
-0.00034623708
5.3559977e-06
-0.0003470631
4.9940808e-06
-0.00034781415
4.6110259e-06
-0.00034848963
4.2154902e-06
-0.00034909027
3.8168252e-06
-0.00034961798
3.4248356e-06
-0.00035007581
3.0495062e-06
-0.00035046778
2.7006941e-06
-0.00035079876
2.3878371e-06
-0.00035107426
2.1196225e-06
-0.00035130029
1.9036884e-06
-0.00035148319
1.7463103e-06
-0.00035162952
1.6521738e-06
-0.00035174598
1.6241431e-06
-0.00035183932
1.6632296e-06
-0.00035191633
1.7685958e-06
-0.00035198383
1.9378844e-06
-0.00035204854
2.1675592e-06
-0.00035211695
2.4534593e-06
-0.00035219517
2.7912461e-06
-0.00035228873
3.1769226e-06
-0.00035240244
3.6070343e-06
-0.00035254019
4.0788619e-06
-0.0003527049
4.5903829e-06
-0.00035289842
5.1402748e-06
-0.00035312148
5.7276875e-06
-0.00035337373
6.3522664e-06
-0.00035365371
7.013907e-06
-0.00035395884
7.7128559e-06
-0.00035428541
8.449487e-06
-0.00035462846
9.2245764e-06
-0.0003549818
1.0039036e-05
-0.00035533776
1.0894403e-05
-0.00035568711
1.1792317e-05
-0.00035601866
1.2735445e-05
-0.00035631905
1.3726215e-05
-0.0003565721
1.4768535e-05
-0.00035675844
1.5864918e-05
-0.00035685443
1.7019748e-05
-0.00035683189
1.8232743e-05
-0.00035665641
1.9505824e-05
-0.00035628806
2.0828486e-05
-0.00035567917
2.2193495e-05
-0.00035477794
2.356472e-05
-0.00035352613
2.4915932e-05
-0.00035186934
2.6158231e-05
-0.0003497536
2.7241828e-05
-0.00034714997
2.7980821e-05
-0.00034403977
2.8329545e-05
-0.00034047881
2.7921742e-05
-0.00033651823
2.6837047e-05
-0.00033243033
2.4335242e-05
-0.00032832075
2.0931168e-05
-0.00032501574
1.5208417e-05
8.4227848e-06
-0.00032129065
2.3160904e-07
-0.00032137308
1.6824032e-07
-0.00032145788
1.7649011e-07
-0.00032154646
1.4867697e-07
-0.00032163865
1.4488424e-07
-0.00032173465
1.3060886e-07
-0.00032183533
1.2473783e-07
-0.00032194069
1.1690625e-07
-0.00032205155
1.1234746e-07
-0.00032216804
1.0869939e-07
-0.00032229101
1.0696311e-07
-0.00032242087
1.0715149e-07
-0.00032255837
1.0918976e-07
-0.00032270404
1.136702e-07
-0.00032285859
1.2042924e-07
-0.00032302263
1.3012342e-07
-0.00032319688
1.4274939e-07
-0.000323382
1.5892967e-07
-0.00032357874
1.788506e-07
-0.0003237878
2.0311155e-07
-0.00032401002
2.3206827e-07
-0.0003242463
2.6634899e-07
-0.00032449756
3.0644039e-07
-0.00032476469
3.5299696e-07
-0.00032504866
4.0660749e-07
-0.0003253504
4.6796837e-07
-0.00032567092
5.3775036e-07
-0.00032601137
6.1678113e-07
-0.00032637299
7.0588077e-07
-0.00032675702
8.0576255e-07
-0.00032716464
9.1706487e-07
-0.00032759696
1.0404846e-06
-0.00032805481
1.1767109e-06
-0.00032853902
1.3263184e-06
-0.00032905064
1.4898051e-06
-0.0003295908
1.6676869e-06
-0.0003301606
1.8602253e-06
-0.00033076096
2.0674105e-06
-0.00033139271
2.2892042e-06
-0.00033205664
2.52538e-06
-0.00033275359
2.7756232e-06
-0.00033348434
3.0393036e-06
-0.00033424964
3.3156863e-06
-0.00033505016
3.6037965e-06
-0.00033588645
3.9024692e-06
-0.00033675894
4.2102882e-06
-0.00033766788
4.5255737e-06
-0.00033861333
4.8463541e-06
-0.00033959504
5.1703295e-06
-0.00034061245
5.4948577e-06
-0.00034166455
5.8169266e-06
-0.00034274985
6.133137e-06
-0.00034386626
6.4396961e-06
-0.00034501104
6.7324391e-06
-0.00034618069
7.0068349e-06
-0.00034737095
7.2580667e-06
-0.00034857676
7.4811041e-06
-0.00034979226
7.6708209e-06
-0.00035101088
7.8221371e-06
-0.00035222537
7.930209e-06
-0.00035342802
7.9905907e-06
-0.00035461071
7.9994762e-06
-0.00035576523
7.953892e-06
-0.0003568834
7.8519035e-06
-0.00035795732
7.6927909e-06
-0.00035897961
7.4771909e-06
-0.00035994359
7.2072071e-06
-0.00036084342
6.8864244e-06
-0.0003616743
6.5199215e-06
-0.00036243249
6.1141862e-06
-0.00036311539
5.6769821e-06
-0.00036372154
5.2171746e-06
-0.00036425056
4.7445104e-06
-0.00036470309
4.2693522e-06
-0.00036508066
3.802407e-06
-0.00036538559
3.3544351e-06
-0.00036562082
2.9359249e-06
-0.00036578979
2.5568051e-06
-0.00036589628
2.2261138e-06
-0.00036594432
1.9517271e-06
-0.00036593807
1.7400685e-06
-0.00036588183
1.5959301e-06
-0.00036577995
1.5222639e-06
-0.00036563694
1.5202182e-06
-0.00036545747
1.589128e-06
-0.00036524642
1.7268285e-06
-0.00036500879
1.9299335e-06
-0.00036474969
2.1943635e-06
-0.00036447416
2.5157155e-06
-0.00036418699
2.8897539e-06
-0.00036389252
3.3125618e-06
-0.00036359443
3.7807655e-06
-0.00036329559
4.2915488e-06
-0.00036299806
4.8427414e-06
-0.00036270294
5.4325652e-06
-0.00036241037
6.0597044e-06
-0.00036211953
6.7230657e-06
-0.00036182859
7.421914e-06
-0.00036153475
8.1556462e-06
-0.00036123419
8.9240192e-06
-0.00036092206
9.7269049e-06
-0.00036059234
1.0564685e-05
-0.0003602378
1.1437771e-05
-0.00035984968
1.2347326e-05
-0.00035941761
1.3294148e-05
-0.00035892907
1.4279993e-05
-0.00035836924
1.5305085e-05
-0.00035772016
1.637067e-05
-0.00035696085
1.7473436e-05
-0.00035606614
1.8611114e-05
-0.00035500775
1.9770097e-05
-0.000353753
2.093874e-05
-0.00035226846
2.2080179e-05
-0.00035051843
2.3165907e-05
-0.00034847418
2.4113984e-05
-0.00034610979
2.4877429e-05
-0.00034342343
2.5294465e-05
-0.00034041878
2.5324898e-05
-0.00033716199
2.466495e-05
-0.00033370127
2.3376327e-05
-0.00033026107
2.0895045e-05
-0.00032692753
1.7597626e-05
-0.00032431248
1.2593369e-05
6.691103e-06
-0.00032974269
3.210465e-07
-0.00032984388
2.6942563e-07
-0.00032994801
2.8062903e-07
-0.00033005858
2.5924244e-07
-0.00033017427
2.605717e-07
-0.00033029578
2.5211831e-07
-0.00033042345
2.5240688e-07
-0.00033055756
2.5102287e-07
-0.00033069882
2.5360617e-07
-0.00033084752
2.5740246e-07
-0.00033100441
2.6384573e-07
-0.0003311699
2.7264773e-07
-0.00033134473
2.8401854e-07
-0.00033152942
2.9836087e-07
-0.00033172468
3.1569014e-07
-0.00033193113
3.3656584e-07
-0.00033214947
3.6109299e-07
-0.00033238039
3.8985214e-07
-0.00033262464
4.2309614e-07
-0.00033288295
4.6141954e-07
-0.00033315611
5.0523586e-07
-0.00033344494
5.5518024e-07
-0.00033375026
6.1175818e-07
-0.0003340729
6.7563963e-07
-0.00033441373
7.4743491e-07
-0.00033477362
8.2786148e-07
-0.00033515347
9.1759307e-07
-0.00033555407
1.0173805e-06
-0.00033597613
1.1279419e-06
-0.00033642038
1.250016e-06
-0.00033688759
1.3842752e-06
-0.00033737854
1.5314336e-06
-0.00033789403
1.6921967e-06
-0.00033843479
1.8670858e-06
-0.00033900149
2.0565034e-06
-0.0003395946
2.2607915e-06
-0.00034021457
2.4801977e-06
-0.00034086195
2.7147897e-06
-0.0003415373
2.9645522e-06
-0.00034224113
3.2292104e-06
-0.00034297391
3.5084085e-06
-0.00034373609
3.8014854e-06
-0.00034452809
4.1076847e-06
-0.00034535027
4.4259761e-06
-0.00034620292
4.755116e-06
-0.00034708621
5.093577e-06
-0.00034800016
5.4395239e-06
-0.00034894458
5.7907787e-06
-0.00034991902
6.1447666e-06
-0.00035092266
6.498498e-06
-0.00035195426
6.8485305e-06
-0.00035301208
7.1909504e-06
-0.00035409375
7.5213674e-06
-0.00035519626
7.8349492e-06
-0.00035631586
8.1264382e-06
-0.00035744806
8.3902616e-06
-0.00035858758
8.620631e-06
-0.00035972846
8.8116973e-06
-0.00036086405
8.9577299e-06
-0.00036198719
9.0533481e-06
-0.00036309031
9.0937139e-06
-0.00036416565
9.0748076e-06
-0.00036520539
8.9936398e-06
-0.00036620196
8.8484667e-06
-0.00036714813
8.6389642e-06
-0.00036803729
8.3663548e-06
-0.00036886358
8.033493e-06
-0.000369622
7.6448428e-06
-0.00037030853
7.2064508e-06
-0.00037092016
6.7258175e-06
-0.00037145489
6.2117179e-06
-0.00037191171
5.6739883e-06
-0.00037229047
5.1232689e-06
-0.00037259182
4.5707104e-06
-0.0003728171
4.0276812e-06
-0.00037296813
3.50547e-06
-0.00037304716
3.0149545e-06
-0.00037305669
2.566332e-06
-0.00037299938
2.1688006e-06
-0.00037287798
1.8303321e-06
-0.00037269532
1.5574056e-06
-0.00037245429
1.3549031e-06
-0.00037215796
1.2259306e-06
-0.00037180961
1.1718695e-06
-0.0003714128
1.192323e-06
-0.00037097146
1.2854869e-06
-0.00037048987
1.4483365e-06
-0.00036997255
1.677051e-06
-0.00036942415
1.967313e-06
-0.00036884925
2.3148579e-06
-0.00036825224
2.7155484e-06
-0.0003676371
3.1656271e-06
-0.00036700728
3.6617285e-06
-0.00036636552
4.200976e-06
-0.00036571372
4.7807703e-06
-0.000365053
5.3989804e-06
-0.00036438362
6.0536837e-06
-0.00036370499
6.7432868e-06
-0.00036301566
7.4663172e-06
-0.00036231329
8.2216516e-06
-0.00036159465
9.0082677e-06
-0.00036085553
9.8255638e-06
-0.00036009068
1.0672921e-05
-0.00035929363
1.155027e-05
-0.00035845657
1.245709e-05
-0.00035757001
1.3393437e-05
-0.0003566227
1.4357775e-05
-0.00035560102
1.5348983e-05
-0.00035448917
1.6361591e-05
-0.00035326841
1.7390355e-05
-0.00035191809
1.841978e-05
-0.00035041474
1.9435389e-05
-0.00034873533
2.0400764e-05
-0.00034685591
2.1286484e-05
-0.00034475976
2.2017837e-05
-0.00034243316
2.2550825e-05
-0.00033988491
2.2746218e-05
-0.00033712838
2.2568366e-05
-0.00033423429
2.1770859e-05
-0.00033125889
2.0400932e-05
-0.00032840423
1.8040389e-05
-0.00032576785
1.4961242e-05
-0.00032377892
1.0604442e-05
5.4927794e-06
-0.00033412162
4.2219486e-07
-0.00033423648
3.84279e-07
-0.00033435462
3.987732e-07
-0.00033448078
3.854029e-07
-0.00033461282
3.9260817e-07
-0.00033475206
3.9135865e-07
-0.00033489852
3.9886858e-07
-0.00033505274
4.0524495e-07
-0.00033521528
4.1614494e-07
-0.00033538657
4.2868999e-07
-0.00033556726
4.4453534e-07
-0.00033575781
4.6320531e-07
-0.00033595891
4.8511879e-07
-0.00033617111
5.1055289e-07
-0.00033639508
5.3965973e-07
-0.00033663144
5.7292719e-07
-0.00033688089
6.1054434e-07
-0.0003371441
6.5305805e-07
-0.00033742177
7.0077083e-07