/*--------------------------------*- C++ -*----------------------------------*\
| =========                 |                                                 |
| \\      /  F ield         | foam-extend: Open Source CFD                    |
|  \\    /   O peration     | Version:     4.1                                |
|   \\  /    A nd           | Web:         http://www.foam-extend.org         |
|    \\/     M anipulation  |                                                 |
\*---------------------------------------------------------------------------*/
FoamFile
{
    version     2.0;
    format      ascii;
    class       volScalarField;
    location    "1.4";
    object      rAU;
}
// * * * * * * * * * * * * * * * * * * * * * * * * * * * * * * * * * * * * * //

dimensions      [0 0 1 0 0 0 0];

internalField   nonuniform List<scalar> 
16126
(
0.00049538958
0.00049497067
0.00049497087
0.00049497096
0.00049497123
0.00049497158
0.00049497201
0.00049497256
0.00049497316
0.00049497389
0.00049497467
0.00049497558
0.00049497655
0.00049497764
0.0004949788
0.00049498008
0.00049498143
0.0004949829
0.00049498444
0.0004949861
0.00049498783
0.00049498966
0.00049499156
0.00049499356
0.00049499562
0.00049499775
0.00049499991
0.00049500214
0.00049500436
0.0004950066
0.0004950088
0.00049501096
0.00049501304
0.00049501499
0.00049501682
0.00049501845
0.00049501987
0.00049502097
0.00049502177
0.00049502202
0.00049502136
0.00049502015
0.00049501839
0.00049501604
0.00049501305
0.00049500938
0.000495005
0.00049499988
0.00049499399
0.00049498731
0.00049497982
0.0004949715
0.00049496237
0.00049495242
0.00049494167
0.00049493015
0.00049491788
0.00049490492
0.00049489133
0.00049487717
0.00049486252
0.00049484748
0.00049483215
0.00049481665
0.00049480108
0.00049478559
0.00049477029
0.00049475533
0.00049474082
0.0004947269
0.00049471366
0.00049470121
0.00049468964
0.00049467899
0.0004946693
0.00049466058
0.00049465282
0.00049464594
0.00049463989
0.00049463454
0.00049462977
0.00049462541
0.0004946213
0.00049461726
0.00049461311
0.0004946087
0.00049460389
0.00049459856
0.0004945926
0.00049458591
0.0004945784
0.00049456994
0.0004945604
0.00049454963
0.00049453745
0.00049452367
0.00049450806
0.00049449037
0.00049447032
0.00049444758
0.00049442178
0.00049439246
0.00049435906
0.00049432089
0.00049427703
0.00049422624
0.00049416694
0.00049409687
0.00049401315
0.00049391175
0.00049378763
0.00049363401
0.00049344296
0.00049320426
0.00049290727
0.00049253892
0.00049208826
0.00049154173
0.00049089427
0.00049013442
0.00048928068
0.00048831504
0.00048738608
0.00048591085
0.00049384343
0.00049342731
0.00049342763
0.0004934276
0.00049342797
0.00049342844
0.00049342904
0.00049342986
0.00049343076
0.00049343189
0.00049343309
0.0004934345
0.00049343601
0.00049343772
0.00049343952
0.00049344152
0.00049344362
0.00049344591
0.00049344829
0.00049345085
0.0004934535
0.0004934563
0.00049345917
0.00049346216
0.00049346519
0.00049346831
0.00049347141
0.00049347454
0.00049347758
0.00049348058
0.0004934834
0.00049348606
0.00049348849
0.00049349054
0.00049349217
0.00049349324
0.00049349372
0.00049349255
0.00049349005
0.00049348648
0.00049348153
0.00049347544
0.00049346812
0.00049345947
0.0004934494
0.00049343785
0.00049342476
0.0004934101
0.00049339382
0.00049337591
0.00049335635
0.00049333515
0.00049331235
0.00049328798
0.00049326212
0.00049323484
0.00049320625
0.00049317649
0.00049314571
0.00049311408
0.0004930818
0.00049304908
0.00049301617
0.00049298332
0.00049295078
0.00049291883
0.00049288774
0.00049285776
0.00049282915
0.00049280214
0.00049277691
0.00049275362
0.00049273239
0.00049271326
0.00049269625
0.00049268127
0.00049266819
0.00049265681
0.00049264687
0.00049263803
0.0004926299
0.00049262207
0.00049261408
0.00049260548
0.00049259583
0.00049258475
0.00049257185
0.00049255681
0.00049253932
0.00049251906
0.00049249574
0.00049246901
0.00049243853
0.00049240391
0.00049236472
0.00049232049
0.0004922707
0.00049221477
0.00049215205
0.00049208181
0.00049200323
0.00049191533
0.00049181705
0.00049170711
0.00049158405
0.00049144615
0.00049129148
0.00049111771
0.0004909224
0.0004907026
0.00049045553
0.00049017794
0.00048986764
0.00048952203
0.0004891417
0.0004887267
0.00048828455
0.00048782045
0.0004873569
0.00048690436
0.00048652229
0.00048620626
0.00048615524
0.00048575113
0.00049172148
0.00049130912
0.00049130929
0.00049130889
0.000491309
0.00049130915
0.00049130946
0.00049130996
0.00049131052
0.00049131131
0.00049131214
0.00049131317
0.00049131425
0.00049131553
0.00049131685
0.00049131834
0.00049131988
0.00049132157
0.00049132329
0.00049132514
0.000491327
0.00049132896
0.00049133089
0.00049133288
0.00049133479
0.0004913367
0.00049133846
0.00049134016
0.00049134162
0.00049134289
0.0004913438
0.00049134435
0.00049134448
0.00049134403
0.00049134273
0.00049133908
0.00049133463
0.00049132837
0.00049132059
0.00049131144
0.00049130091
0.0004912888
0.00049127508
0.00049125965
0.00049124244
0.0004912234
0.00049120249
0.00049117967
0.00049115494
0.00049112831
0.00049109979
0.00049106944
0.00049103732
0.00049100353
0.00049096816
0.00049093138
0.00049089334
0.00049085423
0.00049081428
0.00049077373
0.00049073284
0.0004906919
0.00049065123
0.00049061113
0.00049057193
0.00049053395
0.0004904975
0.00049046285
0.00049043028
0.00049039999
0.00049037215
0.00049034684
0.00049032412
0.00049030394
0.00049028616
0.00049027059
0.00049025695
0.00049024486
0.00049023391
0.00049022361
0.00049021344
0.00049020285
0.0004901913
0.00049017827
0.00049016327
0.00049014586
0.00049012564
0.00049010223
0.00049007527
0.00049004442
0.00049000934
0.00048996966
0.00048992501
0.00048987503
0.00048981932
0.00048975747
0.00048968906
0.00048961363
0.00048953071
0.0004894398
0.00048934037
0.00048923185
0.00048911363
0.00048898507
0.00048884546
0.00048869405
0.00048853011
0.00048835281
0.00048816151
0.00048795549
0.00048773467
0.00048749892
0.00048724975
0.00048698869
0.00048672087
0.00048645093
0.00048619108
0.00048594983
0.00048575251
0.00048560757
0.00048557044
0.00048562419
0.00048592335
0.0004858962
0.00049007185
0.00048966267
0.00048966242
0.00048966145
0.000489661
0.00048966048
0.00048966008
0.00048965982
0.00048965956
0.00048965946
0.00048965934
0.00048965937
0.00048965936
0.00048965947
0.00048965954
0.00048965971
0.00048965982
0.00048966
0.00048966009
0.00048966022
0.00048966024
0.00048966025
0.00048966011
0.00048965991
0.00048965949
0.00048965895
0.00048965812
0.0004896571
0.0004896557
0.00048965401
0.00048965184
0.0004896489
0.00048964394
0.00048963818
0.00048963149
0.00048962231
0.00048961205
0.0004896004
0.00048958742
0.00048957283
0.0004895567
0.00048953883
0.00048951926
0.00048949789
0.00048947469
0.00048944962
0.00048942267
0.00048939385
0.00048936316
0.00048933065
0.00048929637
0.00048926039
0.00048922282
0.00048918378
0.00048914341
0.00048910189
0.00048905943
0.00048901625
0.00048897262
0.0004889288
0.00048888511
0.00048884187
0.00048879939
0.00048875803
0.0004887181
0.00048867991
0.00048864377
0.00048860992
0.00048857855
0.00048854982
0.0004885238
0.0004885005
0.00048847985
0.0004884617
0.00048844581
0.00048843189
0.00048841955
0.00048840838
0.0004883979
0.0004883876
0.00048837697
0.00048836551
0.00048835272
0.00048833816
0.00048832143
0.00048830216
0.00048828005
0.00048825481
0.00048822616
0.00048819387
0.00048815767
0.00048811733
0.0004880726
0.00048802325
0.00048796905
0.00048790979
0.00048784526
0.00048777528
0.00048769967
0.00048761825
0.00048753089
0.00048743744
0.00048733778
0.0004872318
0.00048711942
0.00048700058
0.00048687531
0.00048674367
0.00048660599
0.00048646266
0.00048631479
0.00048616359
0.00048601188
0.00048586259
0.00048572189
0.00048559525
0.00048549456
0.0004854271
0.00048541415
0.00048545811
0.00048559974
0.00048581051
0.00048618786
0.00048618963
0.0004888974
0.00048849036
0.00048848932
0.00048848853
0.00048848734
0.00048848591
0.00048848457
0.00048848326
0.00048848189
0.0004884806
0.00048847919
0.00048847786
0.00048847639
0.00048847497
0.0004884734
0.00048847184
0.0004884701
0.00048846835
0.0004884664
0.00048846439
0.00048846214
0.0004884598
0.00048845718
0.00048845443
0.00048845135
0.00048844807
0.00048844442
0.00048844006
0.00048843425
0.00048842794
0.00048842094
0.00048841301
0.00048840286
0.0004883916
0.00048837928
0.00048836563
0.00048835072
0.0004883343
0.00048831647
0.00048829702
0.00048827605
0.00048825338
0.00048822906
0.00048820304
0.00048817529
0.00048814581
0.00048811461
0.00048808171
0.00048804715
0.00048801099
0.00048797331
0.00048793419
0.00048789376
0.00048785218
0.0004878096
0.00048776623
0.0004877223
0.00048767806
0.00048763378
0.00048758979
0.0004875464
0.00048750393
0.00048746273
0.00048742312
0.00048738543
0.00048734993
0.00048731688
0.00048728647
0.00048725883
0.00048723404
0.00048721211
0.00048719294
0.00048717641
0.00048716228
0.00048715026
0.00048714002
0.00048713116
0.00048712325
0.00048711586
0.00048710851
0.00048710076
0.00048709219
0.00048708241
0.00048707109
0.00048705796
0.00048704276
0.00048702532
0.00048700547
0.00048698306
0.00048695794
0.00048692999
0.00048689907
0.00048686505
0.00048682782
0.00048678729
0.00048674339
0.00048669606
0.00048664527
0.00048659103
0.00048653335
0.00048647228
0.00048640789
0.00048634029
0.00048626962
0.00048619605
0.00048611979
0.0004860412
0.00048596064
0.0004858788
0.00048579646
0.00048571504
0.00048563608
0.00048556249
0.00048549713
0.00048544546
0.00048541181
0.00048540558
0.000485431
0.00048550375
0.00048562161
0.00048581393
0.00048605345
0.00048640387
0.00048636737
0.0004881291
0.00048772284
0.00048772085
0.00048772005
0.00048771818
0.00048771632
0.0004877143
0.00048771228
0.00048771006
0.00048770759
0.00048770488
0.00048770216
0.00048769922
0.00048769625
0.00048769304
0.00048768977
0.00048768623
0.0004876826
0.00048767869
0.00048767464
0.00048766997
0.00048766484
0.00048765923
0.00048765327
0.00048764677
0.00048763987
0.00048763239
0.000487624
0.00048761392
0.00048760303
0.00048759112
0.00048757823
0.00048756428
0.00048754909
0.00048753273
0.00048751499
0.00048749598
0.00048747551
0.00048745368
0.00048743028
0.00048740547
0.00048737904
0.00048735111
0.00048732162
0.00048729057
0.00048725798
0.00048722387
0.00048718829
0.00048715129
0.00048711294
0.00048707334
0.00048703259
0.00048699084
0.00048694826
0.00048690504
0.00048686139
0.00048681758
0.00048677388
0.00048673059
0.00048668806
0.0004866466
0.00048660657
0.0004865683
0.0004865321
0.00048649828
0.00048646708
0.00048643871
0.00048641332
0.00048639098
0.00048637169
0.0004863554
0.00048634197
0.00048633119
0.0004863228
0.00048631648
0.00048631186
0.00048630857
0.00048630617
0.00048630429
0.00048630249
0.00048630043
0.00048629775
0.00048629418
0.00048628948
0.00048628346
0.00048627601
0.00048626701
0.00048625639
0.00048624408
0.00048623002
0.00048621416
0.00048619643
0.00048617676
0.00048615511
0.00048613146
0.0004861058
0.00048607812
0.00048604849
0.00048601695
0.00048598361
0.00048594858
0.00048591201
0.00048587407
0.00048583498
0.00048579499
0.00048575439
0.00048571359
0.00048567305
0.00048563349
0.00048559571
0.00048556105
0.00048553094
0.00048550791
0.00048549432
0.0004854946
0.00048551192
0.00048555351
0.00048562163
0.00048572796
0.00048586844
0.00048606399
0.00048629091
0.00048658902
0.00048649066
0.00048766548
0.00048725923
0.00048725642
0.00048725473
0.00048725211
0.00048724978
0.000487247
0.00048724422
0.00048724111
0.00048723766
0.00048723388
0.00048722997
0.00048722575
0.00048722136
0.00048721662
0.00048721167
0.00048720633
0.00048720074
0.00048719472
0.0004871884
0.00048718129
0.00048717354
0.00048716509
0.00048715608
0.00048714629
0.00048713583
0.0004871245
0.0004871124
0.0004870993
0.00048708532
0.00048707022
0.00048705408
0.00048703685
0.00048701836
0.00048699872
0.00048697774
0.00048695553
0.00048693189
0.00048690697
0.00048688057
0.00048685287
0.00048682368
0.00048679312
0.00048676116
0.00048672781
0.0004866931
0.00048665707
0.00048661978
0.0004865813
0.0004865417
0.0004865011
0.00048645963
0.00048641745
0.00048637476
0.00048633178
0.00048628874
0.00048624594
0.00048620368
0.00048616229
0.00048612213
0.00048608354
0.00048604686
0.00048601244
0.00048598058
0.00048595154
0.00048592556
0.00048590279
0.00048588331
0.00048586716
0.00048585429
0.00048584457
0.0004858378
0.00048583376
0.00048583213
0.00048583256
0.00048583469
0.00048583812
0.00048584247
0.00048584738
0.00048585246
0.00048585742
0.00048586197
0.0004858659
0.00048586905
0.00048587129
0.00048587255
0.00048587279
0.00048587198
0.00048587008
0.00048586709
0.00048586299
0.00048585772
0.00048585128
0.00048584364
0.00048583479
0.00048582474
0.00048581352
0.00048580118
0.00048578779
0.00048577343
0.00048575824
0.00048574235
0.00048572591
0.00048570913
0.00048569224
0.0004856755
0.00048565929
0.000485644
0.00048563028
0.00048561885
0.00048561087
0.00048560753
0.00048561096
0.00048562301
0.00048564724
0.00048568595
0.00048574482
0.00048582513
0.00048593598
0.00048607355
0.0004862535
0.00048645771
0.00048671066
0.00048656452
0.00048740596
0.00048699932
0.00048699586
0.00048699339
0.00048698995
0.00048698674
0.00048698299
0.0004869792
0.000486975
0.00048697064
0.00048696588
0.0004869609
0.00048695548
0.00048694978
0.0004869436
0.00048693708
0.00048693002
0.00048692256
0.00048691449
0.00048690595
0.00048689673
0.00048688697
0.00048687643
0.00048686527
0.00048685325
0.0004868405
0.00048682681
0.00048681229
0.00048679673
0.00048678026
0.00048676266
0.00048674402
0.00048672429
0.0004867033
0.00048668119
0.00048665776
0.00048663316
0.0004866072
0.00048658004
0.00048655149
0.00048652173
0.00048649061
0.00048645824
0.00048642459
0.00048638971
0.00048635363
0.00048631639
0.00048627809
0.00048623877
0.00048619857
0.00048615759
0.00048611601
0.000486074
0.00048603179
0.00048598963
0.00048594778
0.00048590657
0.00048586633
0.00048582741
0.00048579018
0.000485755
0.00048572222
0.00048569215
0.0004856651
0.00048564129
0.00048562092
0.00048560409
0.00048559084
0.00048558115
0.00048557491
0.00048557195
0.00048557202
0.00048557485
0.00048558009
0.00048558738
0.00048559635
0.00048560661
0.00048561777
0.0004856295
0.00048564146
0.00048565338
0.00048566502
0.0004856762
0.00048568679
0.0004856967
0.00048570587
0.00048571428
0.00048572191
0.00048572876
0.00048573482
0.00048574008
0.00048574451
0.00048574809
0.00048575082
0.00048575268
0.00048575369
0.00048575386
0.00048575324
0.00048575189
0.00048574989
0.00048574734
0.00048574435
0.00048574107
0.00048573767
0.00048573435
0.00048573135
0.00048572899
0.00048572766
0.00048572793
0.00048573045
0.00048573623
0.00048574635
0.00048576261
0.00048578661
0.00048582132
0.0004858686
0.00048593308
0.00048601557
0.00048612317
0.00048625231
0.00048641402
0.00048659398
0.00048680624
0.00048661705
0.0004872701
0.00048686292
0.00048685895
0.00048685581
0.00048685172
0.00048684779
0.00048684329
0.0004868387
0.00048683364
0.00048682837
0.00048682264
0.00048681664
0.00048681014
0.00048680331
0.00048679594
0.00048678818
0.00048677982
0.000486771
0.00048676152
0.00048675152
0.00048674077
0.00048672943
0.00048671728
0.00048670444
0.00048669071
0.00048667623
0.00048666076
0.00048664445
0.00048662708
0.00048660879
0.00048658935
0.00048656887
0.00048654732
0.00048652453
0.00048650066
0.00048647551
0.00048644925
0.00048642167
0.00048639297
0.00048636295
0.0004863318
0.00048629938
0.00048626581
0.00048623108
0.00048619523
0.00048615831
0.00048612039
0.00048608154
0.00048604187
0.0004860015
0.00048596058
0.00048591929
0.00048587784
0.00048583649
0.00048579551
0.00048575521
0.00048571593
0.00048567802
0.00048564186
0.00048560781
0.00048557625
0.00048554751
0.0004855219
0.00048549969
0.00048548107
0.00048546619
0.00048545513
0.00048544786
0.00048544431
0.00048544433
0.0004854477
0.00048545414
0.00048546335
0.00048547495
0.00048548857
0.00048550383
0.00048552033
0.00048553772
0.00048555566
0.00048557384
0.00048559198
0.00048560989
0.00048562738
0.00048564433
0.00048566066
0.0004856763
0.00048569124
0.00048570546
0.00048571894
0.00048573167
0.00048574363
0.0004857548
0.00048576517
0.00048577472
0.00048578345
0.00048579136
0.00048579847
0.00048580482
0.00048581046
0.00048581544
0.00048581987
0.00048582384
0.00048582747
0.00048583093
0.00048583441
0.00048583811
0.00048584237
0.00048584754
0.00048585416
0.00048586285
0.00048587456
0.00048589026
0.00048591158
0.00048593991
0.0004859778
0.00048602682
0.00048609079
0.00048617032
0.00048627096
0.00048638976
0.00048653442
0.00048669393
0.0004868754
0.00048665341
0.00048720277
0.00048679502
0.00048679068
0.000486787
0.00048678241
0.00048677792
0.00048677284
0.00048676762
0.0004867619
0.00048675593
0.00048674947
0.00048674268
0.00048673537
0.00048672768
0.00048671941
0.0004867107
0.00048670136
0.00048669152
0.00048668098
0.00048666988
0.00048665801
0.0004866455
0.00048663215
0.0004866181
0.00048660312
0.00048658736
0.0004865706
0.00048655299
0.00048653431
0.0004865147
0.00048649396
0.00048647219
0.00048644937
0.00048642532
0.00048640023
0.00048637389
0.00048634647
0.00048631779
0.00048628803
0.00048625702
0.00048622495
0.00048619167
0.00048615733
0.00048612191
0.00048608547
0.00048604807
0.00048600978
0.00048597072
0.00048593098
0.00048589073
0.00048585013
0.00048580939
0.00048576875
0.00048572849
0.0004856889
0.00048565032
0.00048561311
0.00048557764
0.00048554428
0.00048551343
0.00048548543
0.0004854606
0.00048543924
0.00048542159
0.0004854078
0.00048539797
0.00048539216
0.00048539028
0.00048539223
0.00048539781
0.00048540678
0.00048541882
0.00048543361
0.00048545076
0.0004854699
0.00048549062
0.00048551255
0.00048553532
0.00048555861
0.0004855821
0.00048560553
0.00048562869
0.0004856514
0.00048567352
0.00048569354
0.00048571396
0.00048573552
0.00048575459
0.00048577281
0.00048579015
0.00048580662
0.00048582217
0.00048583678
0.00048585045
0.00048586317
0.00048587496
0.00048588583
0.00048589583
0.00048590501
0.00048591344
0.00048592122
0.00048592846
0.00048593527
0.00048594185
0.00048594837
0.00048595509
0.00048596232
0.00048597044
0.00048598
0.0004859916
0.00048600614
0.00048602455
0.00048604829
0.00048607862
0.00048611772
0.00048616693
0.00048622931
0.00048630526
0.00048639888
0.00048650755
0.00048663621
0.0004867763
0.00048693089
0.00048668103
0.00048717044
0.00048676216
0.00048675756
0.00048675344
0.00048674848
0.00048674356
0.00048673804
0.00048673234
0.00048672613
0.00048671963
0.00048671261
0.00048670524
0.00048669731
0.00048668898
0.00048668003
0.00048667062
0.00048666055
0.00048664995
0.00048663863
0.00048662671
0.000486614
0.00048660064
0.00048658641
0.00048657146
0.00048655558
0.0004865389
0.00048652122
0.00048650268
0.00048648306
0.00048646252
0.00048644085
0.00048641817
0.00048639444
0.00048636951
0.00048634356
0.00048631638
0.00048628816
0.00048625871
0.00048622822
0.00048619652
0.00048616382
0.00048612995
0.00048609509
0.00048605922
0.00048602242
0.00048598474
0.00048594629
0.00048590719
0.00048586756
0.00048582758
0.00048578743
0.00048574736
0.00048570761
0.00048566849
0.00048563033
0.00048559347
0.00048555829
0.00048552516
0.00048549446
0.00048546659
0.00048544186
0.0004854206
0.00048540307
0.00048538947
0.00048537994
0.00048537455
0.00048537329
0.00048537607
0.00048538275
0.0004853931
0.00048540684
0.00048542367
0.00048544322
0.00048546512
0.00048548897
0.00048551438
0.00048554097
0.00048556837
0.00048559627
0.00048562432
0.00048565229
0.00048567619
0.00048569388
0.00048571341
0.00048573326
0.0004857559
0.00048578198
0.00048580777
0.00048583481
0.00048586295
0.00048589178
0.00048591017
0.00048592744
0.00048594356
0.00048595856
0.00048597244
0.00048598524
0.00048599702
0.00048600784
0.00048601778
0.00048602697
0.00048603551
0.00048604355
0.0004860513
0.00048605895
0.00048606678
0.00048607511
0.00048608435
0.00048609503
0.00048610777
0.00048612341
0.00048614282
0.00048616731
0.00048619802
0.0004862368
0.00048628478
0.00048634441
0.00048641596
0.00048650246
0.00048660169
0.00048671671
0.00048684082
0.00048697445
0.00048670237
0.00048715472
0.000486746
0.00048674121
0.00048673673
0.00048673149
0.00048672623
0.00048672037
0.00048671431
0.0004867077
0.0004867008
0.00048669335
0.00048668553
0.00048667713
0.0004866683
0.00048665884
0.00048664889
0.00048663826
0.00048662709
0.00048661516
0.00048660264
0.0004865893
0.00048657529
0.0004865604
0.00048654478
0.00048652821
0.00048651084
0.00048649246
0.00048647322
0.0004864529
0.00048643167
0.00048640931
0.00048638594
0.00048636154
0.00048633595
0.00048630935
0.00048628155
0.00048625273
0.0004862227
0.00048619167
0.00048615945
0.00048612627
0.00048609197
0.00048605673
0.00048602054
0.00048598348
0.00048594563
0.00048590711
0.00048586805
0.00048582858
0.00048578891
0.00048574925
0.00048570984
0.00048567097
0.00048563296
0.00048559613
0.00048556087
0.00048552754
0.00048549654
0.00048546823
0.000485443
0.00048542116
0.00048540302
0.00048538881
0.00048537871
0.00048537283
0.00048537121
0.00048537383
0.00048538057
0.00048539124
0.00048540563
0.00048542344
0.00048544434
0.00048546797
0.00048549393
0.00048552185
0.00048555133
0.00048558197
0.00048561341
0.00048564532
0.00048567736
0.00048569972
0.00048571366
0.00048572386
0.00048573843
0.00048575729
0.00048578029
0.00048580725
0.00048583794
0.0004858721
0.00048590945
0.00048594942
0.00048598077
0.00048601267
0.0004860375
0.00048605383
0.00048606887
0.00048608265
0.00048609527
0.0004861068
0.00048611734
0.00048612704
0.00048613604
0.00048614452
0.00048615268
0.00048616077
0.00048616907
0.00048617793
0.00048618778
0.00048619913
0.0004862126
0.00048622897
0.00048624905
0.00048627402
0.00048630484
0.0004863431
0.00048638967
0.00048644649
0.00048651364
0.00048659325
0.00048668334
0.0004867856
0.00048689482
0.00048701015
0.00048671939
0.00048714638
0.00048673728
0.00048673235
0.00048672757
0.00048672212
0.00048671656
0.00048671044
0.00048670408
0.00048669717
0.00048668994
0.00048668214
0.00048667396
0.00048666517
0.00048665595
0.00048664607
0.0004866357
0.00048662462
0.00048661298
0.00048660058
0.00048658756
0.00048657372
0.00048655919
0.00048654378
0.00048652762
0.00048651051
0.00048649259
0.00048647366
0.00048645386
0.00048643299
0.0004864112
0.00048638829
0.00048636437
0.00048633943
0.00048631331
0.00048628619
0.00048625788
0.00048622857
0.00048619807
0.00048616658
0.00048613394
0.00048610036
0.0004860657
0.00048603014
0.00048599368
0.00048595641
0.00048591842
0.00048587984
0.00048584082
0.00048580152
0.00048576213
0.0004857229
0.00048568409
0.000485646
0.00048560895
0.00048557331
0.00048553943
0.00048550771
0.00048547853
0.00048545227
0.00048542929
0.0004854099
0.00048539439
0.00048538297
0.00048537581
0.000485373
0.00048537456
0.00048538045
0.00048539052
0.00048540461
0.00048542245
0.00048544376
0.0004854682
0.0004854954
0.00048552497
0.00048555653
0.00048558965
0.00048562397
0.00048565909
0.00048569467
0.00048571988
0.00048572753
0.00048573296
0.00048574291
0.00048575736
0.00048577621
0.00048579933
0.00048582651
0.00048585754
0.00048589213
0.00048593
0.00048597086
0.00048601438
0.00048606027
0.00048610074
0.00048613423
0.00048615974
0.0004861741
0.00048618715
0.000486199
0.00048620976
0.00048621959
0.00048622868
0.00048623721
0.00048624543
0.00048625358
0.00048626197
0.00048627098
0.00048628101
0.00048629258
0.00048630629
0.00048632285
0.00048634302
0.00048636782
0.00048639811
0.0004864352
0.0004864798
0.00048653341
0.00048659604
0.00048666912
0.00048675099
0.0004868424
0.00048693918
0.00048703968
0.00048673344
0.00048714114
0.00048673173
0.00048672669
0.00048672166
0.00048671602
0.00048671023
0.00048670387
0.00048669725
0.00048669008
0.00048668257
0.00048667448
0.00048666599
0.00048665688
0.00048664731
0.00048663708
0.00048662634
0.00048661488
0.00048660285
0.00048659004
0.00048657661
0.00048656233
0.00048654737
0.0004865315
0.00048651489
0.00048649731
0.00048647893
0.00048645952
0.00048643925
0.0004864179
0.00048639563
0.00048637224
0.00048634785
0.00048632244
0.00048629586
0.00048626828
0.00048623952
0.00048620977
0.00048617885
0.00048614695
0.00048611392
0.00048607997
0.00048604497
0.0004860091
0.00048597237
0.00048593489
0.00048589676
0.0004858581
0.00048581909
0.00048577989
0.00048574072
0.00048570183
0.00048566351
0.00048562604
0.0004855898
0.00048555512
0.0004855224
0.000485492
0.00048546434
0.00048543976
0.00048541864
0.00048540128
0.00048538794
0.00048537885
0.00048537414
0.00048537391
0.00048537814
0.00048538681
0.00048539976
0.00048541679
0.00048543767
0.00048546209
0.0004854897
0.00048552016
0.00048555305
0.00048558797
0.00048562453
0.00048566231
0.00048570093
0.00048573384
0.0004857397
0.00048573993
0.00048574481
0.00048575435
0.00048576853
0.00048578726
0.0004858104
0.00048583774
0.00048586904
0.00048590403
0.00048594241
0.00048598387
0.00048602806
0.00048607467
0.0004861234
0.00048617393
0.00048621795
0.0004862521
0.00048627211
0.0004862841
0.00048629494
0.00048630478
0.00048631383
0.00048632232
0.00048633049
0.00048633863
0.00048634705
0.00048635613
0.00048636629
0.00048637802
0.00048639188
0.00048640854
0.00048642868
0.00048645319
0.00048648279
0.00048651855
0.00048656105
0.00048661139
0.00048666947
0.00048673622
0.00048681018
0.00048689147
0.00048697683
0.00048706435
0.00048674503
0.00048713718
0.00048672751
0.00048672237
0.00048671711
0.00048671131
0.0004867053
0.00048669875
0.0004866919
0.00048668449
0.00048667673
0.00048666837
0.0004866596
0.0004866502
0.00048664034
0.00048662979
0.00048661872
0.00048660691
0.00048659453
0.00048658136
0.00048656755
0.00048655289
0.00048653753
0.00048652127
0.00048650424
0.00048648625
0.00048646745
0.00048644761
0.00048642691
0.00048640513
0.00048638243
0.00048635861
0.00048633378
0.00048630794
0.00048628093
0.00048625293
0.00048622375
0.00048619358
0.00048616225
0.00048612996
0.00048609654
0.00048606223
0.00048602689
0.00048599071
0.0004859537
0.00048591598
0.00048587767
0.00048583888
0.00048579981
0.00048576064
0.00048572159
0.00048568293
0.00048564495
0.00048560796
0.00048557232
0.00048553838
0.00048550655
0.0004854772
0.00048545072
0.00048542749
0.00048540786
0.00048539213
0.00048538057
0.00048537338
0.00048537071
0.00048537264
0.00048537915
0.00048539022
0.00048540568
0.00048542534
0.00048544896
0.00048547623
0.0004855068
0.00048554032
0.00048557638
0.00048561457
0.00048565447
0.00048569566
0.00048573774
0.00048575041
0.00048574512
0.00048574453
0.00048574876
0.00048575783
0.00048577172
0.00048579032
0.00048581351
0.00048584105
0.00048587271
0.00048590819
0.00048594716
0.00048598932
0.0004860343
0.00048608176
0.00048613137
0.00048618279
0.00048623574
0.00048628994
0.00048633115
0.0004863634
0.0004863742
0.00048638395
0.00048639286
0.00048640117
0.00048640917
0.00048641714
0.0004864254
0.00048643434
0.00048644437
0.00048645597
0.00048646965
0.00048648604
0.00048650575
0.00048652953
0.00048655803
0.0004865921
0.0004866322
0.00048667915
0.00048673281
0.00048679371
0.00048686059
0.00048693317
0.00048700881
0.00048708545
0.00048675497
0.00048713376
0.00048672387
0.00048671864
0.00048671318
0.00048670724
0.00048670102
0.00048669428
0.00048668722
0.0004866796
0.0004866716
0.000486663
0.00048665398
0.00048664431
0.00048663416
0.00048662332
0.00048661195
0.00048659983
0.00048658712
0.00048657361
0.00048655945
0.00048654443
0.00048652871
0.00048651207
0.00048649467
0.00048647629
0.00048645709
0.00048643686
0.00048641575
0.00048639356
0.00048637046
0.00048634622
0.00048632098
0.00048629473
0.0004862673
0.00048623889
0.0004862093
0.00048617872
0.00048614699
0.0004861143
0.0004860805
0.00048604581
0.00048601011
0.00048597359
0.00048593628
0.00048589828
0.00048585973
0.00048582076
0.00048578156
0.00048574233
0.0004857033
0.00048566473
0.00048562694
0.00048559025
0.00048555501
0.00048552161
0.00048549041
0.00048546184
0.00048543626
0.00048541406
0.00048539559
0.00048538115
0.00048537101
0.00048536538
0.00048536441
0.00048536816
0.00048537664
0.00048538982
0.00048540753
0.00048542959
0.00048545575
0.00048548571
0.00048551913
0.00048555563
0.0004855948
0.00048563622
0.00048567946
0.00048572409
0.00048575707
0.00048574961
0.00048574321
0.00048574172
0.00048574524
0.00048575381
0.0004857674
0.00048578592
0.0004858092
0.00048583702
0.00048586913
0.00048590521
0.00048594492
0.00048598792
0.00048603384
0.00048608229
0.00048613293
0.0004861854
0.00048623938
0.00048629456
0.00048635069
0.00048640554
0.00048643976
0.00048645811
0.00048646681
0.0004864749
0.00048648266
0.00048649039
0.00048649843
0.00048650716
0.00048651698
0.00048652835
0.00048654175
0.00048655774
0.00048657686
0.00048659978
0.00048662701
0.00048665926
0.00048669685
0.00048674038
0.00048678964
0.0004868449
0.00048690504
0.00048696956
0.00048703634
0.00048710341
0.00048676338
0.0004871306
0.00048672052
0.00048671521
0.00048670956
0.00048670349
0.00048669709
0.00048669018
0.00048668291
0.00048667509
0.00048666687
0.00048665805
0.00048664878
0.00048663886
0.00048662845
0.00048661734
0.00048660567
0.00048659326
0.00048658024
0.00048656641
0.00048655192
0.00048653657
0.0004865205
0.00048650351
0.00048648574
0.000486467
0.00048644742
0.00048642681
0.00048640532
0.00048638275
0.00048635925
0.00048633461
0.00048630898
0.00048628232
0.00048625449
0.00048622567
0.00048619567
0.00048616469
0.00048613254
0.00048609945
0.00048606525
0.00048603017
0.00048599409
0.0004859572
0.00048591954
0.00048588123
0.00048584238
0.00048580315
0.00048576374
0.00048572434
0.00048568521
0.00048564661
0.00048560886
0.00048557229
0.00048553726
0.00048550416
0.00048547337
0.0004854453
0.00048542035
0.00048539889
0.00048538128
0.00048536783
0.00048535881
0.00048535444
0.00048535487
0.00048536018
0.00048537038
0.00048538544
0.00048540521
0.00048542951
0.00048545809
0.00048549066
0.00048552685
0.00048556631
0.00048560861
0.0004856533
0.00048569995
0.00048574808
0.00048575478
0.00048574224
0.00048573465
0.00048573218
0.00048573497
0.00048574303
0.00048575636
0.00048577484
0.00048579831
0.00048582652
0.00048585922
0.00048589604
0.00048593665
0.00048598067
0.00048602769
0.00048607731
0.00048612915
0.00048618282
0.00048623799
0.0004862943
0.00048635149
0.00048640925
0.00048646736
0.00048651017
0.00048653664
0.00048654436
0.00048655174
0.00048655907
0.00048656671
0.00048657502
0.0004865844
0.00048659528
0.00048660812
0.00048662342
0.00048664167
0.00048666342
0.00048668913
0.00048671934