/*--------------------------------*- C++ -*----------------------------------*\
| =========                 |                                                 |
| \\      /  F ield         | foam-extend: Open Source CFD                    |
|  \\    /   O peration     | Version:     4.1                                |
|   \\  /    A nd           | Web:         http://www.foam-extend.org         |
|    \\/     M anipulation  |                                                 |
\*---------------------------------------------------------------------------*/
FoamFile
{
    version     2.0;
    format      ascii;
    class       volScalarField;
    location    "0.3";
    object      p;
}
// * * * * * * * * * * * * * * * * * * * * * * * * * * * * * * * * * * * * * //

dimensions      [0 2 -2 0 0 0 0];

internalField   nonuniform List<scalar> 
4242
(
-13476.729
-13082.352
-12688.707
-12199.181
-11651.726
-11027.725
-10325.794
-9547.3954
-8699.0256
-7793.9928
-6852.62
-5900.9602
-4969.974
-4098.398
-3319.4178
-2566.9944
-15934.884
-15432.812
-15007.17
-14488.603
-13915.047
-13268.978
-12553.118
-11768.735
-10919.909
-10014.251
-9063.3482
-8082.7576
-7092.3182
-6119.9457
-5200.8083
-4331.6536
-19788.797
-19169.563
-18698.551
-18106.701
-17450.823
-16710.713
-15889.78
-14988.351
-14010.924
-12965.747
-11864.972
-10724.349
-9562.4747
-8401.2293
-7268.3955
-6206.9631
-24390.678
-23656.414
-23129.071
-22429.702
-21656.233
-20778.666
-19800.682
-18721.1
-17544.831
-16281.513
-14946.164
-13559.044
-12144.663
-10729.722
-9341.4464
-8033.4899
-27865.617
-27040.488
-26480.355
-25699.615
-24847.289
-23873.959
-22785.612
-21579.183
-20259.524
-18836.564
-17326.611
-15752.283
-14141.706
-12526.407
-10936.023
-9397.9663
-29665.588
-28777.448
-28209.562
-27386.854
-26501.475
-25485.047
-24347.655
-23084.788
-21701.082
-20206.125
-18616.279
-16954.551
-15249.857
-13535.593
-11845.77
-10228.963
-29801.346
-28891.034
-28339.016
-27517.848
-26639.628
-25629.992
-24500.409
-23246.428
-21872.349
-20387.437
-18807.646
-17155.479
-15459.202
-13751.655
-12064.587
-10450.525
-28333.715
-27448.237
-26928.527
-26150.604
-25313.62
-24355.191
-23283.418
-22095.568
-20795.896
-19393.684
-17904.349
-16349.242
-14754.702
-13151.054
-11565.07
-10047.653
-25393.291
-24582.239
-24109.731
-23415.357
-22655.353
-21792.723
-20829.569
-19765.051
-18603.609
-17354.391
-16031.8
-14655.279
-13248.41
-11838.626
-10450.236
-9128.4638
-21198.67
-20510.565
-20096.894
-19522.621
-18877.454
-18153.324
-17348.313
-16462.178
-15499.3
-14467.96
-13380.37
-12252.387
-11102.572
-9952.1798
-8820.3081
-7743.6228
-15945.432
-15435.144
-15104.143
-14682.869
-14196.802
-13657.445
-13063.272
-12412.875
-11709.366
-10958.966
-10170.071
-9352.5126
-8516.1036
-7669.4827
-6814.6305
-5949.2496
-11257.244
-10944.136
-10702.363
-10440.041
-10111.819
-9728.8548
-9303.1902
-8839.6282
-8343.0904
-7820.6632
-7280.1779
-6728.3514
-6168.9674
-5602.2498
-5023.6831
-4379.5455
-3651.2193
-3383.0223
-3158.6013
-2890.8516
-2592.0816
-2262.7419
-1906.2298
-1528.3255
-1137.2517
-743.58981
-359.83909
0.10665091
319.90956
580.80309
785.42273
996.53528
1370.0623
1544.5593
1702.1933
1879.4505
2071.4867
2275.6714
2487.4495
2700.1223
2904.6692
3089.8734
3242.9722
3350.5977
3398.7846
3372.5149
3265.6371
3116.7699
6074.6581
6166.3525
6251.3997
6340.9885
6431.5228
6518.3117
6594.8858
6652.7967
6681.6776
6669.7154
6604.6612
6474.885
6269.1687
5977.0282
5603.3011
5206.9051
9807.5979
9839.8168
9865.669
9884.4428
9891.9343
9882.1203
9847.1905
9777.5042
9661.8164
9487.9674
9244.0388
8919.1934
8503.0573
7987.3484
7384.9307
6767.9278
12188.739
12188.992
12179.833
12156.414
12113.281
12043.373
11937.929
11786.579
11577.739
11299.497
10940.767
10491.801
9943.5502
9292.7398
8572.9678
7897.5553
-19806.367
-19187.133
-18715.938
-18123.925
-17467.642
-16726.909
-15905.029
-15002.291
-14023.215
-12976.172
-11873.565
-10731.479
-9568.8419
-8408.4524
-7281.3084
-6229.4371
12724.315
12712.876
12689.8
12651.179
12591.741
12504.857
12382.509
12215.354
11993.001
11704.61
11339.901
10890.303
10350.065
9718.3513
9005.7525
8248.5082
12748.059
12736.281
12712.486
12672.723
12611.652
12522.592
12397.519
12227.167
12001.337
11709.521
11341.865
10890.228
10349.348
9719.6988
9015.6149
8278.3068
12198.853
12198.752
12189.01
12164.735
12120.414
12048.931
11941.501
11787.774
11576.276
11295.32
10934.161
10483.427
9934.5473
9285.7656
8574.0985
7912.0403
9775.9947
9808.577
9834.8456
9853.9967
9861.7659
9852.0717
9817.05
9747.0213
9630.7402
9456.148
9211.5552
8886.0191
8467.2554
7943.6002
7336.1701
6762.6689
6025.2545
6118.0076
6204.2196
6295.1604
6387.2368
6475.7509
6554.2254
6614.2011
6645.3046
6635.7914
6573.6446
6446.9997
6241.3229
5939.5116
5560.4556
5250.4715
1338.9402
1514.6588
1673.4471
1852.1798
2046.0273
2252.4061
2466.8194
2682.6325
2890.8895
3080.4697
3238.8023
3352.5639
3406.7583
3385.0707
3285.5921
3140.9651
-3659.3932
-3390.3396
-3165.4662
-2897.0017
-2597.3835
-2267.0514
-1909.3983
-1530.2078
-1137.737
-742.64111
-357.52759
3.4648442
323.06201
580.26703
775.75199
980.73006
-11266.322
-10953.891
-10712.03
-10449.431
-10120.645
-9736.7023
-9309.5253
-8843.7957
-8344.3305
-7818.1572
-7273.0998
-6715.8598
-6149.9104
-5574.3719
-4978.3719
-4324.1021
-15950.467
-15440.547
-15109.354
-14688.135
-14201.874
-13662.048
-13067.081
-12415.506
-11710.423
-10958.154
-10167.351
-9348.3043
-8511.518
-7667.0699
-6818.676
-5983.322
-21204.921
-20516.957
-20103.103
-19528.889
-18883.509
-18158.98
-17353.312
-16466.237
-15502.178
-14469.575
-13380.947
-12252.579
-11103.453
-9955.3224
-8825.6366
-7756.1265
-25402.358
-24591.342
-24118.649
-23424.235
-22663.907
-21800.776
-20836.84
-19771.259
-18608.545
-17358.051
-16034.54
-14657.923
-13252.249
-11845.454
-10460.379
-9149.5223
-28344.976
-27459.498
-26939.609
-26161.567
-25324.174
-24365.125
-23292.398
-22103.268
-20802.065
-19398.289
-17907.726
-16352.173
-14758.355
-13156.591
-11571.382
-10059.633
-29814.43
-28904.119
-28351.942
-27530.621
-26651.96
-25641.637
-24510.993
-23255.585
-21879.785
-20393.084
-18811.811
-17158.931
-15463.079
-13756.774
-12070.057
-10461.954
-29680.511
-28792.387
-28224.381
-27401.527
-26515.725
-25498.61
-24360.141
-23095.81
-21710.324
-20213.493
-18622.054
-16959.49
-15255.033
-13541.593
-11852.556
-10241.387
-27882.227
-27057.141
-26496.899
-25716.02
-24863.287
-23889.28
-22799.868
-21591.981
-20270.538
-18845.689
-17334.122
-15758.956
-14148.605
-12534.262
-10946.293
-9414.2833
-24408.561
-23674.344
-23146.893
-22447.398
-21673.537
-20795.315
-19816.3
-18735.292
-17557.255
-16292.028
-14954.998
-13566.915
-12152.606
-10738.95
-9355.0848
-8054.7166
-15947.257
-15445.283
-15019.561
-14501.024
-13927.313
-13280.958
-12564.589
-11779.413
-10929.464
-10022.358
-9069.7505
-8087.3949
-7095.6153
-6123.7048
-5208.4917
-4337.001
-13479.794
-13085.844
-12692.528
-12203.602
-11656.622
-11032.982
-10331.161
-9552.483
-8703.3219
-7796.958
-6853.8848
-5900.7225
-4969.5925
-4100.9032
-3329.0458
-2586.9206
-1380.9579
-1313.5507
-1227.4255
-1157.679
-1141.8668
-1191.1234
-1300.0732
-1459.882
-1658.5281
-1878.0752
-2095.2996
-2284.0646
-2418.3035
-2476.5357
-2453.9884
-2339.4501
-1811.1921
-1776.2419
-1762.1962
-1751.8195
-1724.4332
-1696.4058
-1698.6082
-1742.3912
-1811.1283
-1884.4991
-1949.4119
-1990.3903
-1988.6908
-1929.8802
-1816.2045
-1656.4696
-1950.2893
-1918.5343
-1895.1987
-1873.623
-1862.1195
-1862.879
-1847.5753
-1789.9941
-1708.9937
-1650.7121
-1624.2125
-1576.4208
-1463.6308
-1275.1701
-1028.5956
-740.51493
-2062.5327
-2037.9593
-2018.402
-2002.3874
-1990.3445
-1984.2894
-1992.667
-2033.6071
-2115.7476
-2192.3152
-2169.4699
-1988.405
-1555.1392
-1029.3866
-508.46425
-17.880678
-1492.2671
-1490.4322
-1496.2479
-1511.9017
-1538.8315
-1578.6601
-1632.7279
-1701.8154
-1787.7788
-1899.4297
-1978.0526
-1854.5488
-1348.5791
-675.77893
18.157339
694.29705
-364.9297
-378.16649
-400.96733
-434.50901
-480.20121
-539.001
-610.99799
-696.99765
-803.05633
-933.99319
-1040.0749
-935.74677
-583.18244
-28.594973
606.37075
1234.446
-304.23262
-318.04603
-342.34146
-378.38378
-427.74452
-491.46337
-569.54082
-662.24041
-773.51697
-902.70988
-994.85578
-880.89122
-520.73711
20.583027
608.93993
1214.3747
-1461.2607
-1460.726
-1468.0639
-1485.2851
-1513.8316
-1555.3248
-1611.2187
-1682.8245
-1771.0921
-1874.7409
-1916.5943
-1748.4951
-1244.2969
-576.93602
116.10139
785.36719
-2046.4013
-2022.9117
-2004.1736
-1988.7768
-1977.3231
-1971.9359
-1981.1661
-2023.2067
-2105.0755
-2172.9745
-2130.1323
-1921.6409
-1481.4217
-948.64408
-413.09997
107.92012
-1954.7232
-1923.9372
-1901.3335
-1880.4163
-1869.5266
-1870.4955
-1854.3255
-1795.411
-1713.4841
-1652.5828
-1616.7868
-1554.7685
-1426.7861
-1224.434
-966.7416
-668.37581
-1830.3696
-1796.1555
-1782.2712
-1771.2308
-1742.6701
-1713.4182
-1713.9895
-1754.9271
-1819.085
-1886.5728
-1944.404
-1977.2811
-1967.2546
-1901.2076
-1784.3578
-1605.1595
-1410.5145
-1343.856
-1257.9593
-1187.4735
-1169.9485
-1216.4675
-1321.8214
-1477.2999
-1670.9401
-1884.9004
-2096.0798
-2278.5207
-2406.5192
-2459.7419
-2437.9135
-2314.4259
-6389.6993
-7933.9687
-7488.5086
-7083.9751
-6608.8545
-6078.3583
-5500.8033
-4882.6909
-4236.4988
-3579.2834
-2930.5091
-2313.6422
-1761.0791
-1284.1228
-779.17878
-6397.1185
-7932.4422
-7488.8891
-7084.5637
-6609.6051
-6079.1839
-5501.5062
-4882.964
-4236.044
-3577.9026
-2928.3427
-2311.1446
-1757.9328
-1275.9272
-779.88669
-3705.1251
-5184.8156
-5177.631
-5003.6994
-4910.4345
-4841.746
-4762.8342
-4667.4884
-4554.2703
-4419.9746
-4259.1116
-4063.6673
-3826.308
-3547.4174
-3076.772
-3679.1473
-5164.6301
-5157.4819
-4984.7379
-4893.5296
-4827.5058
-4751.8742
-4660.4604
-4551.8456
-4422.8273
-4267.906
-4079.1283
-3847.9667
-3578.86
-3199.8438
-4476.5831
-4497.3635
-3956.6872
-3925.3509
-338.79689
-840.39393
2372.9737
-802.27428
-1438.0004
70.93434
208.58466
444.68526
443.76232
-472.94577
-603.45569
-21.599572
1436.2236
-1418.0766
288.14305
-1874.6724
-526.56377
-2461.6569
-1644.1988
-1826.4336
-1739.2864
1496.4904
494.41769
591.18319
941.32855
23.192589
-514.18465
-1867.4961
-970.63815
-3265.1886
43.757662
-296.41745
-908.19861
-1374.4149
1228.0307
-754.32148
25.628413
1140.8789
-828.95781
-590.24065
747.92054
-14.424214
429.77105
-3168.1278
428.67695
2981.7149
-350.86234
840.0505
353.1739
349.68158
-4077.8899
5206.0053
1512.6347
-669.6252
-3823.1461
-1197.3663
-730.13359
207.36055
584.00277
-508.67613
-446.77845
346.58261
329.41224
-503.5435
-4405.4252
-433.44635
34.536857
-333.4553
-838.95633
-369.35298
165.64858
-1550.6378
240.40209
-44.842521
-47.926164
506.67008
-767.45969
144.90345
-98.29341
-58.179605
-304.67868
-3223.76
-3467.5928
-445.2084
-653.60438
-1032.1465
556.91886
-6.2385759
-3644.7982
-44.666966
-620.35982
8.5797183
3332.008
-1089.232
986.76312
1238.0988
-6.3902076
2670.4022
-3928.1771
1345.9041
-38.224042
-677.57005
5.0708749
19.698369
-654.28179
-1536.9021
-839.55307
-35.344887
-827.12509
-3355.0464
-4524.1821
1741.9981
-893.65782
643.07915
-2023.5655
-86.711453
2013.6836
74.850118
-46.656711
1827.412
1708.0738
-857.47177
1169.6122
-875.19933
-2573.9727
1068.9901
-323.78027
-3313.1531
-882.94661
1521.8839
-1019.9134
565.11543
-39.913856
-47.547911
-12.549187
-1099.7645
2760.2393
-4.4504133
-4048.353
-594.68858
962.00228
-703.48818
-1532.5385
-494.07961
-8.2330626
-4.1898303
-562.25631
-824.01319
-249.78019
290.05112
278.84102
-482.39702
136.80226
1991.2688
-82.94578
846.39565
-3547.2528
-339.08556
-108.7485
-0.46709959
-8383.7146
-8351.2497
1074.4844
1573.0272
-263.56937
-53.685
-256.32043
277.9012
-1863.5719
-27.374919
-1738.6012
3136.4849
125.69928
-36.244176
-433.08255
1060.0179
-153.52862
-37.772819
-537.06947
-348.20392
352.194
-1706.3349
-1347.9726
232.44274
206.90199
473.32109
1011.0425
-31.543074
230.81493
-781.80101
-57.922588
-27.199209
-2093.9095
1433.0821
-415.48969
626.55849
-23.087539
113.20003
205.25882
3503.5754
341.91997
169.23371
-2457.4551
-159.95411
1593.6462
606.23288
1324.0531
-103.73485
1976.6895
-9.735156
-489.96451
-347.97271
-188.62033
157.40715
-52.640022
55.700883
-48.172516
863.3016
1168.8305
490.94305
-741.83855
-924.65244
-86.086005
-27.197296
-613.91247
1657.0216
1647.2259
-20.082128
-1100.2574
556.81831
1693.5886
2358.0069
-65.137165
-1258.7946
-2305.9748
262.75214
-174.68372
938.20616
-716.39729
-53.016337
57.421103
31.926475
247.2527
-1307.7141
2252.7513
-373.7269
-1288.4443
607.50891
45.633092
-1357.5497
379.71499
3257.0726
-1.7161061
11.963374
-1392.7617
5.3090262
1380.5338
183.47432
-42.586897
-641.28161
-785.33797
-19.191507
-65.965038
-90.003768
-437.44391
-251.40669
42.960987
-931.70558
-40.287764
-564.23543
35.304048
-470.95351
-180.33858
1419.2609
-1981.4011
-134.34655
2055.3711
1639.6868
-276.45395
33.137572
-197.77675
-115.9186
119.46166
-3009.9917
889.58323
-1744.6426
-15.550801
-292.49661
189.69095
-234.26032
341.95837
920.4767
-2917.7671
19.358647
2079.7031
-876.8499
150.48705
975.19445
238.67212
-886.75553
67.010361
-2236.3392
-1566.8381
2413.1995
3241.3475
-958.75552
200.88779
-129.4088
-576.64165
1100.5148
-2333.0879
-821.55867
-22.159762
-895.74111
-242.98494
-62.813418
104.6642
57.533873
3929.7358
-896.24183
-2506.4482
1284.1302
39.900383
-37.470061
79.619604
-390.5098
-2623.2398
42.20723
-14.700975
-9.5339229
5164.0417
-240.91179
-300.40726
788.81355
-1003.4818
-2344.3533
-526.39943
-13.863255
-72.941851
18.584898
-3176.4922
-993.90638
-21.241663
1829.9365
-2.8643849
12.380076
-3054.9083
52.820898
-1555.646
27.254065
-13.849266
-4387.69
528.05179
261.22004
-544.49695
-3121.4428
-900.49494
-86.893219
-2264.3556
531.99344
201.21378
708.25979
-15.737842
-4015.9383
2601.6118
1207.4329
149.13429
-3069.4334
3.5386798
1467.7352
-3028.7555
-3635.1134
3438.1557
-80.380749
224.90355
268.21242
563.44581
-1259.636
-3534.9128
137.74416
-1128.2989
1528.6796
1206.5845
-401.46762
-1230.2159
-279.6019
-619.85108
-4.0571738
190.78244
-4784.9476
-33.901058
267.68765
-4675.4081
-45.821479
127.25918
-649.13582
-187.46259
532.48349
4747.4345
-927.95321
36.94824
-1381.1033
41.888718
-2422.8463
773.21365
-1126.7788
-500.28857
-193.91268
644.08532
-62.27913
-275.46008
640.03699
-42.703349
-326.82851
-210.00787
262.2445
287.47353
-10.86261
-709.5449
-26.6652
-977.46667
-135.38171
-504.10736
524.98734
1598.4481
2446.3161
-2526.4155
-22.3974
1313.0821
23.604123
322.39726
289.25581
-820.62548
-876.31077
1389.8772
169.73093
5.5593008
-2355.7807
-2281.4419
-433.87557
-3491.9687
-1898.789
-623.428
-15.692699
-2580.6198
-974.38395
-49.711144
-47.095201
-535.26933
789.50525
-53.533774
-1765.8981
-2501.5438
-8.9481085
-1298.4718
64.193951
-850.21865
-202.62253
3.6007302
325.88518
349.70398
1799.1679
157.59414
-665.92824
219.52968
660.90217
545.27049
1050.492
1360.6174
-870.55223
659.88587
-83.441544
2213.9909
-288.6491
-226.89772
-829.36195
-66.352543
-51.964474
5346.5777
-133.98003
-839.45159
-2190.6942
-1148.1743
-18.427725
-1686.1832
-3519.1642
-25.545033
903.96033
500.97158
-4134.5157
867.62435
18.599213
-1333.5578
-758.41774
-3416.9507
-739.7181
-149.88931
167.91227
4.9645408
-409.33537
287.25117
-203.31853
2334.4956
265.61969
244.4666
-1193.5526
-8045.7932
-657.19578
-4.9848588
1063.6386
-2.0445003
-108.99824
-934.60822
-538.68056
-2188.9333
-8013.7707
-164.95227
571.41129
-36.604459
683.04954
-72.961264
-618.79387
307.84631
-171.2288
-4031.5019
-449.84408
-2382.4382
206.88833
-3239.5363
1607.5455
299.60365
-3534.6944
1537.0278
111.63112
-4548.2624
1470.986
384.56407
384.87506
625.83385
560.15139
-7416.0382
-1223.9108
-2674.5487
-54.010726
-2584.1841
1491.539
710.02187
700.19172
200.33594
-1044.7889
-615.47107
-1.5085822
-23.30145
1403.0736
-2155.9524
-763.55717
10.366556
-7411.1549
2372.6129
-2665.7639
-1132.8471
-172.07397
-3259.2553
-2072.1399
-82.684819
-4785.7273
-981.74145
-390.76309
579.72072
610.70132
-609.46931
-2248.0908
-3083.2098
1498.4406
2291.8576
2152.224
418.26512
-124.21996
682.23153
1324.3193
2417.8204
1010.9177
3255.4615
-20.169307
534.31114
1029.4558
49.561433
-577.17943
-7.8778658
859.58875
1622.1686
462.57473
-4750.5998
555.36478
-261.27255
5337.2561
790.71467
-17.591622
5107.7069
1527.8275
-760.74546
-791.1514
1250.1466
5080.1292
-1958.4243
-298.83527
1218.6933
-176.40918
2976.7343
1232.0543
1336.5935
-880.22763
5.4490679
1519.5181
1362.9962
5326.3998
385.44487
-41.223639
567.68143
-1267.0025
-1118.7139
-881.80416
-4130.4736
5298.2783
-613.07829
-27.822802
-584.88048
2473.2273
2017.963
-2203.1912
-2154.7898
30.070717
1231.5537
-2466.377
-4020.2888
-1181.2765
-1876.4784
297.74631
290.86292
-267.80196
-519.61165
-220.20092
287.51212
-602.25397
-1629.061
847.52308
-797.81712
-312.37958
-2561.45
4356.6694
-1850.3388
318.58334
-21.75739
73.542448
564.65838
-678.00332
5002.2937
-626.5363
-10.300447
891.51496
-53.326113
-3965.3714
-60.345304
-1118.428
1.9572767
-570.80132
101.14926
-2663.0661
2260.8786
-2527.6372
32.138738
474.38934
-1688.0437
1767.9912
-79.967114
2399.8797
-515.70602
6327.1323
-233.02589
-419.09919
-3874.9185
3825.637
-2714.6026
-12.431117
-28.301926
119.97175
39.941717
-3643.15
693.52779
574.86464
352.22409
-6923.5809
-11.329018
652.82132
-38.924485
-6943.8972
389.42049
21.223773
-1907.3198
-61.89051
111.38033
1385.268
-1013.5886
-5127.6065
436.0142
-444.00746
7.5288704
10.127033
-848.32007
-1164.0037
508.74914
-220.91602
773.08647
-498.50584
2215.3942
-5136.9297
-288.20688
-618.44645
-5017.7816
635.58214
1404.7773
11.412897
-1016.1032
-53.584788
1296.7492
1073.1451
-1343.9063
287.4266
-4.9807433
-690.67267
577.53992
1687.1314
573.01131
-273.13289
1366.7368
25.938603
-5011.2564
926.48993
-172.9533
-1540.7296
-188.2096
-429.33157
-893.81459
-75.760349
-492.37791
-994.85491
92.12761
-15.928815
-1830.5581
-856.2478
-778.0548
-703.87406
-289.99821
-3171.2293
-1973.1447
-1912.8395
497.11554
-1862.5399
2501.4207
119.40003
422.74806
-858.85653
464.20855
-2936.4539
70.80579
-1535.4864
-3246.5363
-933.3329
-193.0657
-1686.086
-677.72011
-442.11824
40.967219
-850.85538
1218.9909
-261.75351
1.2414778
605.51442
1278.2046
-1068.6485
2389.3956
-1416.5925
7476.7949
954.75769
-1453.1496
-528.59957
10.837417
369.24317
1677.3492
-816.51622
-16.587629
-74.265479
122.69416
532.97093
-269.94756
-12.991338
-119.84729
-11.97572
2314.9046
-32.638978
1106.9094
1627.5814
1398.9545
1279.7193
1043.4574
530.59563
-31.809066
511.70277
-845.76523
-417.68175
3.8719481
46.581956
2450.794
-1153.7004
-2319.8588
246.52984
1449.5878
-429.07426
1580.3629
692.64909
-690.74751
3019.8517
51.707868
-185.44354
-386.7115
8.4138474
-1.3295759
-275.00995
89.413481
5260.6933
-137.10518
-403.76976
955.764
88.34842
130.21035
16.808796
-72.767746
1500.5975
-648.48958
-492.86322
-138.74343
755.90821
109.27538
368.0871
-275.25222
-23.142634
-51.972527
377.94899
1183.5262
483.40321
-1115.3919
10.499263
-27.867542
-1777.0833
465.87223
-187.78069
-395.05179
4887.7011
-1032.1106
4869.369
-2387.8574
-1160.5733
162.98708
-627.88704
640.32654
-31.687396
1932.0199
-6.2322906
1224.443
-276.15752
-1114.0871
-1359.9447
-4753.0282
419.09623
-31.010208
-588.24915
1423.2992
-897.52327
1439.8397
-873.14751
-277.49375
1168.9703
557.83392
-76.499885
266.54571
-174.80776
-4654.6214
128.12014
7339.3264
-3588.6944
-1079.4031
38.978566
4244.9453
601.56631
-5143.6035
-779.07315
-9.0798302
-427.43265
-913.44069
-4435.8815
-448.49458
566.05287
-4345.5015
-807.51683
871.5919
35.821132
-224.66759
-415.3155
-27.0945
77.741245
1.6214013
597.26025
117.47573
-4.0184722
-439.5587
1618.8503
1021.6682
2454.496
1329.0442
-2361.6996
-3484.9695
24.217383
-1356.1105
108.2522
-4521.4788
-1964.2973
-793.59428
-668.77589
-1382.6236
1403.6221
-823.64518
15.877336
-931.17578
-169.78712
1390.362
-361.44833
110.75867
40.920595
-4656.787
-742.77196
42.500732
-23.423799
17.263192
747.58165
402.29186
6595.3241
-7.0999764
-2.9382656
-51.121433
-341.69234
-4325.3626
-2421.8181
-1132.853
-1339.6859
-1095.0506
2329.139
3817.3802
-4050.1246
-14.901514
1702.1137
-4801.7778
-459.31435
433.7769
-3464.5944
-3747.3538
814.93659
66.640972
611.87515
-24.443716
-314.5347
-1360.1132
1361.4103
2961.1693
-3410.7116
169.39637
3319.9516
-68.500786
377.24547
-286.56611
2030.0916
-347.95409
-344.3853
83.18144
-8.5734625
-184.7697
-2413.025
6024.0611
-2864.9687
-2549.4351
-140.72809
-2410.5552
3817.77
-2325.1354
1456.6466
-1109.365
-2015.2929
-32.595711
167.996
336.78203
-1240.622
72.907493
-3333.8135
430.64012
1090.4196
2742.5889
-1556.5262
-1659.8138
1396.5744
-393.02068
87.335403
-191.09867
-4898.3155
-2981.7854
-593.49612
-448.49254
-1007.2617
-61.490972
601.36938
1654.4203
663.28622
-3278.4469
-65.56406
-1858.5846
-129.87305
47.84271
2829.5382
1545.7647
-76.926886
1381.4912
-604.37152
1675.9749
156.35527
-376.99144
825.48229
3685.5673
-8816.6442
1064.776
-114.98099
-2524.5967
3.4763251
-8780.2037
-59.019221
969.26996
-1602.3754
-31.976934
758.50067
-408.19506
271.11006
-3598.268
-5201.9773
-188.36524
-74.313279
123.13788
-257.92748
2343.7127
-2747.7663
-2412.1651
1470.6788
-34.989154
-2987.1042
103.3129
552.01017
970.56966
-2701.5951
209.31281
219.41613
-711.39081
-406.56605
-1685.9078
-15.997164
54.907363
-4269.2516
106.43758
79.532357
-769.92115
-283.65976
-6004.1659
-220.51143
4566.1165
-5912.0797
2251.8138
-2674.8626
-114.5304
1688.1333
-154.78081
-707.74226
-8044.2288
-940.40316
6004.0779
91.417929
-4159.5306
-2496.7876
667.65625
-7997.7627
480.54233
-60.817152
2588.9399
62.092561
231.41637
-102.05067
1882.951
-763.85685
-29.840934
-224.77312
-3186.7686
21.946446
403.07355
-935.5055
-658.16728
94.059346
-35.044409
720.18005
7525.3842
-63.976443
1800.9148
-1393.9395
1088.5064
473.82304
385.97286
4689.4315
-146.39705
1461.8601
2024.4708
-1331.5388
1629.0778
-3980.0918
-892.68121
4.9031719
349.2384
-235.37168
3.3517695
-537.01178
261.05968
219.05952
-2078.7397
6586.9138
-2236.3255
1276.6048
-3875.9825
1098.3717
823.62631
-1090.3507
3025.9265
1515.8416
519.17019
852.86937
-263.78012
-89.758293
394.59199
-490.70468
-249.80359
-6906.7808
-6855.7639
-134.75208
-532.81585
-225.4786
-29.035764
-891.96866
-112.24533
-173.95071
-2600.3638
-86.74889
-835.97387
-1174.2173
-2.8734009
-833.39448
502.08397
-548.90873
-15.396303
452.38467
-8599.5011
1739.0352
8.3169445
-835.49531
1534.2017
-1382.5789
-8563.0185
-106.31167
20.498077
-1774.357
852.81066
-243.16086
-6994.331
-3.354488
2380.6531
-914.34796
102.61055
-16.452606
-402.52507
-6906.1423
1491.1782
43.723323
-1943.8529
-8.6093843
-928.51074
-3517.3874
1135.4147
1102.3151
-98.107149
883.53242
-168.50282
-1906.8489
-3413.7279
122.45638
-394.44251
-781.12928
-1498.9833
-105.19702
7031.6543
-74.308148
3826.4732
112.50789
4302.2857
-2006.3994
-1836.9132
-200.72359
477.53013
484.86176
1880.687
-1018.4054
17.072495
2187.7862
927.93011
-114.16866
-706.15048
-118.57905
1668.8508
730.93237
-23.140447
103.81871
-218.64561
-530.3014
-264.42721
523.53447
605.56473
-732.52422
221.14478
-4351.9196
758.51809
970.54156
243.87324
-597.26039
20.566727
-33.021977
4701.821
-333.67885
-535.29364
-55.910639
1797.9912
2918.3488
-3251.0528
-400.06994
-111.73159
1870.3185
6204.6477
-61.273952
97.547038
872.55202
-187.12852
-2.3206161
1.3359171
-905.07561
1486.7848
1.0097409
-672.87734
-1478.6684
493.14201
-5.2132431
-893.70413
-243.34814
-62.251166
-92.460858
-1787.3477
-510.26926
-4695.4617
-1741.451
0.36297353
-46.207987
-453.24828
1701.2605
1339.5675
764.55325
-2275.6215
-0.99869846
1099.2341
-1768.3508
-4582.3754
909.2919
3.3278534
907.00766
99.460969
-3861.8509
-5137.9073
71.092602
1158.0641
1170.6493
-154.39786
-2662.9496
22.409759
-466.9122
288.94486
2004.0212
-1865.8748
1248.2799
2028.9977
-54.598285
3587.2537
6158.9381
743.66085
93.09622
-2761.0712
1316.1418
-1860.5017
2261.6453
358.55677
-2204.864
432.31432
3090.2314
2393.8874
-5.146233
-4.2124514
-4458.3922
-89.916364
2279.0675
183.52703
156.03381
-5031.5718
114.90024
397.6884
2394.3069
-5752.0136
-1458.2021
-2644.0628
-2060.7793
3652.1794
1.1889656
86.688742
-914.76323
1113.4652
-617.67335
-1.5864647
-6194.1073
-78.483948
-97.09478
-6119.0544
82.120032
-6237.3512
-119.0687
161.70633
-379.55179
3.6594006
579.04231
1602.0903
99.987727
1.8962297
-835.52419
-95.610444
-872.40098
409.72275
-207.49846
439.57769
732.91642
-4346.9525
-6136.2246
-3007.0922
40.522449
-32.040089
2.6700877
79.507784
8.7155142
645.62595
139.88402
-15.351655
971.37487
1965.8138
-779.78069
3121.6488
-638.41164
-156.07673
-3988.4708
1055.3633
-7870.5255
1789.7727
-55.562957
-278.35496
300.57693
-868.18687
-873.01884
-5226.7779
-220.22927
669.05305
-118.3824
1294.3964
-44.215474
64.823744
-36.458989
-22.915029
2088.3786
-255.8763
-662.25268
-553.80803
772.32008
-1016.9856
-408.34682
-51.749262
-71.688142
-321.61852
4838.7704
-808.87267
-24.729988
-786.9505
1543.7751
-1258.5309
-2008.0774
884.81714
1003.3134
-7897.3612
-58.266218
-30.025103
1181.7588
-82.134
496.89576
-143.19634
-975.20287
4.123477
1405.8875
548.3905
5121.2643
-3377.0913
43.773057
383.67878
-5396.9097
-5384.7708
4929.4002
1303.8632
133.70584
-1335.0253
-203.56923
-73.015502
1949.193
-8.5953007
1390.8799
2808.1955
-52.869713
-2915.2987
2388.2005
-933.09645
48.192244
-125.19567
493.66862
1217.722
-623.30753
-29.508258
129.84101
130.61062
-1993.464
-3291.2462
-13.467051
-146.59381
-3083.9252
576.84288
-31.2439
-256.32026
1325.4612
-2090.0084
-30.788808
-555.0319
-29.002893
-95.818996
229.46216
-1271.636
-5588.7731
258.90787
6469.2775
1742.9102
214.55606
197.03632
1300.0306
19.083035
-4032.6196
114.10407
-4141.1145
456.35627
456.44299
-2825.4387
-1365.5781
-982.1318
792.05807
-3591.9569
-855.93795
4728.3697
3474.5302
-375.06837
7097.9559
884.79973
-4587.4033
-38.519417
-5778.0052
6052.2672
278.43222
-5484.4852
-4689.5748
-128.98628
-45.533485
-50.22092
1650.1364
5641.8928
-468.23097
-1427.3492
273.01397
503.31131
-1366.4717
523.59305
-212.74235
7.7345255
-663.03728
-79.334086
-494.8895
-3665.293
319.39189
-774.27055
-352.16466
-165.86481
-6009.9842
59.072504
-884.66688
-4489.9901
493.98018
1309.3005
-5969.0481
-193.49677
-1041.6473
-8.7521168
1597.7307
1356.4125
-1835.653
734.16929
6399.0216
1200.5487
-536.19696
500.55305
-90.481403
1060.5131
4304.2649
-240.86321
-254.15619
-731.32891
-6045.5083
-967.17246
1026.9493
52.713627
-33.183654
162.84159
-1060.8695
391.83251
3808.7115
-2547.8249
-1531.3733
-65.249208
409.55316
-58.595321
-71.744118
-85.86596
-6580.7797
1500.248
606.39699
2085.0953
-6487.2828
-216.77416
2174.4631
-2549.6617
-2849.7868
633.06981
-2353.6836
-702.86088
-6008.4062
-7821.9485
-7788.3169
2854.1057
-3.9541132
-3107.0352
-1449.9867
-64.883239
208.32359
-637.38856
-211.96926
-1935.2613
16.359367
-1990.1404
-889.00815
43.479269
-2345.229
238.01219
1915.8016
-741.9353
1616.0772
-1163.3667
-719.35382
1713.9217
-423.59309
-6807.3761
951.9757
-460.11404
-2093.3195
-185.50875
-869.83409
192.69399
-138.73556
112.79414
87.190303
2030.7398
-11.296802
-896.16289
539.31167
25.570926
-215.86709
-296.19903
-2791.6536
3028.5359
-75.160298
161.37883
-630.41676
-27.986787
-8.4919208
-187.03931
6428.8137
46.278862
-1483.4381
-5295.4959
4378.7476
-1182.5298
-526.29394
-82.282747
754.87176
2769.7852
-175.61338
-1632.371
-1996.8463
1490.5736
419.83596
1045.1957
-19.736605
-16.260473
1684.3932
-287.51384
-464.91756
-1693.9717
-2008.8921
24.352192
-1892.6337
4524.5692
-158.19017
-37.027939
-783.5201
-337.48046
-1076.9055
-8.3042765
-478.41888
1123.411
182.02947
-5186.6513
-6923.1999
-1158.9116
-300.50777
-5342.4203
5992.7253
-853.96712
-863.96557
147.12963
131.97573
-932.2962
83.720605
-1866.3135
1159.2747
-1.4088822
-128.7375
1044.5842
-60.175493
1333.7364
1181.0566
1019.7303
-1129.007
-11.804283
1066.5705
-2168.2195
455.77806
-966.85158
-147.47937
1324.3754
-8.1925041
3.5929192
854.85257
-61.430892
285.51645
-6850.3675
750.31785
384.66438
-2703.6651
-431.11493
40.05128
-427.09771
592.42473
-184.5473
-865.01322
1007.0722
-290.14359
-585.51976
2222.3146
-18.652867
-14.37208
5569.2953
2706.5232
-1127.4195
-156.4635
-1287.9953
-534.63745
470.76894
1179.2631
-411.5671
-1305.7077
17.589752
-45.152446
-1259.5232
1594.585
-932.48123
-120.5796
1384.1628
-893.44949
42.626711
-6.1851903
-4049.619
-726.29935
68.518829
-4162.4588
-1181.7583
1117.5424
5940.1219
4.1457683
-12.885886
60.287737
-3300.9983
-20.817696
70.689212
22.244591
-31.549022
-49.164881
-5421.4733
-1129.3777
74.549436
85.904178
-925.8923
-1526.6574
-6826.9254
3046.7053
8.7606933
1422.6977
-340.77846
1904.2487
1907.6041
-1307.6239
-5309.045
1610.114
-1113.4959
-1489.815
558.27412
1633.3234
730.01792
946.05268
-398.1128
-1928.3084
1700.4062
-224.50198
50.742877
-3.9658632
669.09628
160.88704
-15.167516
1112.2945
-89.891715
1186.9094
-44.642995
-76.833637
206.14154
691.52774
-890.69468
-8.9429884
29.865299
-282.50219
-2137.4878
-1.7595329
-2207.292
-74.952004
-136.55236
542.26667
-176.44181
3883.4721
832.80912
-295.21758
1575.9658
167.98897
3205.1521
741.69114
-1174.5567
-668.98493
-2863.5066
-51.040897
-180.97433
77.328468
-2287.6013
-3649.5468
-337.96867
-165.65271
-40.626276
-75.22083
3707.7545
958.5416
-45.996899
-4417.8158
189.37492
-200.70788
-1951.9127
213.21353
3677.6971
1249.411
-804.85462
129.23427
-5997.6248
-62.091723
-803.80887
2.4340543
-13.323399
-77.620652
-354.30225
102.13159
553.93403
-616.62906
840.10972
1213.7867
136.17788
115.96133
41.438575
-2802.216
-330.29724
-4333.3553
2295.1463
331.05103
-1137.752
-86.537312
2075.7091
-1850.3638
-7.5429838
-1118.6742
-177.55556
-94.697434
4.8545573
-180.20439
-1575.6883
38.586909
-5967.0814
-199.62281
221.48363
272.563
-202.64562
-1005.3504
-570.48336
68.911973
-738.61006
2092.8947
-787.20598
-2042.7839
4037.7717
-14.083608
-1228.7364
791.02001
-157.61238
-640.026
1294.1946
-967.04721
1771.0305
-5535.4298
-2860.6536
-923.69355
-259.8711
-176.16398
-103.68254
478.93195
23.691472
-3532.4777
-1243.1352
-104.07837
93.021806
138.11101
782.35895
439.7815
5405.226
49.445551
837.10013
-42.487791
-1240.7166
-2719.7264
-700.28698
-218.28346
-866.29405
39.093476
1719.0764
-700.68166
-146.14183
-705.36435
-12.833618
-349.97423
42.198149
-795.5467
444.74423
-1272.652
1390.3453
-46.742392
1420.0062
-517.60669
-717.91331
-21.16126
13.627104
1149.0108
2031.9171
-22.136592
261.45125
-6497.7533
1113.6888
-39.451835
-197.36345
554.17204
-2545.2175
61.712733
42.701244
4015.5184