/*--------------------------------*- C++ -*----------------------------------*\
| =========                 |                                                 |
| \\      /  F ield         | foam-extend: Open Source CFD                    |
|  \\    /   O peration     | Version:     4.1                                |
|   \\  /    A nd           | Web:         http://www.foam-extend.org         |
|    \\/     M anipulation  |                                                 |
\*---------------------------------------------------------------------------*/
FoamFile
{
    version     2.0;
    format      ascii;
    class       surfaceScalarField;
    location    "0.05";
    object      phi;
}
// * * * * * * * * * * * * * * * * * * * * * * * * * * * * * * * * * * * * * //

dimensions      [0 3 -1 0 0 0 0];

internalField   nonuniform List<scalar> 
8438
(
-0.59337391
0.002974673
-0.59642633
0.0030524159
-0.59953087
0.0031045424
-0.60270005
0.003169181
-0.60594582
0.0032457655
-0.60927981
0.003333987
-0.61271132
0.0034315097
-0.61624621
0.0035348904
-0.61988575
0.003639548
-0.62362548
0.003739723
-0.62745391
0.0038284315
-0.6313514
0.0038974898
-0.63528906
0.0039376677
-0.63922809
0.0039390245
-0.64311956
0.0038914698
-0.64690518
0.0037856167
-0.65051894
0.0036137629
-0.65389003
0.0033710911
-0.6569467
0.0030566672
-0.65962068
0.0026739851
-0.66185151
0.0022308266
-0.66358986
0.0017383462
-0.66479951
0.0012096504
-0.66545784
0.00065833815
-0.66555501
9.7170056e-05
-0.66509145
-0.00046356084
-0.66407774
-0.0010137131
-0.66253609
-0.0015416528
-0.66049995
-0.0020361358
-0.65801441
-0.0024855378
-0.65513684
-0.0028775709
-0.6519366
-0.0032002425
-0.64849313
-0.0034434718
-0.64489238
-0.0036007528
-0.64122213
-0.0036702509
-0.63756711
-0.0036550197
-0.63400474
-0.0035623679
-0.63060207
-0.003402663
-0.62741415
-0.0031879209
-0.62448366
-0.0029304891
-0.62184166
-0.002642008
-0.61950894
-0.0023327138
-0.61749789
-0.0020110576
-0.61581422
-0.001683662
-0.61445839
-0.0013558339
-0.61342612
-0.0010322675
-0.61271113
-0.00071499127
-0.61231733
-0.00039379901
-7.2381203e-05
-0.60703441
0.005726163
-0.60979983
0.005817831
-0.61261193
0.0059166441
-0.61548586
0.0060431174
-0.61843618
0.0061960798
-0.62147537
0.006373174
-0.62461335
0.0065694911
-0.62785654
0.0067780854
-0.6312068
0.0069898098
-0.63466024
0.0071931611
-0.63820597
0.007374156
-0.64182483
0.0075163537
-0.6454883
0.0076011379
-0.64915764
0.0076083699
-0.65278368
0.0075175049
-0.65630738
0.0073093116
-0.65966151
0.0069678921
-0.66277359
0.0064831732
-0.66556995
0.0058530249
-0.66798042
0.0050844578
-0.66994297
0.004193374
-0.67140728
0.0032026646
-0.67233682
0.0021391906
-0.6727091
0.0010306188
-0.67251503
-9.6903408e-05
-0.67175882
-0.0012197763
-0.67045527
-0.0023172603
-0.66862712
-0.0033697985
-0.66630659
-0.0043566686
-0.66353721
-0.0052549155
-0.66037507
-0.0060397113
-0.65688882
-0.006686494
-0.65315785
-0.0071744407
-0.64926858
-0.0074900211
-0.64530951
-0.007629326
-0.64136602
-0.0075985092
-0.63751595
-0.0074124342
-0.63382645
-0.0070921603
-0.63035236
-0.0066620169
-0.62713595
-0.0061469028
-0.62420777
-0.0055701813
-0.6215882
-0.0049522892
-0.61928924
-0.0043100125
-0.61731646
-0.0036564422
-0.61567059
-0.0030017009
-0.6143495
-0.0023533593
-0.61335018
-0.0017143187
-0.6126632
-0.001080772
-0.00049078301
-0.60851169
0.0084080432
-0.61120543
0.0085115679
-0.61394266
0.0086538697
-0.61674142
0.0088418808
-0.61961758
0.0090722413
-0.6225846
0.009340194
-0.62565328
0.0096381695
-0.62883099
0.009955796
-0.63212067
0.01027949
-0.63551964
0.010592131
-0.63901829
0.010872801
-0.6425987
0.011096764
-0.64623338
0.011235822
-0.64988425
0.011259242
-0.65350215
0.011135408
-0.65702727
0.010834424
-0.66039065
0.01033127
-0.66351723
0.0096097605
-0.66633024
0.0086660262
-0.66875636
0.00751058
-0.67073101
0.0061680231
-0.67220234
0.0046739929
-0.67313336
0.0030702142
-0.67350203
0.0013992947
-0.67329993
-0.00029900762
-0.67252984
-0.0019898692
-0.67120411
-0.0036429853
-0.66934429
-0.0052296154
-0.66698177
-0.0067191951
-0.66415948
-0.008077208
-0.66093375
-0.0092654384
-0.65737486
-0.010245388
-0.65356524
-0.010984052
-0.64959538
-0.011459882
-0.64555806
-0.011666647
-0.64154247
-0.011614099
-0.63762923
-0.011325677
-0.63388703
-0.010834358
-0.63037109
-0.010177955
-0.62712314
-0.0093948548
-0.62417255
-0.008520776
-0.62153815
-0.0075866899
-0.61923034
-0.0066178219
-0.61725314
-0.0056336417
-0.61560624
-0.0046485944
-0.61428734
-0.003672263
-0.61329213
-0.0027095271
-0.61261092
-0.0017619806
-0.00085675576
-0.60900169
0.011049622
-0.61166515
0.011175028
-0.61437343
0.011362144
-0.61714495
0.011613401
-0.61999645
0.011923742
-0.62294256
0.012286307
-0.62599539
0.012690994
-0.62916374
0.013124153
-0.63245216
0.013567912
-0.63585966
0.013999629
-0.63937831
0.014391449
-0.6429917
0.014710156
-0.64667341
0.014917531
-0.65038567
0.014971497
-0.65407852
0.014828258
-0.65768993
0.01444584
-0.66114718
0.013788519
-0.66436998
0.012832554
-0.66727541
0.011571461
-0.66978415
0.010019322
-0.67182671
0.0082105836
-0.67334829
0.0061955718
-0.6743111
0.0040330158
-0.67469393
0.0017821334
-0.67448993
-0.00050300945
-0.67370338
-0.0027764185
-0.67234737
-0.004999001
-0.67044295
-0.0071340284
-0.66802022
-0.0091419308
-0.66512089
-0.010976534
-0.66180141
-0.012584925
-0.65813438
-0.01391241
-0.65420705
-0.014911391
-0.65011629
-0.015550633
-0.64596175
-0.015821188
-0.6418386
-0.015737249
-0.63783178
-0.015332496
-0.63401233
-0.014653808
-0.63043596
-0.013754323
-0.62714345
-0.012687366
-0.62416227
-0.011501963
-0.62150884
-0.010240111
-0.61919107
-0.0089355928
-0.61721065
-0.0076140626
-0.61556541
-0.0062938344
-0.61425132
-0.0049863513
-0.61326213
-0.0036987175
-0.61259119
-0.0024329219
-0.0012029982
-0.60951489
0.013658308
-0.61214982
0.013809958
-0.61483102
0.014043344
-0.61757777
0.01436015
-0.62040783
0.0147538
-0.6233372
0.015215679
-0.6263796
0.015733392
-0.6295457
0.016290259
-0.63284213
0.016864344
-0.63627016
0.017427652
-0.63982412
0.017945411
-0.64348968
0.018375718
-0.64724194
0.018669793
-0.65104367
0.018773224
-0.65484396
0.018628551
-0.65857788
0.018179754
-0.66216751
0.017378154
-0.6655253
0.016190345
-0.66855972
0.01460588
-0.67118287
0.012642474
-0.67331841
0.010346123
-0.67490764
0.0077847962
-0.6759121
0.0050374766
-0.67631245
0.0021824857
-0.67610472
-0.00071074171
-0.67529571
-0.0035854255
-0.67389956
-0.006395156
-0.67193646
-0.0090971239
-0.66943422
-0.011644168
-0.66643227
-0.013978492
-0.66298657
-0.016030617
-0.65917277
-0.017726212
-0.65508481
-0.018999353
-0.65082887
-0.019806571
-0.64651443
-0.020135633
-0.64224517
-0.020006507
-0.63811201
-0.019465652
-0.63418906
-0.018576758
-0.63053246
-0.017410932
-0.62718139
-0.016038435
-0.62416048
-0.01452287
-0.62148274
-0.012917853
-0.61915254
-0.011265791
-0.61716842
-0.0095981832
-0.61552556
-0.0079366911
-0.61421762
-0.0062942916
-0.61323689
-0.0046794481
-0.61257812
-0.0030916952
-0.0015363159
-0.61014871
0.016227472
-0.61274772
0.016408971
-0.61539528
0.0166909
-0.61811132
0.017076189
-0.62091477
0.017557253
-0.62382324
0.018124149
-0.6268524
0.01876255
-0.63001524
0.019453101
-0.63332105
0.02017015
-0.63677401
0.020880611
-0.6403715
0.02154291
-0.64410206
0.022106274
-0.64794302
0.022510748
-0.65185818
0.022688385
-0.65579578
0.022566158
-0.65968742
0.022071388
-0.66344859
0.021139323
-0.66698208
0.019723832
-0.67018463
0.017808434
-0.67295654
0.015414389
-0.67521203
0.012601612
-0.67688723
0.0094599955
-0.67794329
0.0060935307
-0.67836405
0.0026032509
-0.67815024
-0.00092455793
-0.6773126
-0.0044230628
-0.67586689
-0.0078408683
-0.67383194
-0.011132068
-0.67123183
-0.014244278
-0.66810185
-0.017108473
-0.6644964
-0.019636068
-0.66049459
-0.021728025
-0.65619948
-0.02329446
-0.65173019
-0.024275862
-0.64720984
-0.024655985
-0.64275371
-0.024462635
-0.63846057
-0.023758795
-0.63440822
-0.022629101
-0.63065292
-0.02116624
-0.6272313
-0.019460047
-0.6241639
-0.01759027
-0.62145894
-0.015622815
-0.61911603
-0.013608699
-0.61712941
-0.011584809
-0.61549057
-0.0095755259
-0.61419014
-0.0075947226
-0.6132186
-0.0056509871
-0.61257024
-0.003740062
-0.0018616027
-0.61091347
0.018752142
-0.61346912
0.018964624
-0.61607524
0.019297013
-0.61875306
0.019754008
-0.62152299
0.020327189
-0.62440452
0.021005677
-0.62741562
0.02177365
-0.63057208
0.022609555
-0.63388643
0.023484503
-0.63736656
0.024360739
-0.64101377
0.025190122
-0.64482041
0.025912922
-0.64876705
0.026457384
-0.65281932
0.02674065
-0.65692495
0.026671792
-0.66101166
0.026158102
-0.66498689
0.025114551
-0.66874099
0.023477933
-0.67215512
0.021222563
-0.67511357
0.018372834
-0.67751776
0.015005804
-0.6792972
0.011239437
-0.68041329
0.0072096208
-0.6808553
0.0030452597
-0.68063129
-0.0011485662
-0.67975803
-0.005296321
-0.67825368
-0.0093452254
-0.67613493
-0.013250814
-0.67341991
-0.016959299
-0.67013687
-0.020391515
-0.66633647
-0.023436463
-0.66210151
-0.025962992
-0.65754715
-0.027848814
-0.65281027
-0.029012748
-0.64803261
-0.029433636
-0.6433449
-0.02915035
-0.63885585
-0.028247843
-0.63464749
-0.026837458
-0.63077547
-0.025038261
-0.62727256
-0.022962963
-0.62415354
-0.020709287
-0.6214203
-0.018356054
-0.61906631
-0.015962689
-0.61708034
-0.013570784
-0.61544927
-0.011206597
-0.61416002
-0.0088839711
-0.61320056
-0.0066104407
-0.6125633
-0.0043773292
-0.002179949
-0.61180541
0.021222883
-0.61430867
0.021467885
-0.61686463
0.021852977
-0.61949584
0.022385216
-0.62222436
0.023055708
-0.62507178
0.023853097
-0.62805872
0.024760596
-0.63120423
0.025755066
-0.63452477
0.026805036
-0.63803272
0.027868693
-0.64173437
0.028891772
-0.64562712
0.029805665
-0.649696
0.030526271
-0.65390969
0.030954334
-0.65821616
0.030978263
-0.66253915
0.030481099
-0.66677655
0.029351943
-0.670803
0.027504385
-0.67447914
0.024898702
-0.67766764
0.02156134
-0.68025263
0.017590793
-0.6821551
0.013141901
-0.68333793
0.0083924521
-0.68379926
0.0035065882
-0.68355852
-0.0013893017
-0.68264156
-0.0062132806
-0.68107014
-0.010916642
-0.67885778
-0.015463176
-0.67601338
-0.019803699
-0.67255362
-0.023851281
-0.66852171
-0.027468367
-0.66400376
-0.030480943
-0.65913101
-0.032721569
-0.65406469
-0.034079064
-0.64897192
-0.034526407
-0.64400367
-0.034118598
-0.63928099
-0.032970526
-0.63489026
-0.031228187
-0.63088523
-0.029043286
-0.62729276
-0.026555434
-0.62411975
-0.023882301
-0.62135974
-0.021116066
-0.61899841
-0.018324019
-0.61701778
-0.015551409
-0.61539921
-0.012825164
-0.61412533
-0.010157858
-0.61318101
-0.0075547548
-0.61255615
-0.0050021879
-0.0024913037
-0.61282392
0.023631903
-0.61526587
0.023909835
-0.61776243
0.024349544
-0.62033783
0.024960618
-0.623016
0.025733872
-0.62582084
0.026657936
-0.62877593
0.027715689
-0.63190404
0.028883174
-0.6352262
0.030127194
-0.63876025
0.03140275
-0.64251866
0.032650181
-0.64650536
0.03379236
-0.65071159
0.034732503
-0.65511073
0.035353469
-0.65965235
0.035519888
-0.66425661
0.035085356
-0.66881046
0.033905795
-0.67316908
0.031863003
-0.67716621
0.028895837
-0.68063532
0.025030449
-0.6834369
0.020392366
-0.68548093
0.015185935
-0.68673393
0.0096454488
-0.68720819
0.0039808483
-0.6869405
-0.0016569865
-0.68597021
-0.0071835685
-0.68432442
-0.012562432
-0.682012
-0.017775603
-0.67902797
-0.022787729
-0.6753705
-0.027508744
-0.67106919
-0.031769684
-0.66621208
-0.035338048
-0.66095184
-0.037981816
-0.65548355
-0.039547349
-0.65000892
-0.04000104
-0.64470544
-0.039422073
-0.63970902
-0.037966947
-0.63510998
-0.035827233
-0.63095797
-0.033195297
-0.62727104
-0.030242358
-0.62404537
-0.027107972
-0.62126374
-0.023897702
-0.61890212
-0.020685633
-0.61693441
-0.017519117
-0.61533546
-0.014424113
-0.61408297
-0.011410354
-0.61315823
-0.0084794973
-0.61254831
-0.0056121052
-0.0027946614
-0.6139642
0.025967977
-0.61633433
0.026279965
-0.61876121
0.026776424
-0.62127057
0.027469975
-0.62388823
0.028351533
-0.62664056
0.02941027
-0.62955436
0.03062948
-0.63265652
0.031985337
-0.63597335
0.033444027
-0.63952916
0.034958555
-0.64334396
0.036464982
-0.64743004
0.037878447
-0.65178707
0.039089524
-0.6563955
0.039961906
-0.66120868
0.040333065
-0.66614427
0.040020952
-0.67107734
0.038838863
-0.67583919
0.036624854
-0.68022846
0.0332851
-0.68403879
0.028840776
-0.68709796
0.023451543
-0.6893015
0.017389469
-0.69062294
0.01096689
-0.6910969
0.0044548072
-0.69078641
-0.0019674725
-0.68975076
-0.0082192226
-0.68802486
-0.014288327
-0.68561104
-0.020189427
-0.68248395
-0.025914819
-0.67861293
-0.03137976
-0.67400375
-0.036378863
-0.66874328
-0.04059852
-0.66301306
-0.043712036
-0.65705597
-0.045504437
-0.65112129
-0.045935726
-0.6454211
-0.04512226
-0.64010866
-0.043279388
-0.63527671
-0.040659176
-0.63096727
-0.037504739
-0.62718549
-0.034024137
-0.62391309
-0.030380371
-0.62111914
-0.026691658
-0.61876778
-0.023036989
-0.61682333
-0.019463573
-0.61525324
-0.015994206
-0.61402973
-0.012633865
-0.61313016
-0.0093790615
-0.61253868
-0.0062035826
-0.0030883947
-0.61522218
0.028221921
-0.6175102
0.028567988
-0.61985666
0.029122879
-0.62228902
0.029902339
-0.62483505
0.030897564
-0.62752363
0.032098847
-0.63038491
0.033490762
-0.63345033
0.035050751
-0.63675209
0.036745784
-0.64032199
0.038528458
-0.64418919
0.040332182
-0.64837648
0.042065744
-0.65289471
0.043607752
-0.65773474
0.044801935
-0.66285692
0.045455247
-0.66817879
0.045342817
-0.67356327
0.044223343
-0.67881306
0.041874645
-0.68368104
0.038153081
-0.68790622
0.033065957
-0.69127035
0.026815671
-0.69364928
0.019768401
-0.69502905
0.01234666
-0.69547902
0.0049047735
-0.69510161
-0.002344883
-0.69398519
-0.0093356446
-0.69217591
-0.016097604
-0.68966707
-0.022698264
-0.6864042
-0.029177691
-0.68231272
-0.035471242
-0.67735812
-0.041333461
-0.67161952
-0.046337124
-0.6653181
-0.050013452
-0.65876566
-0.05205688
-0.65227762
-0.052423768
-0.64611104
-0.051288836
-0.64043852
-0.048951911
-0.6353519
-0.045745795
-0.63087994
-0.041976701
-0.62700918
-0.03789489
-0.62370212
-0.033687434
-0.62091057
-0.029483212
-0.61858447
-0.025363082
-0.61667712
-0.021370931
-0.61514775
-0.017523568
-0.61396274
-0.013818883
-0.61309532
-0.010246476
-0.61252675
-0.0067721557
-0.0033703427
-0.61659474
0.030380521
-0.61878834
0.030761597
-0.62104221
0.031376743
-0.62338514
0.032245273
-0.62584666
0.033359082
-0.62845807
0.034710258
-0.63125296
0.036285653
-0.63426755
0.038065334
-0.63754054
0.040018779
-0.64111232
0.04210024
-0.64502289
0.044242753
-0.64930811
0.046350959
-0.65399349
0.048293136
-0.65908474
0.049893178
-0.66455409
0.050924596
-0.67032303
0.051111761
-0.67624358
0.050143889
-0.68208497
0.047716035
-0.68754062
0.043608738
-0.69227376
0.037799095
-0.6959999
0.030541807
-0.69856714
0.022335638
-0.69998245
0.013761977
-0.70036909
0.0052914098
-0.6998884
-0.0028255753
-0.69867084
-0.010553202
-0.69677833
-0.017990108
-0.69419203
-0.025284566
-0.69081694
-0.032552789
-0.68651308
-0.039775098
-0.68117932
-0.046667225
-0.67487395
-0.052642489
-0.6678735
-0.057013905
-0.66059177
-0.059338608
-0.65343723
-0.059578308
-0.64672509
-0.058000979
-0.64064772
-0.055029281
-0.63528965
-0.051103865
-0.63065781
-0.046608538
-0.62671228
-0.041840425
-0.62339025
-0.037009458
-0.62062222
-0.032251248
-0.61834144
-0.027643864
-0.61648882
-0.023223554
-0.61501482
-0.018997564
-0.61387975
-0.014953954
-0.6130528
-0.011073421
-0.61251249
-0.0073124668
-0.0036378854
-0.61807017
0.03243281
-0.62015748
0.032848908
-0.62230642
0.033525683
-0.62454715
0.034486005
-0.62691072
0.035722644
-0.62943063
0.037230175
-0.63214382
0.038998841
-0.63509138
0.041012896
-0.638319
0.043246394
-0.6418766
0.045657849
-0.64581683
0.048182976
-0.6501914
0.050725532
-0.65504471
0.053146449
-0.66040298
0.055251452
-0.66625724
0.056778853
-0.67253955
0.057394065
-0.67909455
0.056698894
-0.68565393
0.05427541
-0.6918345
0.049789306
-0.69719367
0.043158274
-0.70135003
0.034698163
-0.70411102
0.025096631
-0.70551791
0.015168863
-0.70577752
0.0055510222
-0.70513903
-0.0034640633
-0.70379297
-0.011899266
-0.70182238
-0.019960695
-0.69919212
-0.027914823
-0.69575262
-0.035992291
-0.69126903
-0.044258691
-0.68553168
-0.05240458
-0.6785526
-0.059621563
-0.67068646
-0.06488005
-0.66250291
-0.067522151
-0.65454269
-0.067538528
-0.64719536
-0.06534831
-0.64066998
-0.06155466
-0.63503225
-0.056741595
-0.63025441
-0.051386377
-0.62625942
-0.045835418
-0.62295178
-0.040317101
-0.62023607
-0.034966959
-0.61802644
-0.029853493
-0.61625038
-0.024999613
-0.61484931
-0.020398634
-0.61377762
-0.016025637
-0.61300078
-0.011850262
-0.61249491
-0.0078183367
-0.0038879975
-0.61964993
0.03436482
-0.62161742
0.034816393
-0.62364776
0.035556028
-0.62577194
0.036610181
-0.62802202
0.037972729
-0.63043333
0.039641481
-0.63304578
0.041611296
-0.63590527
0.043872381
-0.63906466
0.04640578
-0.64258427
0.04917746
-0.64653111
0.052129814
-0.6509759
0.055170322
-0.65598687
0.058157419
-0.66161819
0.060882772
-0.66788949
0.063050153
-0.67475405
0.064258624
-0.68205701
0.064001856
-0.68949089
0.061709294
-0.69657533
0.056873742
-0.7027191
0.049302045
-0.70739549
0.039374556
-0.7103489
0.028050037
-0.71167484
0.0164948
-0.71170994
0.0055861271
-0.71083421
-0.0043397914
-0.70932301
-0.013410468
-0.70728657
-0.021997132
-0.70466804
-0.03053336
-0.70124718
-0.039413151
-0.6966557
-0.048850171
-0.69050988
-0.058550398
-0.68272595
-0.067405489
-0.67376908
-0.073836921
-0.66445587
-0.076835364
-0.65551659
-0.076477812
-0.64743397
-0.073430923
-0.64042324
-0.068565391
-0.63451152
-0.062653317
-0.62961743
-0.056280465
-0.62561282
-0.049840027
-0.6223607
-0.043569227
-0.61973501
-0.03759265
-0.61762872
-0.031959777
-0.61595541
-0.026672923
-0.61464773
-0.02170632
-0.61365475
-0.01701862
-0.61293882
-0.012566188
-0.61247427
-0.0082828845
-0.0041173193
-0.62130747
0.036161003
-0.62314063
0.036649554
-0.62503811
0.037453509
-0.62703095
0.038603013
-0.62915157
0.040093355
-0.63143648
0.041926388
-0.6339281
0.044102913
-0.63667673
0.046621017
-0.63974241
0.049471458
-0.6431964
0.052631448
-0.64712168
0.056055091
-0.65161115
0.059659796
-0.65676242
0.063308689
-0.66266662
0.066786977
-0.66938516
0.069768691
-0.67690815
0.071781616
-0.68509474
0.072188442
-0.69360089
0.070215446
-0.70182497
0.065097822
-0.708966
0.056443075
-0.71427587
0.044684419
-0.7173979
0.031172075
-0.71851455
0.017611443
-0.71816782
0.0052394033
-0.7169343
-0.0055733178
-0.71520703
-0.01513773
-0.71312703
-0.024077133
-0.71060644
-0.033053954
-0.70733736
-0.042682232
-0.70277141
-0.053416121
-0.69625079
-0.065071014
-0.68749991
-0.076156375
-0.67713661
-0.084200222
-0.66638543
-0.087586545
-0.65624918
-0.086614055
-0.64732297
-0.082357137
-0.6398029
-0.076085458
-0.63364476
-0.068811455
-0.6286864
-0.061238832
-0.62473072
-0.053795703
-0.62158943
-0.046710518
-0.61910147
-0.040080605
-0.61713746
-0.033923794
-0.61559742
-0.02821296
-0.61440628
-0.022897466
-0.61350894
-0.017915959
-0.61286569
-0.013209432
-0.61244988
-0.0086986994
-0.0043222469
-0.62305282
0.03780993
-0.62473887
0.038335606
-0.62648994
0.039204577
-0.62833679
0.040449865
-0.63031133
0.042067896
-0.63245029
0.04406535
-0.6347977
0.046450321
-0.63740746
0.049230782
-0.64034612
0.052410116
-0.64369574
0.055981068
-0.64755621
0.059915563
-0.65204538
0.064148964
-0.65729582
0.068559126
-0.6634461
0.072937258
-0.67061701
0.076939606
-0.67885911
0.080023712
-0.68806937
0.081398698
-0.69788059
0.080026668
-0.70754818
0.074765415
-0.71597893
0.06487382
-0.72208383
0.050789326
-0.72533656
0.034424799
-0.72605398
0.018328864
-0.72510229
0.0042877098
-0.72335056
-0.0073250453
-0.72134804
-0.017140252
-0.71926518
-0.026159986
-0.71697037
-0.035348771
-0.71405527
-0.045597331
-0.70974348
-0.057727911
-0.70295629
-0.071858202
-0.69304113
-0.086071532
-0.68081006
-0.096431291
-0.66819386
-0.10020275
-0.65658565
-0.098222271
-0.64670614
-0.092236642
-0.63867896
-0.084112634
-0.63233564
-0.075154779
-0.6273954
-0.06617907
-0.62357071
-0.057620391
-0.62061206
-0.049669169
-0.61832037
-0.0423723
-0.61654425
-0.035699915
-0.61517197
-0.029585237
-0.61412275
-0.023946687
-0.61333919
-0.018699523
-0.61278099
-0.013767624
-0.61242161
-0.0090580827
-0.0044990564
-0.62482813
0.039284575
-0.62634727
0.039854752
-0.62793415
0.040791454
-0.62961664
0.042132358
-0.63142467
0.04387593
-0.63339408
0.046034758
-0.63556941
0.048625651
-0.63800711
0.051668483
-0.64077926
0.055182268
-0.64397814
0.059179942
-0.64772105
0.063658476
-0.65215341
0.068581326
-0.65744867
0.073854388
-0.66380496
0.079293541
-0.67142572
0.084560373
-0.68045643
0.089054424
-0.69086927
0.091811535
-0.70230144
0.091458839
-0.71384747
0.086311441
-0.72400484
0.075031186
-0.73114628
0.057930774
-0.73444532
0.037723837
-0.73442693
0.018310471
-0.73248722
0.002347999
-0.72995095
-0.0098613173
-0.72757602
-0.019515176
-0.72554691
-0.028189103
-0.72366088
-0.037234796
-0.72139936
-0.047858855
-0.71771921
-0.061408056
-0.71091834
-0.07865908
-0.69961639
-0.097373479
-0.68481425
-0.11123343
-0.66972897
-0.11528802
-0.65630344
-0.1116478
-0.6453758
-0.10316429
-0.63689143
-0.092596999
-0.63047465
-0.081571566
-0.62567572
-0.070977999
-0.62209271
-0.061203395
-0.61940687
-0.052355018
-0.61738089
-0.044398273
-0.61584438
-0.037236426
-0.61467748
-0.030752142
-0.613797
-0.02482716
-0.61314589
-0.019350639
-0.61268523
-0.014228277
-0.61238995
-0.0093533643
-0.0046440588
-0.62661054
0.040577043
-0.62795137
0.041195583
-0.62936093
0.042201018
-0.63086448
0.043635909
-0.63248859
0.04550004
-0.63426672
0.04781288
-0.63624227
0.050601208
-0.63847236
0.053898574
-0.64103243
0.057742337
-0.64402266
0.062170166
-0.64757609
0.067211908
-0.65186592
0.072871157
-0.65710967
0.07909814
-0.66357468
0.085758554
-0.67157326
0.092558945
-0.6813932
0.098874368
-0.69313834
0.10355668
-0.70650373
0.10482422
-0.7204305
0.10023821
-0.73286785
0.087468539
-0.74135487
0.066417794
-0.74453879
0.040907754
-0.74326965
0.017041331
-0.73981697
-0.0011046815
-0.73620924
-0.013469043
-0.733423
-0.022301423
-0.73160027
-0.030011828
-0.73041657
-0.038418495
-0.72924923
-0.049026199
-0.7268013
-0.06385599
-0.72051468
-0.0849457
-0.70763939
-0.11024877
-0.68915825
-0.12971457
-0.67074299
-0.13370328
-0.65507688
-0.12731391
-0.64305471
-0.11518645
-0.63424557
-0.10140614
-0.62794088
-0.087876254
-0.62345941
-0.075459473
-0.62026217
-0.064400632
-0.61795839
-0.054658798
-0.61627756
-0.046079105
-0.61503697
-0.038477017
-0.61411474
-0.031674373
-0.61343008
-0.025511815
-0.61292974
-0.019850986
-0.61257861
-0.014579404
-0.61235468
-0.0095772929
-0.004753791
-0.62819959
0.041632381
-0.62932709
0.042323083
-0.63052795
0.043401873
-0.6318188
0.044926764
-0.63322024
0.04690148
-0.63476147
0.049354103
-0.63648282
0.052322561
-0.63843973
0.05585548
-0.64070816
0.060010768
-0.64339281
0.064854824
-0.64663931
0.070458406
-0.65064764
0.076879483
-0.65568194
0.084132443
-0.66208786
0.092164478
-0.6703196
0.10079068
-0.68088107
0.10943583
-0.69409945
0.11677506
-0.70982141
0.12054618
-0.72688937
0.11730617
-0.74253435
0.10311352
-0.75297807
0.076861516
-0.75587051
0.043800189
-0.75251206
0.013682883
-0.74664223
-0.0069745141
-0.74145077
-0.018660495
-0.73814978
-0.02560242
-0.73668836
-0.031473244
-0.73654722
-0.03855964
-0.73705392
-0.048519493
-0.73676827
-0.064141646
-0.73206301
-0.089650955
-0.71769599
-0.1246158
-0.69378557
-0.15362499
-0.67082665
-0.1566622
-0.65242728
-0.14571328
-0.63937699
-0.12823675
-0.6305133
-0.11026983
-0.62461116
-0.093778389
-0.62068918
-0.079381457
-0.61805808
-0.067031727
-0.61626331
-0.056453565
-0.61501429
-0.047328133
-0.61412786
-0.039363444
-0.61348913
-0.032313101
-0.61302602
-0.025974925
-0.61269329
-0.020183713
-0.61246244
-0.014810263
-0.61231624
-0.0097234885
-0.0048252309
-0.62915928
0.042420472
-0.63003983
0.043203635
-0.63099315
0.044355195
-0.63202838
0.04596199
-0.63315856
0.048031667
-0.63440683
0.050602366
-0.6358079
0.053723637
-0.63741203
0.057459604
-0.63929093
0.061889672
-0.64154734
0.06711123
-0.64433126
0.073242327
-0.64786206
0.08041028
-0.65244531
0.088715696
-0.6585003
0.098219464
-0.66664246
0.10893285
-0.67768191
0.12047529
-0.69229309
0.13138624
-0.71060246
0.13885554
-0.73150043
0.13820415
-0.75134571
0.1229588
-0.76435244
0.089868246
-0.76635305
0.04580079
-0.75929138
0.0066212173
-0.74968043
-0.016585466
-0.74244526
-0.025895669
-0.73878343
-0.029264247
-0.73818681
-0.032069863
-0.73983631
-0.036910137
-0.74307005
-0.045285755
-0.74647556
-0.060736142
-0.74535386
-0.090772649
-0.73044343
-0.13952623
-0.69837327
-0.18569515
-0.6692029
-0.18583256
-0.64761923
-0.16729696
-0.63386071
-0.14199527
-0.6254409
-0.11868964
-0.62037565
-0.098843636
-0.61733181
-0.082425296
-0.61548208
-0.068881463
-0.61433584
-0.057599796
-0.61360737
-0.048056607
-0.61313118
-0.039839632
-0.61281137
-0.032632917
-0.61259217
-0.026194127
-0.61244112
-0.02033476
-0.61233919
-0.01491219
-0.61227575
-0.0097869324
-0.0048560291
-0.62847989
0.042806791
-0.62901282
0.043736567
-0.62961454
0.044956915
-0.63027764
0.046625084
-0.63100346
0.048757491
-0.63180536
0.051404262
-0.63270766
0.054625939
-0.63374898
0.058500926
-0.63498834
0.063129026
-0.63651506
0.068637955
-0.63846807
0.075195335
-0.64106894
0.083011154
-0.6446503
0.092297055
-0.6496848
0.10325396
-0.65694635
0.1161944
-0.66768651
0.13121545
-0.68316296
0.14686269
-0.70398735
0.15967993
-0.72946035
0.16367715
-0.75496464
0.14846308
-0.77171841
0.10662202
-0.77218894
0.046271312
-0.7590084
-0.0065593194
-0.74407744
-0.031516429
-0.73493598
-0.03503713
-0.73176196
-0.03243826
-0.73299494
-0.030836891
-0.73732733
-0.03257774
-0.74418678
-0.038426312
-0.75275746
-0.052165459
-0.75810981
-0.0854203
-0.74601061
-0.15162543
-0.70142067
-0.23028509
-0.66419378
-0.22305946
-0.63954861
-0.19194213
-0.62591139
-0.15563249
-0.61878013
-0.1258209
-0.61516647
-0.1024573
-0.61339697
-0.084194795
-0.61256855
-0.069709881
-0.61221223
-0.057956122
-0.61208684
-0.04818199
-0.61206913
-0.039857349
-0.61209654
-0.032605499
-0.61213796
-0.026152712
-0.61217844
-0.020294277
-0.61221117
-0.014879457
-0.61223365
-0.0097644531
-0.0048447333
-0.62359769
0.042614071
-0.62358144
0.043720315
-0.62360009
0.044975566
-0.62363451
0.046659504
-0.62367302
0.048795999
-0.6237156
0.05144685
-0.62377016
0.054680493
-0.62385481
0.058585581
-0.62400347
0.063277682
-0.62427453
0.068909014
-0.62476908
0.075689883
-0.62567417
0.083916252
-0.62731243
0.093935314
-0.63015658
0.10609811
-0.6350542
0.12109202
-0.6438203
0.13998154
-0.65867065
0.16171304
-0.68077026
0.18177954
-0.7104818
0.19338869
-0.74218953
0.18017081
-0.76323072
0.12766321
-0.76006001
0.043100603
-0.73696786
-0.029651464
-0.71604822
-0.052436077
-0.70663222
-0.044453131
-0.70553161
-0.03353887
-0.70960266
-0.02676584
-0.71720362
-0.024976775
-0.72841766
-0.027212277
-0.74520661
-0.035376509
-0.76228037
-0.068346545
-0.76322649
-0.15067931
-0.69825084
-0.29526074
-0.65324682
-0.26806348
-0.62685269
-0.21833625
-0.61488587
-0.16759931
-0.61034905
-0.13035773
-0.60900513
-0.10380122
-0.60896521
-0.084234719
-0.60939883
-0.069276256
-0.60995732
-0.057397636
-0.61049956
-0.047639746
-0.61097363
-0.039383285
-0.61136539
-0.032213739
-0.61167608
-0.025842019
-0.61191236
-0.020058001
-0.61208176
-0.014710055
-0.61219105
-0.0096551584
-0.0047909857
-0.60949212
0.04141977
-0.60845707
0.04268527
-0.60736773
0.043886222
-0.60618924
0.045481015
-0.60488925
0.047496015
-0.60344172
0.049999315
-0.60181946
0.053058234
-0.59999424
0.056760356
-0.59793929
0.06122274
-0.59563343
0.066603151
-0.59306956
0.073126013
-0.59029614
0.081142832
-0.5874984
0.091137578
-0.58498671
0.10358642
-0.58334869
0.11945399
-0.58480338
0.14143623
-0.59321377
0.17012344
-0.60996237
0.19852814
-0.63851613
0.22194245
-0.67276118
0.21441586
-0.69628063
0.15118267
-0.68259855
0.029418513
-0.64618529
-0.066064715
-0.62794745
-0.070673924
-0.62898545
-0.043415129
-0.63743337
-0.025090949
-0.64879655
-0.015402669
-0.6625137
-0.011259616
-0.68120899
-0.0085169936
-0.71372176
-0.0028637344
-0.74344873
-0.038619575
-0.77589987
-0.11822817
-0.67972642
-0.39143419
-0.63173395
-0.31605596
-0.60637934
-0.24369086
-0.59979777
-0.17418088
-0.60007481
-0.1300807
-0.60206547
-0.10181055
-0.60422011
-0.082080084
-0.60611273
-0.067383631
-0.60766725
-0.055843114
-0.60890886
-0.046398139
-0.60988536
-0.038406783
-0.61064335
-0.031455758
-0.61122183
-0.025263536
-0.61165146
-0.019628375
-0.61195521
-0.014406299
-0.61214963
-0.0094607464
-0.0046956607
-0.57628296
0.038616436
-0.57336136
0.039763671
-0.570178
0.040702864
-0.56670082
0.042003829
-0.56287067
0.043665865
-0.55861754
0.045746194
-0.55385299
0.048293679
-0.54846704
0.051374406
-0.54232428
0.055079979
-0.53525812
0.059536988
-0.52705733
0.064925228
-0.51747098
0.071556479
-0.506299
0.079965597
-0.49335816
0.090645576
-0.47819077
0.10428661
-0.46226763
0.12551308
-0.45265016
0.16050597
-0.44893907
0.19481704
-0.46212659
0.23512998
-0.48242051
0.23470977
-0.48643892
0.15520108
-0.43119531
-0.025825094
-0.37840406
-0.11885597
-0.38094236
-0.068135623
-0.40571334
-0.018644152
-0.43292898
-0.002655715
-0.46769897
0.0041722515
-0.49925571
0.0061529683
-0.5225351
0.010035048
-0.58201353
0.027878412
-0.69087391
0.014061821
-0.66399175
-0.056885593
-0.6105455
-0.24650965
-0.57123836
-0.3553631
-0.56961477
-0.24531445
-0.5797899
-0.16400575
-0.58842999
-0.12144061
-0.59483766
-0.095402872
-0.59949243
-0.077425316
-0.60291398
-0.063962088
-0.60546533
-0.053291765
-0.60738943
-0.044474031
-0.60884955
-0.036946667
-0.60995739
-0.030347913
-0.61079067
-0.024430258
-0.61140387
-0.019015172
-0.61183506
-0.013975111
-0.61211017
-0.0091856416
-0.0045609226
-0.51971048
0.033744033
-0.51434238
0.034395574
-0.50849966
0.034860144
-0.50215017
0.035654335
-0.49521091
0.036726605
-0.48756797
0.038103255
-0.47907162
0.039797331
-0.46952984
0.041832619
-0.45869517
0.044245315
-0.4462452
0.047087019
-0.43174049
0.050420513
-0.41455243
0.05436842
-0.39388052
0.059293685
-0.36873821
0.06550327
-0.33680023
0.072348623
-0.29644809
0.085160946
-0.26311116
0.12716904
-0.23040931
0.16211519
-0.22317764
0.2278983
-0.21869423
0.23022636
-0.077653026
0.01415988
0.047918265
-0.15139639
0.10761605
-0.071922836
0.11111277
-0.043734318
0.050597895
-0.01610782
0
0
0
0
0
0
0
0
0
0
0
0
0
0
-0.21751571
0.0025966127
-0.44957659
-0.15244347