/*--------------------------------*- C++ -*----------------------------------*\
| =========                 |                                                 |
| \\      /  F ield         | foam-extend: Open Source CFD                    |
|  \\    /   O peration     | Version:     4.1                                |
|   \\  /    A nd           | Web:         http://www.foam-extend.org         |
|    \\/     M anipulation  |                                                 |
\*---------------------------------------------------------------------------*/
FoamFile
{
    version     2.0;
    format      ascii;
    class       volScalarField;
    location    "0.05";
    object      rAU;
}
// * * * * * * * * * * * * * * * * * * * * * * * * * * * * * * * * * * * * * //

dimensions      [0 0 1 0 0 0 0];

internalField   nonuniform List<scalar> 
4393
(
0.0002285585
0.00022790935
0.00022726665
0.00022661404
0.00022594906
0.00022527018
0.00022457518
0.00022386341
0.00022313495
0.00022239104
0.00022163427
0.00022086878
0.0002201004
0.00021933671
0.00021858683
0.00021786221
0.00021717436
0.00021653595
0.00021595982
0.00021545768
0.00021503978
0.00021471436
0.00021448733
0.00021436233
0.00021434087
0.00021434089
0.0002144229
0.00021460671
0.00021488875
0.00021526362
0.00021572387
0.00021625985
0.00021685957
0.000217509
0.00021819258
0.00021889407
0.00021959734
0.00022028731
0.00022095055
0.00022157568
0.00022215355
0.00022267721
0.00022314169
0.00022354374
0.0002238815
0.00022415428
0.00022436244
0.00022450688
0.0002245731
0.00022516402
0.00022457602
0.00022400001
0.00022341185
0.00022280875
0.00022218914
0.00022155123
0.00022089495
0.00022022118
0.00021953211
0.00021883149
0.00021812476
0.00021741923
0.00021672408
0.00021605002
0.00021541004
0.0002148169
0.00021428412
0.00021382477
0.00021345009
0.00021316915
0.00021298842
0.00021291175
0.00021294061
0.00021306393
0.00021301467
0.00021304853
0.00021318631
0.00021342635
0.00021376559
0.00021419924
0.00021472031
0.00021531915
0.00021598343
0.00021669837
0.00021744761
0.00021821406
0.00021898107
0.00021973326
0.00022045715
0.00022114154
0.00022177758
0.00022235868
0.00022288021
0.00022333911
0.00022373349
0.00022406267
0.0002243287
0.00022451884
0.00022431046
0.00022373826
0.00022317191
0.00022259046
0.00022199106
0.00022137243
0.00022073314
0.00022007368
0.00021939563
0.00021870206
0.00021799778
0.00021728952
0.00021658606
0.00021589822
0.00021523847
0.00021462156
0.00021406183
0.00021357404
0.00021317188
0.00021286643
0.00021266578
0.00021257471
0.00021259485
0.00021272533
0.00021290925
0.00021273813
0.00021267489
0.00021272074
0.00021287573
0.00021313883
0.00021350755
0.00021397717
0.00021453988
0.00021518433
0.00021589579
0.00021665693
0.000217449
0.00021825319
0.00021905179
0.00021982907
0.0002205718
0.00022126943
0.000221914
0.00022249985
0.00022302319
0.00022348164
0.00022387425
0.00022420193
0.00022444492
0.00022367505
0.00022310957
0.00022254332
0.00022195818
0.00022135161
0.00022072266
0.00022007023
0.00021939525
0.00021869988
0.00021798798
0.00021726536
0.00021653997
0.00021582212
0.00021512438
0.00021446125
0.00021384959
0.00021330588
0.00021284666
0.00021248688
0.00021223796
0.00021210736
0.0002120982
0.00021220987
0.00021243896
0.00021265992
0.00021238653
0.00021222582
0.00021218022
0.00021225137
0.00021244033
0.00021274713
0.00021316954
0.00021370166
0.00021433302
0.00021504855
0.00021582948
0.00021665481
0.00021750314
0.00021835411
0.00021918955
0.00021999418
0.00022075579
0.00022146523
0.000222116
0.00022270379
0.00022322607
0.00022368171
0.00022407079
0.00022437503
0.00022304676
0.00022248561
0.00022191886
0.00022132927
0.00022071451
0.00022007385
0.00021940645
0.00021871358
0.00021799788
0.00021726387
0.00021651822
0.0002157701
0.00021503127
0.00021431619
0.00021364155
0.00021302669
0.00021249068
0.00021205248
0.00021172879
0.00021153187
0.00021146866
0.00021154058
0.00021174438
0.00021207375
0.00021233376
0.00021195661
0.00021169791
0.00021156099
0.00021154892
0.00021166501
0.00021191213
0.00021229098
0.00021279786
0.00021342317
0.00021415106
0.00021496071
0.00021582823
0.00021672898
0.00021763955
0.00021853909
0.0002194102
0.00022023913
0.00022101565
0.00022173264
0.00022238554
0.00022297181
0.0002234902
0.00022394088
0.00022430779
0.00022240483
0.00022184866
0.00022128252
0.00022068933
0.00022006693
0.0002194147
0.00021873195
0.00021802016
0.00021728231
0.00021652344
0.00021575097
0.00021497513
0.00021420915
0.00021346942
0.00021277507
0.0002121483
0.00021161138
0.00021118637
0.00021089253
0.00021074343
0.00021074572
0.00021089886
0.00021119649
0.0002116288
0.0002119301
0.00021144729
0.00021108966
0.00021086091
0.00021076534
0.00021080866
0.00021099715
0.00021133518
0.00021182178
0.00021244823
0.00021319749
0.00021404585
0.00021496563
0.00021592821
0.00021690653
0.0002178768
0.00021881942
0.00021971919
0.00022056505
0.00022134952
0.00022206807
0.00022271843
0.00022329952
0.00022381222
0.00022424219
0.0002217487
0.00022119832
0.00022063396
0.0002200382
0.0002194089
0.0002187454
0.00021804705
0.0002173154
0.00021655361
0.00021576704
0.00021496371
0.00021415478
0.00021335489
0.00021258243
0.00021185918
0.00021121072
0.00021066319
0.00021024274
0.00020997209
0.00020986685
0.00020993359
0.00021016942
0.00021056405
0.00021110328
0.00021144813
0.00021085767
0.00021039997
0.00021007842
0.00020989817
0.00020986753
0.00020999706
0.00021029593
0.00021076682
0.00021140207
0.00021218284
0.00021308146
0.00021406525
0.00021510059
0.0002161561
0.0002172047
0.00021822453
0.00021919906
0.00022011664
0.00022096977
0.00022175424
0.00022246832
0.00022311149
0.0002236857
0.00022417803
0.00022108037
0.00022053734
0.00021997614
0.00021937894
0.00021874351
0.00021806909
0.00021735489
0.0002166024
0.00021581475
0.00021499743
0.00021415885
0.0002133109
0.00021246955
0.00021165518
0.00021089252
0.00021021102
0.00020964164
0.00020921572
0.00020896076
0.0002088954
0.00020902633
0.00020934776
0.00020984424
0.00021049588
0.00021088591
0.00021018599
0.0002096272
0.0002092115
0.00020894435
0.00020883696
0.00020890535
0.00020916527
0.00020962448
0.00021027673
0.00021110056
0.00021206284
0.00021312429
0.00021424499
0.0002153884
0.00021652378
0.00021762698
0.00021868038
0.00021967209
0.00022059494
0.00022144542
0.00022222268
0.00022292705
0.00022356182
0.00022411532
0.00022040214
0.00021986789
0.00021931125
0.00021871378
0.00021807309
0.00021738817
0.00021665799
0.00021588375
0.00021506836
0.00021421719
0.00021333875
0.00021244546
0.00021155438
0.00021068791
0.00020987391
0.00020914632
0.00020854192
0.00020809882
0.00020785099
0.00020782145
0.00020801745
0.00020842937
0.00020903481
0.00020980621
0.00021024147
0.00020943099
0.00020877057
0.00020825923
0.00020790191
0.00020771297
0.00020771558
0.00020793477
0.00020838566
0.000209064
0.00020994449
0.00021098639
0.00021214164
0.00021336234
0.00021460584
0.00021583731
0.00021703043
0.0002181668
0.00021923477
0.00022022796
0.00022114402
0.00022198336
0.0002227475
0.00022344126
0.00022405424
0.00021971657
0.00021919302
0.00021864255
0.00021804614
0.0002174012
0.00021670637
0.00021596023
0.0002151635
0.0002143186
0.00021343049
0.00021250744
0.00021156206
0.00021061224
0.00020968226
0.00020880326
0.00020801427
0.00020735918
0.00020688475
0.00020663381
0.00020663575
0.00020689901
0.00020740888
0.00020813333
0.00020903426
0.00020951187
0.00020859113
0.00020782965
0.00020722138
0.00020676944
0.00020649154
0.00020642037
0.0002065942
0.00020703914
0.00020775386
0.00020870737
0.0002098482
0.00021111651
0.00021245428
0.00021381161
0.00021514932
0.00021643915
0.00021766245
0.00021880838
0.00021987202
0.00022085265
0.00022175236
0.00022257424
0.00022332483
0.00022399512
0.00021902679
0.0002185156
0.00021797291
0.00021737898
0.00021673093
0.00021602697
0.0002152651
0.00021444538
0.00021356944
0.00021264147
0.00021166911
0.00021066467
0.0002096465
0.00020864042
0.00020768092
0.0002068127
0.00020608815
0.00020556516
0.00020529862
0.00020532727
0.00020566182
0.0002062807
0.0002071383
0.00020818171
0.00020869375
0.00020766545
0.00020680543
0.00020609958
0.00020554733
0.00020516976
0.00020501202
0.00020513171
0.00020557163
0.00020633482
0.00020738159
0.00020864519
0.00021004976
0.00021152455
0.00021301115
0.00021446594
0.00021585922
0.00021717288
0.00021839777
0.00021953111
0.00022057446
0.00022153207
0.00022240892
0.00022321352
0.0002239384
0.00021833535
0.00021783875
0.00021730578
0.00021671601
0.00021606632
0.00021535438
0.00021457748
0.00021373475
0.00021282676
0.00021185648
0.0002108304
0.00020975998
0.00020866335
0.00020756743
0.00020650981
0.00020554134
0.00020472447
0.00020413129
0.00020383319
0.00020388272
0.00020429477
0.00020503856
0.00020604901
0.0002072521
0.00020778263
0.00020665332
0.0002057004
0.00020489768
0.00020423825
0.00020374592
0.00020348214
0.00020353267
0.00020396628
0.00020479272
0.00020595858
0.00020737485
0.00020894396
0.00021057906
0.00021221211
0.00021379526
0.00021529834
0.00021670496
0.00021800872
0.00021920993
0.00022031311
0.00022132521
0.00022225343
0.00022310847
0.0002238846
0.00021764694
0.00021716684
0.00021664543
0.00021606159
0.00021541186
0.00021469329
0.00021390235
0.00021303701
0.00021209638
0.00021108176
0.00020999788
0.00020885458
0.00020766898
0.00020646822
0.00020529249
0.00020419904
0.00020326197
0.00020257131
0.00020222105
0.00020228421
0.00020278326
0.00020367503
0.00020486623
0.00020625222
0.00020677283
0.00020555503
0.00020451958
0.00020362301
0.00020284843
0.00020222079
0.00020182193
0.00020177883
0.00020220139
0.00020311002
0.00020442882
0.00020603607
0.00020780438
0.00020962693
0.0002114252
0.00021314801
0.0002147663
0.00021626707
0.00021764812
0.00021891392
0.00022007277
0.00022113481
0.00022210986
0.00022301098
0.00022383432
0.00021696344
0.00021650219
0.00021599453
0.00021541868
0.00021477096
0.00021404778
0.00021324459
0.00021235798
0.00021138526
0.00021032553
0.000209181
0.00020795896
0.00020667436
0.00020535332
0.00020403754
0.00020279037
0.00020169906
0.00020087591
0.0002004457
0.00020051199
0.00020111094
0.00020218312
0.00020359397
0.00020519387
0.00020565718
0.00020437211
0.00020327134
0.00020228756
0.0002013892
0.00020059885
0.00020002242
0.00019984661
0.00020024784
0.00020126432
0.0002027818
0.00020462985
0.00020664006
0.00020868145
0.00021066493
0.00021253797
0.00021427515
0.00021586921
0.00021732392
0.00021864925
0.00021985806
0.00022096425
0.00022198051
0.00022292247
0.00022378824
0.00021629233
0.00021585229
0.00021536059
0.00021479496
0.00021415152
0.00021342603
0.00021261282
0.00021170687
0.0002107033
0.0002095984
0.00020839105
0.00020708483
0.00020569105
0.00020423299
0.00020275205
0.0002013167
0.00020002844
0.00019902685
0.00019847838
0.00019853241
0.00019924956
0.00020054976
0.00020223712
0.00020409459
0.00020442546
0.00020310787
0.00020196892
0.00020090991
0.0001998792
0.00019889072
0.0001980754
0.00019770499
0.00019806526
0.00019922644
0.00020100607
0.00020316078
0.00020546558
0.00020776154
0.00020995054
0.00021198249
0.00021383946
0.000215523
0.00021704513
0.00021842267
0.00021967396
0.00022081706
0.00022186782
0.00022284442
0.00022374706
0.0002156344
0.00021521741
0.00021474369
0.00021419051
0.00021355392
0.00021282903
0.00021200898
0.00021108695
0.00021005552
0.00020890764
0.0002076379
0.00020624488
0.00020473443
0.00020312453
0.00020145327
0.00019979197
0.00019825655
0.00019701879
0.00019630046
0.00019631901
0.00019717812
0.00019877324
0.00020081687
0.00020298948
0.00020306996
0.00020177145
0.00020063367
0.00019951822
0.00019834786
0.00019711713
0.00019597592
0.00019531287
0.00019559577
0.00019695778
0.00019908996
0.00020163953
0.0002043036
0.00020689364
0.00020930719
0.00021150305
0.0002134764
0.00021524163
0.00021682156
0.00021824138
0.00021952564
0.0002206969
0.00022177423
0.00022277839
0.00022371153
0.00021500241
0.00021461173
0.00021415882
0.00021362109
0.00021299484
0.00021227454
0.00021145211
0.00021051874
0.00020946418
0.0002082774
0.00020694772
0.00020546713
0.00020383377
0.00020205694
0.0002001668
0.00019823322
0.00019638521
0.00019483144
0.00019386605
0.00019380767
0.0001948363
0.00019682351
0.00019934424
0.00020191885
0.00020157347
0.00020037717
0.00019930041
0.00019815769
0.00019684339
0.00019531754
0.000193729
0.00019261727
0.00019275407
0.000194407
0.0001970233
0.00020008707
0.00020318872
0.00020611427
0.0002087672
0.00021112565
0.0002132057
0.00021503955
0.00021666359
0.00021811272
0.00021941824
0.00022060734
0.00022170216
0.00022272587
0.00022368238
0.00021440474
0.00021404075
0.00021361021
0.00021309031
0.0002124776
0.00021176603
0.00021094629
0.00021000754
0.00020893653
0.0002077179
0.00020633479
0.00020477102
0.00020301468
0.00020106254
0.0001989303
0.00019667906
0.00019444755
0.00019248439
0.00019117501
0.000190985
0.00019222484
0.0001947517
0.00019793082
0.00020095016
0.0001999804
0.00019899513
0.00019805128
0.00019691329
0.00019545072
0.00019356879
0.00019136816
0.00018955898
0.0001894142
0.0001915076
0.00019480158
0.00019854171
0.00020217307
0.00020547325
0.00020837136
0.00021088095
0.00021304926
0.00021493194
0.00021658159
0.00021804376
0.00021935659
0.00022055164
0.0002216538
0.00022268823
0.00022366031
0.0002138788
0.00021354664
0.00021314346
0.00021264718
0.00021205524
0.00021136113
0.00021055437
0.00020962215
0.00020854817
0.00020731242
0.00020589106
0.00020425794
0.00020238826
0.00020026145
0.00019786891
0.00019524961
0.00019254428
0.00019004179
0.00018823761
0.00018780755
0.00018928417
0.0001925507
0.00019666158
0.00019938396
0.00019831864
0.00019772263
0.00019702083
0.00019593886
0.00019433634
0.00019203892
0.00018901074
0.00018610577
0.00018539808
0.00018817912
0.00019243454
0.00019707087
0.00020133474
0.00020503769
0.00020817002
0.00021080388
0.00021303027
0.00021493385
0.00021658524
0.00021804076
0.0002193448
0.00022053254
0.00022163098
0.00022266665
0.00022364592
0.0002135118
0.00021321252
0.00021284203
0.00021237685
0.000211815
0.00021114948
0.00021036882
0.00020945846
0.00020839934
0.00020716708
0.00020573062
0.00020405248
0.00020209245
0.00019980858
0.00019715626
0.0001941311
0.00019086372
0.00018768297
0.00018520874
0.00018441138
0.0001861906
0.00019055412
0.0001960941
0.00019738835
0.00019701934
0.00019703951
0.00019668547
0.00019568051
0.00019391161
0.0001911088
0.00018696797
0.00018234455
0.00018048317
0.00018434891
0.00018997567
0.00019579493
0.00020079092
0.00020489658
0.00020822324
0.00021093224
0.00021317157
0.00021505881
0.00021668255
0.00021810851
0.00021938583
0.00022055198
0.00022163498
0.00022266197
0.00022363967
0.00021348918
0.00021323617
0.00021291573
0.00021250214
0.00021199465
0.00021138601
0.00021066427
0.00020981391
0.00020881399
0.00020763673
0.0002062446
0.00020458804
0.00020260886
0.00020024043
0.00019738788
0.00019396324
0.00019005739
0.00018603753
0.0001826439
0.00018126008
0.00018338246
0.00018936938
0.00019636467
0.00019592553
0.00019673955
0.00019761667
0.00019767009
0.00019672697
0.00019477463
0.00019143972
0.00018593418
0.0001787317
0.00017447367
0.00018006253
0.00018760687
0.00019492311
0.00020071303
0.00020516366
0.00020859869
0.00021130347
0.00021349291
0.00021531692
0.00021687859
0.0002182496
0.00021948107
0.00022061079
0.00022166641
0.00022267465
0.00022364186
0.00021429741
0.0002141154
0.00021388513
0.00021356978
0.00021316904
0.00021267541
0.00021207727
0.00021135938
0.00021050056
0.00020947175
0.00020823152
0.00020671972
0.00020485859
0.00020255644
0.00019965746
0.00019592038
0.00019132976
0.00018632823
0.00018173815
0.00017956033
0.00018222686
0.00019095469
0.00019738288
0.00019696977
0.00019966113
0.00020159155
0.00020204143
0.00020111221
0.0001989569
0.00019507536
0.00018773532
0.00017667368
0.00016725013
0.00017574289
0.00018569251
0.00019477742
0.00020134132
0.00020597746
0.00020936569
0.00021194886
0.00021400698
0.00021571245
0.00021717419
0.00021846363
0.00021962989
0.00022070848
0.00022172501
0.00022270466
0.00022365256
0.00021691248
0.00021688204
0.00021684433
0.00021674152
0.00021657527
0.0002163398
0.00021602727
0.00021562734
0.0002151246
0.00021449657
0.00021370847
0.00021270159
0.00021138679
0.00020965869
0.00020731627
0.00020385347
0.00019893926
0.0001932482
0.00018740158
0.00018447605
0.00018847767
0.00020330993
0.00020617823
0.00020832938
0.00021299064
0.00021483137
0.00021454759
0.00021283777
0.00020997837
0.00020533739
0.00019484789
0.00017918309
0.00015898274
0.00017252338
0.00018501808
0.00019607626
0.00020306726
0.00020750479
0.00021058301
0.00021288394
0.00021471393
0.00021624113
0.00021756455
0.0002187466
0.00021982936
0.0002208431
0.00022180964
0.00022275144
0.0002236716
0.00022350668
0.00022381575
0.00022420208
0.00022456797
0.00022491969
0.0002252581
0.00022558674
0.00022591025
0.00022623237
0.00022655499
0.00022687545
0.00022717274
0.00022738709
0.00022745599
0.00022726916
0.00022596743
0.00022207825
0.00021723168
0.00021045449
0.00020812916
0.00021891239
0.00025260337
0.00025034814
0.00026297886
0.00027012865
0.00010851033
0.0001041349
0.00010113532
0.00010579853
0.0001106177
9.7490835e-05
8.6291999e-05
0.00010966386
0.0001750813
0.0001899627
0.00020083439
0.00020647182
0.00020988192
0.00021226176
0.00021409172
0.00021559467
0.00021688755
0.00021803843
0.00021909065
0.00022007414
0.00022101119
0.00022191819
0.00022281386
0.00022369855
0.00023593456
0.00023684815
0.00023793496
0.00023906296
0.00024025244
0.00024151903
0.0002428882
0.00024439363
0.00024607804
0.00024799701
0.00025022645
0.00025286333
0.00025600061
0.00025980472
0.0002647798
0.00027014451
0.00026957136
0.00026899548
0.00025976722
0.00026130561
0.00033896913
0.0003857787
0.00018813501
0.00021628649
0.00029314046
0.0004968392
0.00049956686
0.00049956686
0.00049956686
0.00049956686
0.00049956686
0.00044854698
0.00033345515
6.7642838e-05
0.00020904533
0.00021014282
0.00021148755
0.00021294886
0.00021429
0.00021550255
0.0002166061
0.00021762449
0.00021857824
0.00021948427
0.00022035672
0.00022120793
0.00022204772
0.00022289031
0.00022373273
0.00025587667
0.00025774008
0.00025987658
0.00026214764
0.00026460184
0.00026728672
0.00027027113
0.00027364636
0.00027753517
0.00028210835
0.00028761721
0.00029444342
0.00030312467
0.00031457155
0.00033155636
0.00035572653
0.00035881936
0.00037665941
0.00032930409
0.00016237311
0.00012932062
0.000113943
0.00043683152
0.00045901395
0.00048383326
0.00049956686
0.00049956686
0.00049956686
0.00049956686
0.00049956686
0.00041541619
0.00042280361
0.00010351367
0.00026020031
0.0002270332
0.00021889718
0.00021653931
0.00021613253
0.00021642854
0.00021700168
0.00021768662
0.00021841601
0.00021916184
0.00021991334
0.00022066797
0.00022142746
0.00022219459
0.00022297874
0.00022377325
0.00028318784
0.0002863959
0.00028976569
0.00029331402
0.00029712375
0.0003012713
0.00030584796
0.00031096286
0.00031674797
0.00032336289
0.00033099703
0.0003398353
0.00034985434
0.00036062804
0.00037339603
0.00038712411
0.00018474274
0.00022700548
0.0001347398
0.00049956686
0.00043406769
0.00042023766
0.0004791049
0.00047417675
0.00047777804
0.0004594563
0.00045268979
0.00045457833
0.00044252817
0.00043882474
0.00010916492
0.0001098216
0.00022751111
0.00025484297
0.00023379234
0.00022461327
0.00022063315
0.00021900186
0.00021846739
0.00021847819
0.00021877336
0.00021922442
0.00021976561
0.00022036265
0.00022099795
0.0002216633
0.00022235472
0.00022307677
0.00022381905
0.00030190138
0.00030488854
0.00030741033
0.00030988364
0.00031231895
0.00031474174
0.00031714919
0.00031952176
0.00032181939
0.00032398043
0.0003259142
0.00032746521
0.00032843714
0.00032903376
0.00032939974
0.00012401364
0.00040573321
0.00049826088
0.00046410066
0.00049255571
0.00048571922
0.00048239996
0.00012598106
0.00012284512
0.00010224446
0.00010170389
0.00010233216
0.00010377509
0.00010477206
0.00010645705
0.00020513238
0.00021270617
0.00022482763
0.00024655256
0.00023706244
0.0002283531
0.00022375102
0.00022140554
0.00022028514
0.00021985107
0.00021981417
0.00022001597
0.00022036738
0.00022081741
0.00022133673
0.00022190884
0.00022252385
0.00022318187
0.00022386894
0.00023571255
0.00023555338
0.00023493012
0.00023424342
0.0002334735
0.00023263726
0.00023173854
0.00023078483
0.00022978541
0.00022875102
0.00022768685
0.00022658886
0.00022549738
0.00022447529
0.00022298871
0.00022086768
0.00010158124
0.00010163945
0.00010164172
0.00010161096
0.00010197838
0.0001020052
0.00021514416
0.00021335012
0.00021146328
0.00020811663
0.00020710532
0.00020671356
0.00020516674
0.00020555066
0.00020729951
0.000213835
0.00022411132
0.00023838972
0.00023797026
0.00023048571
0.00022593965
0.00022329445
0.00022182036
0.00022106941
0.0002207714
0.00022076389
0.00022094836
0.00022126447
0.00022167513
0.00022215776
0.00022269777
0.00022329148
0.00022392169
0.00021991689
0.00021988736
0.00021981591
0.00021971437
0.00021959533
0.00021947055
0.00021934654
0.00021922895
0.00021912217
0.00021902785
0.00021894151
0.00021886303
0.00021882203
0.00021875346
0.00021836251
0.00021846728
0.00022064741
0.00021954301
0.00021804118
0.00021653454
0.00021482912
0.00021367625
0.00021249155
0.00021081602
0.00020983901
0.00020829078
0.00020748939
0.00020707174
0.00020656411
0.00020735879
0.00020981627
0.00021539846
0.00022369167
0.00023340558
0.00023723534
0.00023153724
0.00022737535
0.00022470451
0.00022306146
0.00022210993
0.00022162241
0.00022144954
0.00022149412
0.00022169301
0.00022200523
0.00022240439
0.00022287257
0.00022340313
0.00022397611
0.00021610102
0.00021616924
0.00021625704
0.00021633286
0.00021640132
0.00021646865
0.00021653838
0.00021661321
0.00021669384
0.0002167778
0.00021686018
0.00021694442
0.00021703637
0.00021705485
0.00021694852
0.0002173137
0.00021817978
0.00021756608
0.00021650408
0.00021527742
0.00021396571
0.0002128803
0.0002117955
0.00021066532
0.00020980254
0.00020884161
0.00020831348
0.00020811236
0.00020824682
0.00020940664
0.00021202555
0.00021676523
0.00022329335
0.00023022767
0.00023472788
0.0002318825
0.00022823577
0.000225704
0.000224026
0.00022296954
0.00022235727
0.00022206193
0.00022199481
0.00022209491
0.00022232063
0.00022264389
0.0002230448
0.00022351456
0.00022403105
0.00021497738
0.00021506261
0.00021517572
0.00021528556
0.00021539105
0.00021549496
0.00021559897
0.0002157046
0.00021581153
0.00021591701
0.00021601834
0.00021611793
0.000216207
0.00021623325
0.0002162397
0.00021651726
0.00021683767
0.00021642378
0.00021565093
0.00021469746
0.00021369126
0.0002127724
0.00021186993
0.00021101895
0.00021031976
0.00020970415
0.00020942001
0.00020946522
0.00020995702
0.00021129498
0.0002138048
0.00021778547
0.00022291206
0.00022809469
0.00023180913
0.00023180126
0.00022868044
0.00022637161
0.00022474718
0.00022365848
0.00022297568
0.00022259657
0.00022244476
0.00022246467
0.00022261657
0.00022287241
0.00022321153
0.0002236238
0.00022408548
0.0002144956
0.00021459493
0.00021471454
0.00021483388
0.00021495148
0.00021506854
0.00021518548
0.00021530296
0.00021542012
0.00021553462
0.00021564483
0.00021575016
0.00021583748
0.00021588172
0.00021593394
0.00021610332
0.00021619067
0.00021586914
0.00021527754
0.00021453016
0.00021373532
0.00021297586
0.0002122476
0.00021159236
0.00021106275
0.00021068153
0.00021058315
0.00021081369
0.00021149803
0.00021288377
0.00021518563
0.00021851789
0.00022258068
0.00022659408
0.00022967682
0.00023115587
0.00022883155
0.00022678054
0.00022526351
0.0002241944
0.00022348386
0.00022305389
0.00022284177
0.00022279915
0.00022288981
0.00022308706
0.00022337045
0.0002237292
0.00022413851
0.0002142947
0.00021439417
0.00021451297
0.00021463296
0.00021475224
0.00021487122
0.00021498961
0.00021510752
0.00021522392
0.00021533697
0.0002154453
0.00021554618
0.00021562825
0.00021568232
0.00021574257
0.00021583548
0.00021582701
0.00021556841
0.00021511229
0.00021453185
0.00021390652
0.00021329546
0.00021272208
0.00021222658
0.00021185142
0.00021164265
0.0002116871
0.00021204561
0.0002128253
0.00021418471
0.00021625344
0.00021905103
0.00022231891
0.00022551514
0.00022809378
0.0002298626
0.00022878383
0.00022699441
0.00022561323
0.0002245982
0.00022389194
0.0002234378
0.00022318635
0.00022309721
0.00022313853
0.0002232859
0.00022351982
0.00022382945
0.00022418943
0.00021417553
0.00021428137
0.00021440274
0.0002145252
0.00021464745
0.00021476961
0.00021489085
0.00021501086
0.00021512842
0.00021524187
0.00021534945
0.00021544739
0.00021552721
0.00021558601
0.00021564066
0.0002156866
0.00021564045
0.00021542936
0.00021507503
0.00021462575
0.00021413864
0.00021366008
0.00021322188
0.0002128618
0.00021261968
0.00021254368
0.00021269818
0.00021314269
0.00021396137
0.00021525616
0.00021709782
0.00021945997
0.00022213018
0.00022473203
0.0002269069
0.00022849189
0.00022860693
0.00022706521
0.00022583112
0.00022489123
0.00022421199
0.00022375437
0.000223481
0.00022335924
0.00022336207
0.00022346782
0.00022365848
0.00022392359
0.00022423766
0.00021411552
0.00021422118
0.00021434256
0.00021446524
0.00021458794
0.00021471063
0.00021483229
0.00021495239
0.00021506974
0.00021518279
0.00021528954
0.00021538609
0.0002154664
0.00021552901
0.00021557921
0.00021560368
0.00021555154
0.00021538486
0.00021511429
0.00021477281
0.00021440233
0.00021404087
0.00021372098
0.00021347762
0.00021334822
0.00021337684
0.00021361474
0.00021411389
0.00021493726
0.00021614916
0.00021778219
0.00021979045
0.00022200438
0.00022415909
0.0002260079
0.00022741813
0.00022817847
0.00022703317
0.00022594697
0.00022509353
0.00022445653
0.00022401086
0.00022372944
0.00022358681
0.0002235607
0.00022363241
0.00022378576
0.00022401098
0.00022428279
0.00021407805
0.00021418798
0.0002143117
0.00021443618
0.00021456057
0.00021468486
0.00021480787
0.00021492898
0.00021504701
0.00021516046
0.00021526724
0.00021536379
0.00021544576
0.00021551149
0.0002155602
0.0002155785
0.00021553534
0.00021541036
0.00021521042
0.00021495908
0.00021468798
0.00021442878
0.00021421178
0.00021406878
0.00021403389
0.00021414552
0.0002144454
0.0002149762
0.00021578347
0.00021690613
0.00021835338
0.00022007379
0.0002219338
0.00022374352
0.00022532702
0.000226578
0.00022746288
0.00022692989
0.00022598571
0.00022522312
0.00022463772
0.00022421495
0.00022393619
0.00022378229
0.0002237354
0.00022377984
0.00022390141
0.00022409125
0.00022432457
0.00021406675
0.00021417775
0.00021430278
0.00021442856
0.00021455426
0.0002146799
0.00021480426
0.00021492669
0.00021504608
0.00021516097
0.0002152693
0.00021536802
0.00021545374
0.00021552434
0.00021557646
0.00021559925
0.0002155737
0.00021548891
0.00021535053
0.00021517628
0.00021499082
0.00021482066
0.00021469285
0.00021463575
0.00021467957
0.000214857
0.00021520197
0.00021574812
0.00021652733
0.00021756146
0.00021884616
0.00022033136
0.00022191227
0.00022344994
0.00022481538
0.00022592386
0.00022674111
0.0002267793
0.00022596756
0.00022529563
0.0002247668
0.00022437426
0.00022410611
0.00022394852
0.00022388767
0.00022391075
0.00022400555
0.00022416429
0.00022436286
0.00021407389
0.0002141881
0.00021431539
0.00021444307
0.00021457055
0.00021469793
0.000214824
0.00021494818
0.00021506942
0.00021518639
0.0002152972
0.00021539932
0.00021549003
0.00021556699
0.00021562623
0.00021565982
0.00021565614
0.00021560971
0.0002155258
0.00021541835
0.00021530711
0.00021521433
0.00021516359
0.00021517971
0.00021528878
0.00021551817
0.0002158951
0.00021644525
0.00021719013
0.00021814026
0.00021928397
0.00022057566
0.00022193287
0.00022325196
0.00022443626
0.00022541826
0.00022616594
0.00022655296
0.00022590858
0.00022532425
0.00022485383
0.00022449602
0.00022424409
0.00022408865
0.00022401937
0.00022402609
0.00022409858
0.00022423018
0.00022439763
0.00021410039
0.00021421643
0.00021434565
0.00021447522
0.0002146046
0.00021473393
0.00021486207
0.00021498849
0.00021511227
0.00021523219
0.00021534663
0.00021545349
0.00021555058
0.00021563563
0.00021570502
0.00021575338
0.00021577369
0.00021576374
0.00021572862
0.00021567975
0.00021563322
0.00021560776
0.00021562358
0.000215702
0.00021586513
0.00021613545
0.00021653443
0.0002170811
0.00021778917
0.00021866176
0.00021968378
0.00022081504
0.00022199034
0.00022313099
0.00022416326
0.0002250333
0.00022571258
0.0002261962
0.00022582141
0.00022531998
0.00022490763
0.00022458687
0.0002243549
0.0002242059
0.00022413254
0.00022412705
0.0002241811
0.00022428916
0.00022442895
0.00021414314
0.00021426178
0.00021439319
0.00021452483
0.00021465627
0.00021478773
0.00021491817
0.00021504715
0.00021517388
0.00021529734
0.00021541617
0.00021552871
0.00021563322
0.00021572774
0.00021580935
0.00021587472
0.00021591981
0.00021594435
0.00021595333
0.00021595629
0.00021596657
0.00021599987
0.00021607331
0.00021620489
0.00021641296
0.00021671565
0.00021712949
0.00021766807
0.00021833935
0.00021914174
0.00022005893
0.00022105617
0.00022208152
0.00022307434
0.00022397762
0.00022474832
0.0002253618
0.00022581143
0.00022571633
0.00022529206
0.00022493593
0.00022465291
0.00022444311
0.00022430352
0.00022422937
0.000224215
0.00022425386
0.00022434159
0.00022445693
0.00021420136
0.00021432201
0.00021445551
0.00021458927
0.0002147229
0.0002148567
0.0002149897
0.0002151216
0.00021525174
0.00021537931
0.00021550323
0.00021562226
0.00021573506
0.00021584013
0.00021593533
0.00021601891
0.00021608876
0.00021614581
0.00021619487
0.00021624409
0.00021630458
0.00021638945
0.00021651301
0.00021669017
0.00021693586
0.00021726435
0.00021768799
0.00021821594
0.00021885197
0.0002195915
0.00022041832
0.00022130263
0.00022220274
0.00022307131
0.00022386386
0.00022454595
0.00022509678
0.00022550937
0.00022560086
0.00022524782
0.00022494518
0.00022469945
0.00022451283
0.00022438458
0.00022431202
0.00022429135
0.0002243177
0.00022438786
0.00022448173
0.00021427299
0.00021439588
0.00021453153
0.00021466745
0.00021480335
0.00021493959
0.00021507532
0.00021521035
0.00021534421
0.00021547628
0.00021560579
0.00021573186
0.00021585357
0.0002159699
0.00021607948
0.00021618174
0.00021627584
0.00021636347
0.0002164492
0.00021654002
0.00021664524
0.00021677572
0.00021694324
0.00021715991
0.00021743755
0.00021778704
0.00021821716
0.00021873353
0.00021933682
0.00022002062
0.00022076944
0.00022155781
0.00022235204
0.0002231148
0.00022381112
0.00022441356
0.00022490491
0.00022527869
0.00022548157
0.00022519378