/*--------------------------------*- C++ -*----------------------------------*\
| =========                 |                                                 |
| \\      /  F ield         | foam-extend: Open Source CFD                    |
|  \\    /   O peration     | Version:     4.1                                |
|   \\  /    A nd           | Web:         http://www.foam-extend.org         |
|    \\/     M anipulation  |                                                 |
\*---------------------------------------------------------------------------*/
FoamFile
{
    version     2.0;
    format      ascii;
    class       volVectorField;
    location    "0.05";
    object      U;
}
// * * * * * * * * * * * * * * * * * * * * * * * * * * * * * * * * * * * * * //

dimensions      [0 1 -1 0 0 0 0];

internalField   nonuniform List<vector> 
4393
(
(144.80272 -0.26508367 0)
(145.77202 -0.27235681 0)
(146.49767 -0.27671759 0)
(147.26883 -0.28202935 0)
(148.05355 -0.28827713 0)
(148.85904 -0.29545866 0)
(149.68746 -0.30338518 0)
(150.54077 -0.3117713 0)
(151.41994 -0.32023715 0)
(152.32463 -0.3283061 0)
(153.25297 -0.33540198 0)
(154.20122 -0.3408521 0)
(155.16348 -0.34390092 0)
(156.13144 -0.34373862 0)
(157.09433 -0.33954825 0)
(158.03889 -0.33057284 0)
(158.94971 -0.31619945 0)
(159.80977 -0.29605027 0)
(160.60134 -0.27006146 0)
(161.30701 -0.23852516 0)
(161.9108 -0.20207429 0)
(162.39917 -0.16160675 0)
(162.7616 -0.11816781 0)
(162.99093 -0.072824944 0)
(163.08324 -0.026552596 0)
(163.03777 0.019842923 0)
(162.85541 0.065462668 0)
(162.54026 0.10923973 0)
(162.09915 0.15019838 0)
(161.54166 0.18736229 0)
(160.88039 0.21971499 0)
(160.13097 0.24627513 0)
(159.31187 0.26622639 0)
(158.44363 0.27905129 0)
(157.54781 0.28461945 0)
(156.6458 0.28320407 0)
(155.75764 0.27542924 0)
(154.90112 0.26217062 0)
(154.09121 0.24443897 0)
(153.33984 0.2232715 0)
(152.65596 0.19964672 0)
(152.04581 0.17442807 0)
(151.51334 0.14833541 0)
(151.06069 0.12195065 0)
(150.68853 0.095772296 0)
(150.39662 0.070242461 0)
(150.18357 0.045524343 0)
(150.04597 0.021400274 0)
(149.97935 0.0016266969 0)
(148.19606 -0.71150599 0)
(149.0823 -0.72617281 0)
(149.73879 -0.73868931 0)
(150.43756 -0.75437881 0)
(151.14988 -0.77315211 0)
(151.88303 -0.79481612 0)
(152.63934 -0.81878944 0)
(153.42093 -0.84422379 0)
(154.22888 -0.86999811 0)
(155.06303 -0.89470354 0)
(155.92164 -0.91663082 0)
(156.8011 -0.93377549 0)
(157.69562 -0.94387441 0)
(158.59698 -0.94448728 0)
(159.49436 -0.93313467 0)
(160.37439 -0.9074987 0)
(161.22142 -0.86567882 0)
(162.01808 -0.80647442 0)
(162.74615 -0.72963617 0)
(163.38775 -0.63600884 0)
(163.92646 -0.52749915 0)
(164.34841 -0.40685429 0)
(164.64295 -0.27730854 0)
(164.80291 -0.1422086 0)
(164.8245 -0.0047064032 0)
(164.70703 0.13244985 0)
(164.45322 0.26667185 0)
(164.06755 0.3953912 0)
(163.55659 0.51599454 0)
(162.92957 0.62567772 0)
(162.19871 0.72144607 0)
(161.3794 0.80035663 0)
(160.49002 0.85991944 0)
(159.55117 0.89851161 0)
(158.5846 0.91565364 0)
(157.61185 0.91206697 0)
(156.65311 0.88952101 0)
(155.72623 0.85053915 0)
(154.84615 0.79805223 0)
(154.02473 0.73507457 0)
(153.2708 0.66444845 0)
(152.59047 0.58867249 0)
(151.9876 0.50981086 0)
(151.46427 0.42949403 0)
(151.02121 0.34902911 0)
(150.65807 0.26943339 0)
(150.37323 0.19102956 0)
(150.1658 0.11331977 0)
(150.04075 0.042955063 0)
(148.57139 -1.1576845 0)
(149.43506 -1.1734068 0)
(150.07404 -1.193025 0)
(150.75427 -1.2185818 0)
(151.44825 -1.2497119 0)
(152.16342 -1.2858233 0)
(152.90234 -1.3258969 0)
(153.66735 -1.3685085 0)
(154.45979 -1.4117941 0)
(155.27976 -1.4534112 0)
(156.12586 -1.4905102 0)
(156.99478 -1.519737 0)
(157.88103 -1.5372874 0)
(158.7766 -1.5390383 0)
(159.67078 -1.5207757 0)
(160.5501 -1.4785323 0)
(161.3986 -1.4090262 0)
(162.19836 -1.3101552 0)
(162.93044 -1.1814457 0)
(163.57614 -1.024318 0)
(164.11833 -0.84204026 0)
(164.54264 -0.63934016 0)
(164.83819 -0.42177567 0)
(164.99782 -0.1950743 0)
(165.01793 0.035354783 0)
(164.89806 0.2647222 0)
(164.63995 0.4888859 0)
(164.24773 0.70391121 0)
(163.72779 0.90561253 0)
(163.08913 1.0893224 0)
(162.34389 1.2499514 0)
(161.5077 1.3824259 0)
(160.59954 1.4824176 0)
(159.64093 1.5470973 0)
(158.65466 1.5756327 0)
(157.66333 1.5692843 0)
(156.68793 1.5311213 0)
(155.74683 1.4654925 0)
(154.8552 1.3774151 0)
(154.02487 1.2720114 0)
(153.26442 1.154074 0)
(152.57962 1.027779 0)
(151.97393 0.89654137 0)
(151.44908 0.76300859 0)
(151.00547 0.62917092 0)
(150.64227 0.49638022 0)
(150.35742 0.36520016 0)
(150.15182 0.23536862 0)
(150.03469 0.11131347 0)
(148.69855 -1.5891716 0)
(149.55099 -1.6077462 0)
(150.18305 -1.6346334 0)
(150.8563 -1.6704708 0)
(151.54386 -1.7145593 0)
(152.25337 -1.765933 0)
(152.98769 -1.8231515 0)
(153.74952 -1.8842444 0)
(154.54055 -1.9466387 0)
(155.36131 -2.0070862 0)
(156.21081 -2.0616092 0)
(157.08616 -2.10549 0)
(157.98219 -2.1333328 0)
(158.89109 -2.1392348 0)
(159.80211 -2.1170994 0)
(160.70143 -2.0611161 0)
(161.57233 -1.9664023 0)
(162.39575 -1.8297473 0)
(163.1513 -1.6503132 0)
(163.81873 -1.4300693 0)
(164.37954 -1.1737492 0)
(164.81837 -0.88825992 0)
(165.12391 -0.58169853 0)
(165.28906 -0.26231156 0)
(165.31058 0.062258795 0)
(165.18844 0.38537393 0)
(164.92464 0.7012602 0)
(164.52334 1.004511 0)
(163.99064 1.2893779 0)
(163.33514 1.5493057 0)
(162.56882 1.7769417 0)
(161.70761 1.9647925 0)
(160.77138 2.1063784 0)
(159.78313 2.19744 0)
(158.76733 2.2367262 0)
(157.74821 2.2261301 0)
(156.74802 2.170228 0)
(155.78596 2.0754506 0)
(154.87753 1.9491511 0)
(154.03445 1.7987692 0)
(153.26494 1.6312021 0)
(152.57422 1.4524087 0)
(151.96512 1.2672273 0)
(151.43879 1.0793766 0)
(150.9951 0.89157073 0)
(150.63264 0.70557942 0)
(150.349 0.52249496 0)
(150.14579 0.34257791 0)
(150.03251 0.16838539 0)
(148.83032 -2.0196452 0)
(149.67295 -2.0421119 0)
(150.29839 -2.0763051 0)
(150.96521 -2.1225044 0)
(151.64702 -2.1797474 0)
(152.35175 -2.2467447 0)
(153.08263 -2.3216568 0)
(153.84278 -2.4019908 0)
(154.63437 -2.4844858 0)
(155.45849 -2.5650009 0)
(156.3147 -2.6384258 0)
(157.20067 -2.6986429 0)
(158.1117 -2.7385837 0)
(159.04027 -2.7504274 0)
(159.9756 -2.7259926 0)
(160.90342 -2.6573661 0)
(161.806 -2.537775 0)
(162.66271 -2.3626396 0)
(163.45112 -2.1306084 0)
(164.14877 -1.8442416 0)
(164.73521 -1.5100003 0)
(165.19374 -1.1374006 0)
(165.51256 -0.73755614 0)
(165.68476 -0.32161847 0)
(165.70781 0.10034566 0)
(165.58244 0.51990985 0)
(165.31104 0.93002293 0)
(164.89779 1.324108 0)
(164.34829 1.695045 0)
(163.6705 2.0343869 0)
(162.87594 2.3322691 0)
(161.98086 2.5783323 0)
(161.00641 2.7634608 0)
(159.97764 2.8816285 0)
(158.92151 2.931082 0)
(157.86454 2.9145098 0)
(156.8308 2.838318 0)
(155.84056 2.7113954 0)
(154.90972 2.5437716 0)
(154.04982 2.3454561 0)
(153.26847 2.1255978 0)
(152.57011 1.8919847 0)
(151.95671 1.6508402 0)
(151.42858 1.4068461 0)
(150.98484 1.1632875 0)
(150.62343 0.92220054 0)
(150.34167 0.68495235 0)
(150.14134 0.45171507 0)
(150.03115 0.2239128 0)
(148.99287 -2.4422645 0)
(149.82339 -2.4694178 0)
(150.44056 -2.511435 0)
(151.0994 -2.5686632 0)
(151.77409 -2.6399351 0)
(152.47288 -2.7237059 0)
(153.19943 -2.8177905 0)
(153.95739 -2.9192251 0)
(154.74955 -3.0241091 0)
(155.57768 -3.1274445 0)
(156.4421 -3.2229968 0)
(157.34123 -3.3032141 0)
(158.27103 -3.3592561 0)
(159.22442 -3.3812003 0)
(160.19069 -3.3584988 0)
(161.15507 -3.2807569 0)
(162.0986 -3.1388696 0)
(162.99857 -2.9264601 0)
(163.82982 -2.6413712 0)
(164.56685 -2.2867267 0)
(165.18648 -1.8710091 0)
(165.67025 -1.4068876 0)
(166.00572 -0.90910375 0)
(166.18645 -0.39218856 0)
(166.21101 0.13115402 0)
(166.08133 0.65074568 0)
(165.80046 1.1584303 0)
(165.37258 1.6468312 0)
(164.80254 2.1077496 0)
(164.09715 2.5308789 0)
(163.26709 2.9034969 0)
(162.32884 3.2117102 0)
(161.30519 3.4430297 0)
(160.22408 3.5891576 0)
(159.1159 3.6477349 0)
(158.01034 3.6225198 0)
(156.93389 3.5222608 0)
(155.9082 3.3588877 0)
(154.94958 3.1456336 0)
(154.06919 2.8954802 0)
(153.2738 2.6200889 0)
(152.5667 2.3292107 0)
(151.94867 2.0304884 0)
(151.41891 1.7295294 0)
(150.97551 1.4301159 0)
(150.61561 1.1344634 0)
(150.33604 0.84398214 0)
(150.13833 0.55825031 0)
(150.03034 0.27762431 0)
(149.18864 -2.8583693 0)
(150.00501 -2.8904487 0)
(150.61206 -2.940477 0)
(151.26101 -3.0090624 0)
(151.9268 -3.0948885 0)
(152.61804 -3.1962212 0)
(153.33891 -3.3105928 0)
(154.09367 -3.4346346 0)
(154.88587 -3.5638712 0)
(155.71813 -3.6925009 0)
(156.59173 -3.8131913 0)
(157.50607 -3.9169324 0)
(158.45802 -3.9930111 0)
(159.44119 -4.0291955 0)
(160.4451 -4.0122328 0)
(161.45448 -3.928774 0)
(162.44892 -3.7668077 0)
(163.40311 -3.5175856 0)
(164.28827 -3.1777463 0)
(165.07481 -2.750954 0)
(165.73588 -2.248169 0)
(166.25059 -1.6860529 0)
(166.60584 -1.0839108 0)
(166.79607 -0.4603604 0)
(166.82162 0.16897791 0)
(166.68624 0.79236048 0)
(166.394 1.4010805 0)
(165.94906 1.9875523 0)
(165.3551 2.5429816 0)
(164.61706 3.0553142 0)
(163.74411 3.5085091 0)
(162.75264 3.8841571 0)
(161.66759 4.1652784 0)
(160.52082 4.3405396 0)
(159.34741 4.4068215 0)
(158.18136 4.3693486 0)
(157.05229 4.2399253 0)
(155.98354 4.0343006 0)
(154.99174 3.7695771 0)
(154.08745 3.4621805 0)
(153.27617 3.1265546 0)
(152.55965 2.7745176 0)
(151.93714 2.4151183 0)
(151.40638 2.0548107 0)
(150.96422 1.6977821 0)
(150.60679 1.3463502 0)
(150.33027 1.001872 0)
(150.13557 0.66328833 0)
(150.02966 0.330185 0)
(149.41739 -3.2674557 0)
(150.21662 -3.304769 0)
(150.81147 -3.363259 0)
(151.44842 -3.4438727 0)
(152.1033 -3.5451873 0)
(152.78512 -3.6653485 0)
(153.49865 -3.801685 0)
(154.24886 -3.9505127 0)
(155.0402 -4.1068728 0)
(155.87631 -4.2642427 0)
(156.75968 -4.4142456 0)
(157.69095 -4.5464088 0)
(158.66825 -4.6480476 0)
(159.68616 -4.7043835 0)
(160.7347 -4.6990438 0)
(161.79826 -4.6151093 0)
(162.85476 -4.4368745 0)
(163.87572 -4.1523807 0)
(164.82765 -3.7564195 0)
(165.67547 -3.2530639 0)
(166.38732 -2.6563277 0)
(166.93912 -1.9880311 0)
(167.31707 -1.2733758 0)
(167.51714 -0.53607003 0)
(167.54248 0.20497525 0)
(167.39954 0.93669971 0)
(167.09397 1.6504852 0)
(166.62996 2.3394337 0)
(166.00939 2.9949289 0)
(165.23425 3.6034408 0)
(164.311 4.1450299 0)
(163.25549 4.5953553 0)
(162.09528 4.9312827 0)
(160.86763 5.1373304 0)
(159.61404 5.209455 0)
(158.37429 5.1549944 0)
(157.18198 4.9898786 0)
(156.06238 4.7347831 0)
(155.03232 4.4115833 0)
(154.10125 4.0407538 0)
(153.27289 3.6398386 0)
(152.54696 3.2228126 0)
(151.92068 2.8000653 0)
(151.39 2.3787419 0)
(150.95028 1.963242 0)
(150.59647 1.5557763 0)
(150.32388 1.1574313 0)
(150.13269 0.76640381 0)
(150.02899 0.3816202 0)
(149.67864 -3.6650773 0)
(150.45801 -3.7077044 0)
(151.0385 -3.7749301 0)
(151.66116 -3.8681016 0)
(152.3029 -3.9857325 0)
(152.97315 -4.1259232 0)
(153.67733 -4.2858928 0)
(154.42123 -4.4617517 0)
(155.21029 -4.6481782 0)
(156.04942 -4.8380445 0)
(156.94252 -5.0220179 0)
(157.89188 -5.1881909 0)
(158.89721 -5.3218257 0)
(159.95457 -5.4053476 0)
(161.05488 -5.418781 0)
(162.18242 -5.3408762 0)
(163.31341 -5.151205 0)
(164.41551 -4.8334376 0)
(165.44923 -4.3795641 0)
(166.37211 -3.7938056 0)
(167.14544 -3.094013 0)
(167.74083 -2.3088599 0)
(168.14384 -1.4714028 0)
(168.35304 -0.61188558 0)
(168.37587 0.24700974 0)
(168.22285 1.0913905 0)
(167.902 1.9138517 0)
(167.41754 2.7095059 0)
(166.76874 3.4711074 0)
(165.95301 4.1841896 0)
(164.9723 4.8242078 0)
(163.84088 5.3588292 0)
(162.58961 5.7562325 0)
(161.26316 5.9951151 0)
(159.91196 6.0703293 0)
(158.58348 5.99233 0)
(157.31634 5.7827208 0)
(156.13795 5.4686153 0)
(155.06491 5.0778212 0)
(154.10492 4.6355837 0)
(153.2592 4.1628822 0)
(152.52476 3.6759055 0)
(151.89629 3.1862713 0)
(151.36755 2.701623 0)
(150.93211 2.226356 0)
(150.58356 1.7623575 0)
(150.31621 1.3102403 0)
(150.12934 0.86733248 0)
(150.02824 0.43184684 0)
(149.97187 -4.0548365 0)
(150.72788 -4.1029957 0)
(151.29158 -4.1793632 0)
(151.89742 -4.2857406 0)
(152.52352 -4.4206242 0)
(153.17972 -4.5821507 0)
(153.87215 -4.7675408 0)
(154.60748 -4.972838 0)
(155.39231 -5.1925164 0)
(156.23298 -5.4190087 0)
(157.13514 -5.6421741 0)
(158.10305 -5.8487596 0)
(159.13859 -6.0219461 0)
(160.23984 -6.1411347 0)
(161.39923 -6.1822215 0)
(162.60141 -6.118713 0)
(163.82101 -5.9241273 0)
(165.02119 -5.5761457 0)
(166.15476 -5.0624953 0)
(167.16936 -4.3869902 0)
(168.01677 -3.5722977 0)
(168.66273 -2.6563492 0)
(169.09229 -1.6829012 0)
(169.30826 -0.6907975 0)
(169.32466 0.29290714 0)
(169.15801 1.254248 0)
(168.81983 2.188597 0)
(168.31449 3.0950123 0)
(167.63754 3.9694336 0)
(166.77944 4.7974731 0)
(165.73473 5.5492088 0)
(164.51435 6.1813473 0)
(163.15321 6.6495053 0)
(161.70646 6.9240491 0)
(160.23695 6.9986155 0)
(158.80247 6.8883975 0)
(157.44789 6.622961 0)
(156.20273 6.2379364 0)
(155.08267 5.7685417 0)
(154.09266 5.2456169 0)
(153.23043 4.6938763 0)
(152.48948 4.1316751 0)
(151.86135 3.5716225 0)
(151.33716 3.0215501 0)
(150.90843 2.4855358 0)
(150.56721 1.9648597 0)
(150.30672 1.4594306 0)
(150.12529 0.96556317 0)
(150.02733 0.48064461 0)
(150.29581 -4.4277027 0)
(151.0253 -4.4813181 0)
(151.56972 -4.5669988 0)
(152.15608 -4.6870519 0)
(152.76382 -4.8400066 0)
(153.40323 -5.0241325 0)
(154.08113 -5.2367868 0)
(154.80516 -5.474119 0)
(155.58317 -5.7306047 0)
(156.42315 -5.9984625 0)
(157.3328 -6.2669623 0)
(158.31883 -6.5216728 0)
(159.38587 -6.7437374 0)
(160.5348 -6.9093439 0)
(161.76044 -6.9896922 0)
(163.04862 -6.9519454 0)
(164.37274 -6.7618362 0)
(165.69094 -6.3887891 0)
(166.94626 -5.8140255 0)
(168.07294 -5.0398766 0)
(169.00948 -4.0950381 0)
(169.71338 -3.0301906 0)
(170.16945 -1.9040451 0)
(170.38728 -0.76708284 0)
(170.39089 0.34850316 0)
(170.20555 1.4299454 0)
(169.84792 2.4777874 0)
(169.3227 3.4977857 0)
(168.62025 4.4917362 0)
(167.72076 5.4471203 0)
(166.60686 6.3279468 0)
(165.28307 7.0756917 0)
(163.78928 7.6273639 0)
(162.19566 7.941137 0)
(160.58273 8.0095375 0)
(159.02216 7.8551224 0)
(157.56641 7.5188111 0)
(156.24677 7.0475876 0)
(155.07674 6.4859244 0)
(154.0571 5.8711512 0)
(153.18078 5.2319269 0)
(152.43675 4.5885749 0)
(151.81268 3.9543092 0)
(151.29662 3.3367146 0)
(150.87777 2.7391449 0)
(150.54653 2.1619254 0)
(150.29492 1.6039878 0)
(150.12031 1.0604464 0)
(150.02623 0.52770316 0)
(150.65022 -4.7916499 0)
(151.34908 -4.8511296 0)
(151.87139 -4.9467297 0)
(152.43523 -5.0812987 0)
(153.02152 -5.2534407 0)
(153.64091 -5.461652 0)
(154.30094 -5.7035695 0)
(155.0102 -5.9756423 0)
(155.77793 -6.27259 0)
(156.61394 -6.5867002 0)
(157.52831 -6.9069538 0)
(158.53073 -7.2180116 0)
(159.62931 -7.4991414 0)
(160.82874 -7.7232369 0)
(162.12745 -7.8562724 0)
(163.51369 -7.8578448 0)
(164.96052 -7.6837739 0)
(166.42075 -7.2921852 0)
(167.82519 -6.6544784 0)
(169.08984 -5.7695958 0)
(170.13424 -4.6737079 0)
(170.90405 -3.4353168 0)
(171.38427 -2.1344458 0)
(171.59523 -0.83761777 0)
(171.57607 0.41700504 0)
(171.36478 1.6199639 0)
(170.98543 2.7804923 0)
(170.44331 3.9149098 0)
(169.72184 5.0347003 0)
(168.78635 6.1322635 0)
(167.60065 7.1653132 0)
(166.15745 8.0540534 0)
(164.50262 8.7073021 0)
(162.72843 9.0649556 0)
(160.94102 9.1191327 0)
(159.23077 8.904066 0)
(157.65905 8.4770964 0)
(156.25792 7.9003988 0)
(155.03669 7.2299238 0)
(153.98986 6.5103584 0)
(153.10385 5.7742985 0)
(152.36189 5.0435789 0)
(151.74699 4.3314047 0)
(151.24372 3.6445087 0)
(150.83872 2.9849995 0)
(150.52065 2.351834 0)
(150.28035 1.7426582 0)
(150.11421 1.1511765 0)
(150.02488 0.57263083 0)
(151.03208 -5.1323789 0)
(151.69662 -5.1972138 0)
(152.19395 -5.3023884 0)
(152.73221 -5.4513486 0)
(153.29386 -5.6428348 0)
(153.88983 -5.8756952 0)
(154.52833 -6.1480331 0)
(155.21894 -6.4568518 0)
(155.97231 -6.7974429 0)
(156.80024 -7.1625632 0)
(157.71552 -7.5413583 0)
(158.73133 -7.9180443 0)
(159.86014 -8.2704013 0)
(161.11167 -8.5681775 0)
(162.48957 -8.7717395 0)
(163.98639 -8.8318084 0)
(165.57647 -8.6916489 0)
(167.20749 -8.2938805 0)
(168.79525 -7.5949285 0)
(170.23085 -6.5866844 0)
(171.40646 -5.3140415 0)
(172.25027 -3.870529 0)
(172.74818 -2.3671181 0)
(172.93743 -0.89301046 0)
(172.88005 0.50665286 0)
(172.63238 1.8290386 0)
(172.22879 3.0971812 0)
(171.67552 4.3431869 0)
(170.94708 5.5935144 0)
(169.98791 6.8504852 0)
(168.73248 8.0665726 0)
(167.1523 9.1323971 0)
(165.29993 9.9131159 0)
(163.3012 10.320401 0)
(161.30015 10.34812 0)
(159.41235 10.049318 0)
(157.70912 9.5053755 0)
(156.22099 8.7987696 0)
(154.94991 7.9994846 0)
(153.88115 7.1602259 0)
(152.99243 6.3171286 0)
(152.25979 5.4926966 0)
(151.66084 4.6992083 0)
(151.1762 3.9417307 0)
(150.78987 3.2204774 0)
(150.48874 2.5325522 0)
(150.26256 1.8739727 0)
(150.10681 1.2368086 0)
(150.02326 0.61496547 0)
(151.44207 -5.4622643 0)
(152.06787 -5.5334145 0)
(152.53707 -5.6494062 0)
(153.04632 -5.8142554 0)
(153.57969 -6.0268571 0)
(154.14827 -6.286515 0)
(154.76083 -6.5919744 0)
(155.42786 -6.9410444 0)
(156.16143 -7.3299273 0)
(156.97545 -7.7522843 0)
(157.88571 -8.1979484 0)
(158.90944 -8.65126 0)
(160.0644 -9.0890477 0)
(161.36687 -9.4782484 0)
(162.82794 -9.7733724 0)
(164.44722 -9.9148482 0)
(166.20311 -9.830159 0)
(168.03958 -9.4408365 0)
(169.85455 -8.680817 0)
(171.50513 -7.5288859 0)
(172.84326 -6.0398767 0)
(173.7705 -4.343426 0)
(174.27436 -2.5968673 0)
(174.41867 -0.92233061 0)
(174.30013 0.62737484 0)
(174.00132 2.0619507 0)
(173.57068 3.4262467 0)
(173.01577 4.775374 0)
(172.30027 6.1577922 0)
(171.34039 7.5936259 0)
(170.02552 9.0340476 0)
(168.28949 10.329313 0)
(166.19114 11.275592 0)
(163.90873 11.739307 0)
(161.64374 11.721656 0)
(159.54546 11.306372 0)
(157.69513 10.610381 0)
(156.11731 9.7430875 0)
(154.80159 8.7911838 0)
(153.71995 7.8155204 0)
(152.83873 6.8547081 0)
(152.12521 5.9305159 0)
(151.55078 5.0529834 0)
(151.09191 4.2244546 0)
(150.72991 3.4424662 0)
(150.45007 2.7017239 0)
(150.2412 1.9962548 0)
(150.09798 1.3162715 0)
(150.02132 0.65418415 0)
(151.87406 -5.7638328 0)
(152.45628 -5.8401448 0)
(152.89404 -5.9656445 0)
(153.37074 -6.1449645 0)
(153.87211 -6.377209 0)
(154.40918 -6.6622702 0)
(154.99118 -6.9997529 0)
(155.62939 -7.38859 0)
(156.33721 -7.8263376 0)
(157.13073 -8.308164 0)
(158.02892 -8.8253713 0)
(159.05364 -9.3633664 0)
(160.22893 -9.8990852 0)
(161.57936 -10.397695 0)
(163.12624 -10.808415 0)
(164.88008 -11.060576 0)
(166.82772 -11.06264 0)
(168.91247 -10.708212 0)
(171.01189 -9.8978815 0)
(172.93664 -8.5865578 0)
(174.4787 -6.8379269 0)
(175.49802 -4.8324494 0)
(175.98492 -2.7965918 0)
(176.04569 -0.90014762 0)
(175.83028 0.79685978 0)
(175.45879 2.3261798 0)
(174.99782 3.7652733 0)
(174.45579 5.2006728 0)
(173.78402 6.7110744 0)
(172.86248 8.3462149 0)
(171.51272 10.065912 0)
(169.60188 11.667798 0)
(167.191 12.83724 0)
(164.54274 13.364452 0)
(161.94826 13.271491 0)
(159.60095 12.692558 0)
(157.58939 11.797571 0)
(155.92402 10.731027 0)
(154.57451 9.5986166 0)
(153.49415 8.4683646 0)
(152.63462 7.3792379 0)
(151.95291 6.3500901 0)
(151.41359 5.3869244 0)
(150.98893 4.4880393 0)
(150.65776 3.6473906 0)
(150.40406 2.8567023 0)
(150.21598 2.1076506 0)
(150.0876 1.3883918 0)
(150.01905 0.68971619 0)
(152.32988 -6.0476505 0)
(152.86462 -6.1308248 0)
(153.26785 -6.2679924 0)
(153.70858 -6.4643061 0)
(154.17418 -6.7190901 0)
(154.67537 -7.0329793 0)
(155.2216 -7.4066816 0)
(155.82472 -7.8405973 0)
(156.4993 -8.3341137 0)
(157.26342 -8.8845679 0)
(158.13935 -9.4856178 0)
(159.1539 -10.124835 0)
(160.33829 -10.78053 0)
(161.72725 -11.417457 0)
(163.35574 -11.980459 0)
(165.25053 -12.386852 0)
(167.4138 -12.521651 0)
(169.79467 -12.240732 0)
(172.25016 -11.394443 0)
(174.52888 -9.8947364 0)
(176.3331 -7.8092151 0)
(177.45612 -5.3922391 0)
(177.89157 -2.9796486 0)
(177.81311 -0.81635515 0)
(177.45199 1.0303251 0)
(176.9805 2.6296803 0)
(176.48696 4.1101562 0)
(175.97925 5.6027242 0)
(175.3965 7.2270575 0)
(174.57624 9.0799849 0)
(173.24083 11.151138 0)
(171.13985 13.175567 0)
(168.32205 14.658689 0)
(165.18984 15.254339 0)
(162.17936 15.037658 0)
(159.53888 14.226214 0)
(157.35641 13.069368 0)
(155.61362 11.755829 0)
(154.24927 10.411107 0)
(153.19091 9.1074218 0)
(152.37211 7.8803877 0)
(151.73813 6.7427445 0)
(151.24656 5.6941064 0)
(150.86579 4.7271496 0)
(150.57267 3.831262 0)
(150.35036 2.994603 0)
(150.18676 2.2061748 0)
(150.07562 1.4519272 0)
(150.01643 0.72096054 0)
(152.79767 -6.3051409 0)
(153.27746 -6.3941815 0)
(153.64196 -6.5411342 0)
(154.04236 -6.7517388 0)
(154.46749 -7.0255296 0)
(154.92749 -7.3639523 0)
(155.43171 -7.7689573 0)
(155.99232 -8.2426516 0)
(156.62479 -8.7866474 0)
(157.34896 -9.4010907 0)
(158.19034 -10.082989 0)
(159.18098 -10.823477 0)
(160.36009 -11.60409 0)
(161.77454 -12.391669 0)
(163.47722 -13.129565 0)
(165.51847 -13.724505 0)
(167.92601 -14.03546 0)
(170.66603 -13.871496 0)
(173.57844 -13.01278 0)
(176.3293 -11.300677 0)
(178.48375 -8.7954534 0)
(179.724 -5.8567703 0)
(180.04536 -2.9901632 0)
(179.73122 -0.55193419 0)
(179.14196 1.3958487 0)
(178.52617 2.9962398 0)
(177.99551 4.4535405 0)
(177.55147 5.9544739 0)
(177.12236 7.6652594 0)
(176.5022 9.7488597 0)
(175.27393 12.263826 0)
(172.98117 14.886392 0)
(169.61905 16.830798 0)
(165.827 17.490794 0)
(162.28581 17.070709 0)
(159.30417 15.925083 0)
(156.95087 14.422548 0)
(155.15363 12.804051 0)
(153.80468 11.212216 0)
(152.79746 9.7170855 0)
(152.04397 8.3449495 0)
(151.47707 7.0979963 0)
(151.04787 5.9665342 0)
(150.72172 4.9358538 0)
(150.47438 3.9897807 0)
(150.28891 3.1123936 0)
(150.15353 2.2897792 0)
(150.06206 1.505612 0)
(150.01347 0.74730858 0)
(153.26901 -6.5245134 0)
(153.69068 -6.6212278 0)
(154.01356 -6.7799457 0)
(154.37028 -7.0071541 0)
(154.75114 -7.3027387 0)
(155.16523 -7.6693089 0)
(155.62151 -8.1104951 0)
(156.13201 -8.6306721 0)
(156.71255 -9.2344283 0)
(157.3842 -9.9257892 0)
(158.17515 -10.706687 0)
(159.1224 -11.574005 0)
(160.27325 -12.515309 0)
(161.68777 -13.503349 0)
(163.44094 -14.484907 0)
(165.61579 -15.359209 0)
(168.27969 -15.955444 0)
(171.43444 -16.021723 0)
(174.91555 -15.2348 0)
(178.28552 -13.31055 0)
(180.90399 -10.262907 0)
(182.26984 -6.5913827 0)
(182.3761 -3.0749643 0)
(181.68788 -0.25840183 0)
(180.76927 1.8076576 0)
(179.9724 3.3751377 0)
(179.41947 4.7617196 0)
(179.09106 6.2235087 0)
(178.90915 7.9776662 0)
(178.64005 10.283579 0)
(177.68701 13.34646 0)
(175.23999 16.830239 0)
(171.1332 19.489329 0)
(166.41174 20.188243 0)
(162.18989 19.433567 0)
(158.82049 17.802666 0)
(156.31576 15.843818 0)
(154.50688 13.852291 0)
(153.21902 11.977855 0)
(152.30225 10.276623 0)
(151.64475 8.7565901 0)
(151.16761 7.4036043 0)
(150.81701 6.1953053 0)
(150.5569 5.1078043 0)
(150.36326 4.118496 0)
(150.22004 3.2070181 0)
(150.11652 2.3564424 0)
(150.047 1.5482151 0)
(150.0102 0.76817241 0)
(153.70225 -6.7337254 0)
(154.05161 -6.8409393 0)
(154.32557 -7.0118832 0)
(154.63075 -7.2544972 0)
(154.95857 -7.5689387 0)
(155.31654 -7.9588903 0)
(155.71276 -8.4294857 0)
(156.15863 -8.9871787 0)
(156.66967 -9.6394095 0)
(157.26735 -10.394165 0)
(157.9817 -11.258859 0)
(158.85412 -12.237373 0)
(159.93967 -13.325203 0)
(161.31211 -14.504267 0)
(163.07319 -15.731183 0)
(165.3516 -16.904548 0)
(168.27577 -17.8231 0)
(171.91345 -18.16356 0)
(176.12527 -17.468039 0)
(180.35181 -15.258608 0)
(183.64053 -11.450115 0)
(185.17151 -6.7452272 0)
(184.90843 -2.3824083 0)
(183.61539 0.78157297 0)
(182.18495 2.7605903 0)
(181.14211 4.0576247 0)
(180.5745 5.1564047 0)
(180.4141 6.4017655 0)
(180.59073 8.0687356 0)
(180.892 10.539741 0)
(180.51545 14.263951 0)
(178.05779 19.00966 0)
(172.93159 22.855734 0)
(166.86257 23.520455 0)
(161.77276 22.206338 0)
(157.98221 19.861685 0)
(155.38076 17.302806 0)
(153.63294 14.862724 0)
(152.47206 12.674147 0)
(151.69686 10.759482 0)
(151.17212 9.0958663 0)
(150.81014 7.6458519 0)
(150.55533 6.3709409 0)
(150.37275 5.2365304 0)
(150.24045 4.213034 0)
(150.14454 3.2755631 0)
(150.07617 2.4042826 0)
(150.03064 1.5786094 0)
(150.00664 0.78301822 0)
(153.98723 -6.8599208 0)
(154.25412 -6.977889 0)
(154.47062 -7.15845 0)
(154.71427 -7.4129236 0)
(154.97795 -7.7422288 0)
(155.26714 -8.1518078 0)
(155.58855 -8.6490079 0)
(155.95224 -9.243258 0)
(156.37243 -9.9460663 0)
(156.86955 -10.771113 0)
(157.47368 -11.733983 0)
(158.22878 -12.84974 0)
(159.1956 -14.127519 0)
(160.45877 -15.566577 0)
(162.14753 -17.148667 0)
(164.44934 -18.792819 0)
(167.57943 -20.27547 0)
(171.71223 -21.189489 0)
(176.78903 -20.896291 0)
(182.12674 -18.590136 0)
(186.31107 -13.936041 0)
(187.98031 -7.8474592 0)
(187.02236 -2.2839799 0)
(184.72412 1.3536919 0)
(182.58007 3.1759357 0)
(181.27031 4.1136036 0)
(180.77317 4.9195466 0)
(180.92201 6.0236049 0)
(181.66684 7.6935378 0)
(182.89583 10.370243 0)
(183.6259 14.868229 0)
(181.54026 21.414839 0)
(175.0623 27.34908 0)
(166.99775 27.745302 0)
(160.84155 25.475274 0)
(156.6412 22.075918 0)
(154.06177 18.739665 0)
(152.49165 15.777073 0)
(151.54887 13.255288 0)
(150.9787 11.133057 0)
(150.62854 9.3407056 0)
(150.40855 7.8101704 0)
(150.26652 6.4839348 0)
(150.17221 5.3158567 0)
(150.10804 4.2693952 0)
(150.06372 3.315459 0)
(150.03318 2.431688 0)
(150.01326 1.5958497 0)
(150.00287 0.79140308 0)
(153.89421 -7.0004668 0)
(154.04176 -7.1425727 0)
(154.17754 -7.340489 0)
(154.33275 -7.6132756 0)
(154.50195 -7.9628742 0)
(154.68752 -8.3964544 0)
(154.89384 -8.9230528 0)
(155.12825 -9.5542286 0)
(155.40193 -10.304415 0)
(155.73173 -11.191558 0)
(156.14448 -12.238009 0)
(156.68311 -13.469449 0)
(157.40982 -14.908845 0)
(158.41267 -16.573411 0)
(159.84281 -18.47868 0)
(161.96286 -20.585604 0)
(165.11735 -22.647777 0)
(169.65316 -24.140828 0)
(175.70265 -24.217155 0)
(182.50174 -21.5982 0)
(187.96458 -15.528717 0)
(189.79586 -7.1505367 0)
(187.66627 0.34188068 0)
(183.7938 4.4718729 0)
(180.83133 5.7623473 0)
(179.41901 5.9680955 0)
(179.22706 6.1377396 0)
(179.88491 6.6964834 0)
(181.36011 7.7819711 0)
(183.82732 9.9090527 0)
(186.38327 14.742752 0)
(185.50076 23.597671 0)
(177.35461 33.396663 0)
(166.34515 32.979231 0)
(159.07826 29.251889 0)
(154.5983 24.357163 0)
(152.26727 20.048075 0)
(151.05124 16.510155 0)
(150.44573 13.662327 0)
(150.15467 11.359498 0)
(150.02326 9.4676498 0)
(149.97113 7.8822288 0)
(149.95702 6.525556 0)
(149.95986 5.3404502 0)
(149.96904 4.2843118 0)
(149.9794 3.3247079 0)
(149.98852 2.4374572 0)
(149.99525 1.5992535 0)
(149.99897 0.79301255 0)
(152.8066 -6.9751229 0)
(152.77514 -7.1383914 0)
(152.77868 -7.3384646 0)
(152.78551 -7.6095428 0)
(152.79438 -7.9547572 0)
(152.80367 -8.3831009 0)
(152.81428 -8.9051372 0)
(152.82913 -9.5345758 0)
(152.85384 -10.28925 0)
(152.89807 -11.192571 0)
(152.97988 -12.276237 0)
(153.13417 -13.582368 0)
(153.41626 -15.15808 0)
(153.90143 -17.051039 0)
(154.73986 -19.335758 0)
(156.27843 -22.082919 0)
(159.04435 -25.089774 0)
(163.61351 -27.723285 0)
(170.46211 -29.012204 0)
(178.86779 -26.920509 0)
(185.85262 -19.734286 0)
(187.57537 -8.372354 0)
(183.17401 1.7909632 0)
(177.25565 5.9040104 0)
(173.80946 5.4457561 0)
(172.7308 4.0989978 0)
(173.14018 3.2238937 0)
(174.39953 3.0331058 0)
(176.63913 3.5074331 0)
(180.85824 5.551189 0)
(186.66043 12.004578 0)
(188.94392 24.393519 0)
(179.02102 41.200405 0)
(163.90231 39.464137 0)
(156.09334 33.562538 0)
(151.63233 26.566125 0)
(149.91488 21.063221 0)
(149.30211 16.945303 0)
(149.17874 13.824289 0)
(149.2456 11.39834 0)
(149.37421 9.4541988 0)
(149.51138 7.8495871 0)
(149.63625 6.4889093 0)
(149.74195 5.3064714 0)
(149.82739 4.2556408 0)
(149.89389 3.3021178 0)
(149.94337 2.4209369 0)
(149.97707 1.5884783 0)
(149.99503 0.78769569 0)
(149.54175 -6.9512264 0)
(149.19087 -7.1534047 0)
(148.94445 -7.3646824 0)
(148.66695 -7.6455283 0)
(148.36491 -8.0011536 0)
(148.02963 -8.4432327 0)
(147.65485 -8.984272 0)
(147.23372 -9.6403631 0)
(146.7591 -10.432634 0)
(146.22337 -11.389098 0)
(145.62108 -12.548543 0)
(144.95902 -13.966643 0)
(144.26109 -15.712518 0)
(143.54878 -17.855357 0)
(142.89507 -20.518819 0)
(142.68166 -23.955231 0)
(143.6586 -28.114293 0)
(146.63845 -32.071662 0)
(152.79604 -34.685679 0)
(161.93498 -32.391512 0)
(170.03049 -22.03181 0)
(170.31848 -4.8009102 0)
(160.7252 8.870985 0)
(154.78481 11.770968 0)
(153.73228 9.1867625 0)
(155.08577 7.1448112 0)
(157.44875 6.1653696 0)
(160.00381 5.8483979 0)
(163.73815 6.5962558 0)
(171.12552 9.4023736 0)
(181.37807 15.495503 0)
(189.49502 27.068642 0)
(178.05679 53.539116 0)
(157.65484 50.296117 0)
(151.0509 38.535107 0)
(147.40792 28.343981 0)
(146.91949 21.499132 0)
(147.27228 16.923161 0)
(147.79453 13.66214 0)
(148.2908 11.211796 0)
(148.70945 9.2825309 0)
(149.04804 7.7039172 0)
(149.31638 6.3701831 0)
(149.52615 5.2122631 0)
(149.68777 4.1827438 0)
(149.80987 3.2475135 0)
(149.89909 2.3821385 0)
(149.95926 1.5635835 0)
(149.99117 0.7754929 0)
(141.72619 -6.5828471 0)
(140.82198 -6.7894214 0)
(140.10288 -6.9715033 0)
(139.28666 -7.2142261 0)
(138.39573 -7.5200152 0)
(137.41011 -7.8988597 0)
(136.31109 -8.3598097 0)
(135.07463 -8.9146464 0)
(133.67106 -9.5793463 0)
(132.06222 -10.375892 0)
(130.1992 -11.336483 0)
(128.03102 -12.514565 0)
(125.51209 -13.990367 0)
(122.5398 -15.84789 0)
(118.92636 -18.256736 0)
(114.87374 -21.80413 0)
(111.39873 -26.915509 0)
(109.3845 -31.846698 0)
(111.38124 -35.775696 0)
(118.18796 -33.935411 0)
(123.26869 -22.720009 0)
(112.77515 -2.6833408 0)
(91.668646 13.104783 0)
(91.97427 9.1405707 0)
(97.536899 3.4039998 0)
(101.12513 1.251132 1.1340367e-17)
(110.36219 -0.83080226 -7.3679617e-19)
(117.98256 -1.7799678 0)
(123.77715 -3.110353 9.6391274e-18)
(125.98826 -10.097519 -7.3315043e-18)
(151.73039 -7.9489384 4.4715947e-18)
(176.77584 6.0448399 -9.8826797e-18)
(170.60478 77.131938 8.5969399e-18)
(141.80147 62.889108 0)
(140.17613 41.31831 0)
(141.29269 28.219753 0)
(143.29262 20.8133 0)
(145.08508 16.244135 0)
(146.39047 13.10468 0)
(147.35261 10.775192 0)
(148.06709 8.9449263 0)
(148.6043 7.443632 0)
(149.0115 6.1699058 0)
(149.32101 5.0589556 0)
(149.55524 4.0667844 0)
(149.73017 3.161886 0)
(149.8571 2.3218145 0)
(149.94238 1.5250686 0)
(149.98751 0.75665228 0)
(128.28181 -6.0634054 0)
(126.65495 -6.2230647 0)
(125.33242 -6.3457695 0)
(123.83657 -6.5259378 0)
(122.21577 -6.7613594 0)
(120.43735 -7.0606902 0)
(118.4704 -7.4314146 0)
(116.27364 -7.8844226 0)
(113.79479 -8.4356954 0)
(110.96444 -9.1086075 0)
(107.68608 -9.9378051 0)
(103.83808 -10.983545 0)