/*--------------------------------*- C++ -*----------------------------------*\
| =========                 |                                                 |
| \\      /  F ield         | foam-extend: Open Source CFD                    |
|  \\    /   O peration     | Version:     4.1                                |
|   \\  /    A nd           | Web:         http://www.foam-extend.org         |
|    \\/     M anipulation  |                                                 |
\*---------------------------------------------------------------------------*/
FoamFile
{
    version     2.0;
    format      ascii;
    class       volScalarField;
    location    "0.6";
    object      p;
}
// * * * * * * * * * * * * * * * * * * * * * * * * * * * * * * * * * * * * * //

dimensions      [0 2 -2 0 0 0 0];

internalField   nonuniform List<scalar> 
4242
(
-13465.734
-13071.568
-12678.108
-12188.824
-11641.626
-11017.915
-10316.308
-9538.2667
-8690.2891
-7785.6821
-6844.7657
-5893.5878
-4963.103
-4092.0393
-3313.5607
-2561.6035
-15923.293
-15421.459
-14995.993
-14477.656
-13904.349
-13258.566
-12543.027
-11759.002
-10910.57
-10005.343
-9054.9038
-8074.8072
-7084.8869
-6113.0519
-5194.4542
-4325.8263
-19776.192
-19157.225
-18686.391
-18094.782
-17439.166
-16699.359
-15878.768
-14977.721
-14000.717
-12956.005
-11855.733
-10715.648
-9554.3403
-8393.6868
-7261.4583
-6200.6158
-24376.343
-23642.397
-23115.26
-22416.181
-21643.029
-20765.826
-19788.251
-18709.128
-17533.366
-16270.603
-14935.853
-13549.37
-12135.656
-10721.406
-9333.834
-8026.5575
-27849.66
-27024.88
-26464.967
-25684.554
-24832.581
-23859.663
-22771.78
-21565.875
-20246.799
-18824.479
-17315.219
-15741.632
-14131.831
-12517.332
-10927.76
-9390.5057
-29648.225
-28760.461
-28192.817
-27370.481
-26485.492
-25469.524
-24332.651
-23070.371
-21687.317
-20193.078
-18604.009
-16943.111
-15239.286
-13525.919
-11837.003
-10221.076
-29782.742
-28872.84
-28321.077
-27500.322
-26622.52
-25613.385
-24484.366
-23231.023
-21857.655
-20373.526
-18794.584
-17143.324
-15447.998
-13741.431
-12055.357
-10442.258
-28314.158
-27429.124
-26909.684
-26132.216
-25295.68
-24337.792
-23266.627
-22079.462
-20780.552
-19379.176
-17890.745
-16336.599
-14743.064
-13140.447
-11555.508
-10039.1
-25373.317
-24562.745
-24090.519
-23396.634
-22637.11
-21775.051
-20812.54
-19748.739
-18588.089
-17339.733
-16018.065
-14642.515
-13236.652
-11827.893
-10440.537
-9119.7685
-21179.19
-20491.599
-20078.216
-19504.457
-18859.798
-18136.251
-17331.891
-16446.471
-15484.366
-14453.849
-13367.123
-12240.034
-11091.133
-9941.6648
-8810.7287
-7734.9652
-15928.043
-15418.306
-15087.575
-14666.779
-14181.204
-13642.376
-13048.776
-12398.989
-11696.112
-10946.357
-10158.114
-9341.2115
-8505.469
-7659.5374
-6805.4194
-5940.826
-11244.136
-10931.621
-10690.138
-10428.12
-10100.217
-9717.5681
-9292.2114
-8828.9459
-8332.6875
-7810.519
-7270.2745
-6718.6833
-6159.5548
-5593.1494
-5014.9944
-4371.4189
-3658.9038
-3390.5764
-3166.0398
-2898.1439
-2599.2007
-2269.6584
-1912.9118
-1534.7394
-1143.3644
-749.36998
-365.25965
-4.9334162
315.26338
576.55481
781.56189
993.02281
1363.8429
1538.4389
1696.1734
1873.5506
2065.727
2270.0733
2482.036
2694.9172
2899.6966
3085.1568
3238.5325
3346.4525
3394.9464
3368.9892
3262.4171
3113.8382
6070.066
6161.8214
6246.9399
6336.612
6427.2435
6514.1442
6590.8459
6648.9014
6677.9453
6666.1652
6601.3114
6471.7525
6266.2665
5974.3635
5600.871
5204.7002
9804.7051
9836.9484
9862.8368
9881.6532
9889.1945
9879.4387
9844.5778
9774.9747
9659.3884
9485.6603
9241.8696
8917.175
8501.1966
7985.6444
7383.3736
6766.5056
12187.405
12187.658
12178.511
12155.113
12112.01
12042.141
11936.752
11785.473
11576.725
11298.572
10939.918
10491.014
9942.8146
9292.0402
8572.2845
7896.8944
-19816.395
-19196.952
-18725.601
-18133.38
-17476.865
-16735.867
-15913.689
-15010.62
-14031.179
-12983.739
-11880.705
-10738.167
-9575.058
-8414.182
-7286.5485
-6234.2086
12724.332
12712.888
12689.809
12651.186
12591.743
12504.849
12382.479
12215.288
11992.887
11704.462
11339.734
10890.136
10349.92
9718.2478
9005.6966
8248.4759
12748.674
12736.91
12713.136
12673.401
12612.36
12523.328
12398.273
12227.918
12002.067
11710.227
11342.547
10890.891
10350.001
9720.3577
9016.3003
8279.0203
12200.587
12200.457
12190.692
12166.403
12122.075
12050.596
11943.182
11789.484
11578.027
11297.099
10935.943
10485.182
9936.2497
9287.3992
8575.6569
7913.5023
9779.7067
9812.2142
9838.4159
9857.4946
9865.1848
9855.4054
9820.2934
9750.172
9633.7995
9459.1176
9214.4348
8888.8049
8469.9408
7946.181
7338.642
6764.9911
6030.8231
6123.4633
6209.5823
6300.416
6392.3722
6480.7519
6559.0773
6618.8893
6649.8156
6640.1135
6577.7677
6450.9158
6245.0261
5943.0023
5563.7387
5253.5119
1346.2208
1521.7913
1680.467
1859.064
2052.7593
2258.9665
2473.187
2688.7848
2896.8039
3086.1244
3244.1779
3357.6447
3411.5343
3389.5409
3289.7712
3144.8779
-3650.5453
-3381.6666
-3156.9095
-2888.6004
-2589.1595
-2259.0326
-1901.6153
-1522.6935
-1130.524
-735.76075
-351.00741
9.6027361
328.80184
585.60253
780.69457
985.31736
-11261.716
-10949.152
-10707.298
-10444.927
-10116.5
-9733.0396
-9306.5134
-8841.6358
-8343.2357
-7818.3319
-7274.7118
-6719.0057
-6154.5805
-5580.429
-4985.5532
-4332.062
-15951.689
-15441.562
-15110.297
-14689.029
-14202.777
-13663.04
-13068.262
-12416.995
-11712.356
-10960.669
-10170.577
-9352.3348
-8516.3867
-7672.7293
-6824.9818
-5990.0413
-21211.735
-20523.502
-20109.511
-19535.109
-18889.553
-18164.851
-17359.028
-16471.831
-15507.695
-14475.077
-13386.499
-12258.244
-11109.279
-9961.3219
-8831.7712
-7762.3106
-25412.228
-24600.921
-24128.065
-23433.395
-22672.814
-21809.399
-20845.164
-19779.274
-18616.25
-17365.454
-16041.66
-14664.786
-13258.881
-11851.872
-10466.581
-9155.4906
-28356.446
-27470.674
-26950.607
-26172.283
-25334.607
-24375.228
-23302.139
-22112.617
-20810.995
-19406.782
-17915.77
-16359.767
-14765.505
-13163.306
-11577.668
-10065.508
-29826.56
-28915.961
-28363.6
-27541.995
-26663.039
-25652.372
-24521.346
-23265.514
-21889.252
-20402.056
-18820.262
-17166.844
-15470.446
-13763.597
-12076.342
-10467.729
-29692.696
-28804.296
-28236.105
-27412.975
-26526.878
-25509.42
-24370.567
-23105.809
-21719.853
-20222.513
-18630.533
-16967.403
-15262.367
-13548.344
-11858.731
-10247.014
-27894.016
-27068.668
-26508.246
-25727.108
-24874.093
-23899.76
-22809.981
-21601.684
-20279.79
-18854.45
-17342.36
-15766.643
-14155.724
-12540.807
-10952.267
-9419.7035
-24419.624
-23685.162
-23157.536
-22457.8
-21683.672
-20805.144
-19825.786
-18744.397
-17565.942
-16300.261
-14962.746
-13574.154
-12159.318
-10745.127
-9360.727
-8059.8497
-15956.664
-15454.499
-15028.617
-14509.878
-13935.945
-13289.336
-12572.684
-11787.193
-10936.9
-10029.418
-9076.4088
-8093.6264
-7101.4002
-6129.0299
-5213.359
-4341.4259
-13488.696
-13094.585
-12701.11
-12211.984
-11664.784
-11040.896
-10338.8
-9559.818
-8710.3246
-7803.5995
-6860.137
-5906.5608
-4974.9972
-4105.8628
-3333.5685
-2591.04
-1377.4956
-1310.1565
-1224.3834
-1155.0114
-1139.3268
-1188.4257
-1297.0234
-1456.3289
-1654.3106
-1873.0572
-2089.398
-2277.2743
-2410.7245
-2468.3942
-2445.614
-2331.2444
-1813.353
-1778.1182
-1764.2205
-1754.0411
-1726.5969
-1698.2463
-1699.7713
-1742.4159
-1809.6455
-1881.3932
-1944.7072
-1984.2163
-1981.3031
-1921.7031
-1807.7114
-1648.1189
-1947.3282
-1915.3972
-1892.3046
-1870.9991
-1859.7103
-1860.4282
-1844.6336
-1786.3899
-1704.7291
-1645.456
-1617.4369
-1567.9764
-1453.9285
-1264.9364
-1018.3044
-730.4163
-2052.2354
-2027.4968
-2008.1348
-1992.3317
-1980.4798
-1974.5902
-1983.0834
-2023.9751
-2105.762
-2181.5962
-2157.2532
-1972.4721
-1540.3397
-1016.5257
-496.34817
-6.0024743
-1476.5348
-1475.0238
-1481.6299
-1498.2607
-1526.2802
-1567.2587
-1622.4961
-1692.8453
-1780.3292
-1892.6019
-1966.3086
-1834.522
-1333.542
-665.60476
27.939033
704.9302
-343.12654
-356.67252
-380.26367
-414.98737
-462.24351
-522.96442
-597.15578
-685.38256
-793.09598
-924.15241
-1029.1848
-928.29249
-577.58009
-22.646337
611.84399
1236.2087
-336.19645
-349.94301
-373.9568
-409.38272
-457.68897
-519.85737
-595.92558
-686.38045
-795.76321
-924.42797
-1017.5683
-901.68794
-538.83362
5.7268056
596.04708
1203.5452
-1490.7647
-1489.423
-1496.3104
-1513.3109
-1541.7651
-1583.2056
-1639.0112
-1710.3816
-1798.2117
-1901.9926
-1947.9516
-1786.5453
-1279.849
-608.68624
88.244687
764.34573
-2077.7526
-2052.869
-2033.4123
-2017.5682
-2005.785
-2000.1474
-2009.163
-2051.0136
-2133.0854
-2202.5473
-2161.9873
-1955.6577
-1513.1561
-976.93947
-437.66099
87.791555
-1974.3153
-1942.1017
-1918.8716
-1897.549
-1886.358
-1887.3701
-1872.1296
-1814.4844
-1733.185
-1672.501
-1637.4125
-1576.2876
-1448.6757
-1245.7958
-986.82288
-686.71737
-1831.4844
-1796.0506
-1782.0638
-1771.9174
-1744.4085
-1715.7493
-1716.7575
-1758.6393
-1824.4747
-1893.9315
-1953.7387
-1988.461
-1979.9755
-1914.9545
-1798.53
-1619.2409
-1388.3038
-1321.0526
-1235.3351
-1165.9849
-1150.2547
-1199.1839
-1307.4423
-1466.2038
-1663.3953
-1881.038
-2095.8605
-2281.72
-2412.7156
-2468.3188
-2448.102
-2325.3884
-6381.3395
-7924.2774
-7479.1736
-7074.8326
-6599.9567
-6069.7449
-5492.5087
-4874.7444
-4228.9326
-3572.1249
-2923.7804
-2307.3602
-1755.254
-1278.7472
-774.24401
-6404.4569
-7940.5171
-7496.7332
-7092.2104
-6617.0232
-6086.3382
-5508.3666
-4889.5047
-4242.2355
-3583.7188
-2933.7624
-2316.1526
-1762.5213
-1280.1029
-783.66279
-3689.6364
-5169.3322
-5163.5663
-4991.1002
-4899.5702
-4832.9127
-4756.2528
-4663.3204
-4552.6234
-4420.8739
-4262.4696
-4069.2578
-3833.7515
-3556.1896
-3086.3154
-3675.3908
-5156.6478
-5150.0388
-4977.6621
-4886.53
-4820.473
-4744.7323
-4653.1279
-4544.2453
-4414.9069
-4259.6579
-4070.6122
-3839.3248
-3570.3075
-3191.7198
-4470.223
-4503.7119
-3945.2389
-3925.4
-342.1846
-841.88985
2371.4307
-803.69834
-1448.4504
71.228231
206.90365
446.24266
442.72884
-468.35087
-606.98545
-22.053016
1437.2862
-1416.314
290.48443
-1879.8574
-528.23512
-2456.8647
-1638.5143
-1828.8404
-1749.846
1497.448
493.42029
592.65329
940.53068
23.018601
-513.50567
-1864.6064
-972.23084
-3261.2116
43.7301
-299.53125
-909.90511
-1372.5285
1227.5383
-755.64868
25.110265
1140.3113
-830.97623
-588.08927
746.61591
-14.373143
431.33553
-3171.1956
427.63367
2982.7119
-350.42213
839.27121
354.78265
348.58046
-4071.7706
5206.311
1515.6533
-672.23965
-3819.1952
-1195.9647
-726.49559
209.44168
583.07308
-508.12069
-446.34044
348.19873
328.29355
-505.27807
-4411.3124
-431.26394
34.069304
-333.9439
-836.68334
-368.86273
165.59911
-1555.4001
240.63789
-45.146697
-47.694908
505.68109
-770.87888
144.93391
-98.722744
-56.321668
-303.32158
-3217.9747
-3463.3816
-444.59531
-655.32521
-1030.4115
555.79582
-6.0684093
-3650.3064
-44.446679
-619.87083
8.2707245
3331.9522
-1091.3624
988.22397
1236.782
-6.2653892
2668.828
-3935.5919
1347.3852
-38.520419
-678.7829
4.8555219
19.205533
-655.41882
-1534.9919
-837.68499
-35.563654
-824.48458
-3358.2327
-4519.6549
1743.5878
-891.28105
641.1314
-2026.065
-87.117487
2015.1833
75.254838
-47.135134
1826.7401
1711.1292
-860.24031
1161.7393
-876.88595
-2566.5845
1080.9443
-325.39115
-3306.0282
-888.61606
1523.1498
-1016.0511
564.69082
-39.452005
-47.495016
-13.167361
-1097.0179
2761.3496
-4.2571687
-4055.1869
-595.72398
961.35315
-704.73195
-1541.9992
-497.14198
-8.2974217
-4.2249802
-561.89495
-828.20603
-249.35633
291.69136
277.69258
-483.28899
136.78301
1990.7056
-82.569449
845.5459
-3541.6639
-340.7649
-108.39537
-0.19117821
-8376.279
-8356.6731
1075.9478
1571.9987
-261.35053
-53.276116
-255.91135
276.63667
-1866.0712
-27.804544
-1741.8616
3136.2403
125.34972
-36.836057
-433.894
1059.3933
-151.61123
-38.236806
-536.36927
-347.36532
354.02754
-1708.6973
-1349.9825
232.44799
206.16304
475.08181
1013.0288
-31.650798
231.00708
-781.13469
-57.630075
-26.877616
-2090.9388
1427.3107
-417.10251
628.0093
-23.713401
112.6
207.05382
3504.5122
343.80483
168.62069
-2453.7714
-157.52972
1593.4382
607.95953
1325.167
-103.42179
1975.5053
-9.202163
-489.28454
-348.52928
-190.15708
156.10755
-52.363609
55.270596
-48.463905
862.56388
1170.7892
491.91466
-739.96233
-922.37137
-87.492087
-26.991526
-615.87364
1658.4345
1645.9237
-19.881675
-1102.1982
556.34486
1685.3402
2360.2505
-64.796678
-1261.3457
-2302.7627
262.90511
-175.15682
940.15822
-715.44657
-52.748968
57.548599
32.136048
247.66895
-1305.1295
2252.0501
-371.32412
-1286.6762
606.58634
46.414796
-1354.0421
382.29984
3258.1388
-1.2027682
11.677694
-1387.0188
5.426445
1379.4615
182.70956
-42.855507
-640.39788
-786.71343
-19.152146
-65.609437
-89.625706
-435.36578
-251.66047
43.349571
-933.2579
-39.761806
-565.95466
37.618638
-472.66612
-181.80822
1420.4939
-1984.6989
-134.10104
2054.5821
1640.0002
-276.27534
32.477348
-203.35981
-115.9916
119.701
-3006.3252
891.4377
-1756.5441
-15.659892
-290.39735
189.07406
-234.14804
343.95003
918.49683
-2920.6881
19.602363
2082.1066
-879.28964
150.38251
974.5778
238.84725
-888.36175
67.524427
-2238.9403
-1564.1312
2412.2739
3244.0083
-955.37164
200.96348
-127.28181
-577.63476
1101.741
-2329.1061
-820.3839
-22.429118
-893.98152
-240.69374
-62.6672
103.86794
57.912944
3932.1417
-895.40616
-2509.6916
1285.4342
40.008348
-37.28155
79.056054
-392.30787
-2618.8257
43.028538
-15.106651
-9.8053885
5165.3083
-239.06166
-296.86893
788.02743
-1005.1271
-2347.0199
-528.40223
-13.443058
-73.366049
18.956048
-3171.941
-995.78423
-21.112842
1828.4481
-2.6185067
11.788817
-3058.2637
53.424875
-1557.9146
27.100961
-13.734276
-4395.105
526.24743
263.48669
-546.24148
-3117.8002
-902.10739
-86.950662
-2256.7858
530.99559
201.37286
706.75508
-16.279932
-4008.4122
2602.3621
1208.8447
148.14472
-3073.5564
4.2202779
1468.6245
-3031.7227
-3629.9711
3441.2987
-76.991525
223.68222
268.46011
561.46669
-1256.7569
-3538.7378
138.62408
-1130.2044
1528.6859
1207.8808
-398.63594
-1232.437
-277.55556
-624.36464
-4.2928095
189.48918
-4780.1086
-34.473156
267.34749
-4679.0696
-46.318408
128.02567
-648.27047
-187.78289
530.91377
4747.7364
-926.25971
36.845298
-1386.6364
42.389005
-2419.7991
775.04481
-1132.6665
-501.22409
-194.38427
643.19177
-62.210081
-277.17001
639.14149
-42.950909
-326.59694
-211.61797
261.0705
289.13422
-10.59419
-708.61021
-26.266562
-976.46657
-135.69235
-503.49388
524.01153
1598.8368
2445.7502
-2529.3868
-22.962963
1312.9312
23.526621
324.05744
288.08584
-822.33795
-874.38161
1397.4046
168.45036
4.990426
-2352.3412
-2284.1252
-431.97536
-3488.216
-1904.8274
-620.95518
-15.27522
-2577.1689
-972.67917
-50.21549
-47.057063
-534.59165
788.72777
-53.90533
-1763.0125
-2504.2863
-9.4476737
-1300.6297
63.38882
-853.6351
-200.79396
3.2287038
324.75674
351.32743
1799.9017
157.77354
-667.64322
221.2957
659.91944
546.77356
1049.9003
1362.6658
-872.11552
669.22154
-83.281422
2214.9775
-288.63699
-226.61614
-827.53869
-66.048049
-52.459955
5347.1575
-133.93622
-838.22321
-2187.1533
-1146.7857
-18.560454
-1688.4955
-3515.126
-25.65534
903.03601
502.50089
-4130.369
870.47898
18.389601
-1331.3623
-757.35594
-3420.1074
-745.89344
-147.92536
166.95151
4.3841302
-408.87038
286.41669
-204.75586
2331.798
267.32163
243.24208
-1191.4572
-8038.8306
-656.39214
-5.0518336
1061.648
-1.9355896
-109.48855
-936.16416
-538.0816
-2185.2103
-8018.9089
-164.73446
570.4729
-38.480967
684.47025
-72.649247
-620.68096
308.98639
-171.75753
-4034.9766
-450.72869
-2379.1799
207.73301
-3245.1102
1608.4349
301.31259
-3539.7034
1536.867
111.29238
-4554.7236
1472.3701
383.49018
386.46387
624.93339
559.18374
-7409.018
-1225.82
-2670.8469
-54.591071
-2587.0273
1483.0483
709.17246
701.83405
200.08292
-1046.7308
-613.25201
-1.6016105
-23.614137
1403.0363
-2158.6994
-765.34517
11.100615
-7416.4752
2373.6408
-2658.8503
-1130.3348
-173.83523
-3252.2495
-2074.6578
-83.153691
-4791.3279
-984.73194
-392.06042
578.73004
612.21322
-606.83351
-2244.449
-3079.3629
1499.5638
2291.3466
2153.8225
416.63653
-124.84423
681.18714
1325.9055
2419.329
1012.1855
3257.0551
-19.685022
533.34295
1028.0005
49.559902
-578.2278
-8.8017088
861.32882
1623.915
466.6556
-4754.8607
557.21896
-261.02212
5338.2865
793.49323
-17.375739
5108.5403
1528.5939
-762.13784
-789.344
1250.4708
5079.5319
-1955.3509
-303.0935
1219.9182
-176.38731
2978.4269
1234.0975
1336.554
-881.87477
5.3227146
1519.7307
1362.8996
5324.8818
384.33038
-41.183396
570.27215
-1268.9709
-1129.4858
-883.55755
-4126.0713
5298.3309
-616.12415
-27.630262
-582.85815
2472.4594
2015.6938
-2209.2623
-2151.9305
30.55892
1231.2664
-2475.4607
-4023.7196
-1183.1526
-1878.861
299.38234
289.72234
-268.01477
-518.59573
-218.37832
290.02844
-601.53645
-1627.007
849.38331
-799.50519
-311.96232
-2564.3478
4359.0541
-1846.1661
317.30804
-21.513815
73.021103
566.21816
-679.57017
5002.1061
-627.67378
-10.14675
893.02373
-53.842339
-3960.4166
-60.014607
-1117.1908
2.626816
-572.46493
101.24929
-2659.2427
2263.8731
-2537.1387
30.836798
473.18665
-1691.0781
1766.0264
-80.403409
2400.6053
-513.96668
6329.2186
-238.157
-420.65981
-3878.5969
3823.4266
-2723.2872
-12.079249
-28.007109
124.09133
41.690038
-3649.8827
695.11583
577.66036
357.04593
-6928.259
-10.863339
651.33507
-38.725261
-6937.5633
391.11804
21.340177
-1909.7937
-62.335293
111.38612
1386.1798
-1015.4236
-5132.5857
434.94358
-442.08403
7.6778022
12.028477
-847.13268
-1165.8575
507.70793
-222.35823
766.36687
-499.38051
2212.8461
-5132.0118
-288.63079
-619.53625
-5021.5262
637.02866
1405.06
11.575356
-1017.9023
-53.284844
1294.6145
1074.276
-1342.3648
286.06105
-4.6204098
-688.22136
581.21309
1689.6097
574.49168
-277.89294
1362.3904
26.490383
-5006.264
927.82864
-170.87788
-1542.9436
-188.75572
-428.77339
-893.00253
-76.239937
-488.01139
-992.71857
91.892877
-15.67105
-1826.5952
-854.34628
-779.92418
-705.91671
-291.5573
-3179.6735
-1969.9103
-1915.3585
495.64985
-1864.9303
2504.0126
119.07697
424.36001
-860.41899
465.81842
-2939.894
69.719696
-1539.9451
-3242.3033
-935.1047
-194.51606
-1688.9666
-679.61301
-441.59242
42.792747
-852.28814
1219.8866
-261.63061
1.7327522
603.68985
1279.1499
-1070.5102
2389.322
-1418.6893
7476.7851
950.56889
-1451.4305
-529.59394
10.50795
371.0057
1678.1269
-815.41173
-15.896101
-74.682467
122.5507
533.85321
-270.38766
-12.386245
-120.31756
-12.175647
2314.5673
-32.463732
1108.0273
1628.2922
1398.3841
1280.5987
1045.116
529.48966
-31.880666
509.92625
-848.0998
-417.21294
3.7914747
45.289838
2450.8156
-1155.5521
-2322.7682
245.03351
1449.5324
-428.50044
1580.3133
694.10963
-692.56835
3017.2075
53.449114
-183.57428
-386.78765
8.7020914
-1.4493982
-275.64652
89.127422
5260.3364
-138.89937
-401.83316
954.51147
87.040563
128.93973
17.456449
-73.194395
1499.3658
-646.28607
-494.59885
-138.9051
753.98516
109.23111
366.88877
-273.34278
-22.873999
-51.756532
377.13708
1184.4803
484.96144
-1114.2218
10.825528
-27.568391
-1781.0325
464.45801
-188.22057
-396.60884
4889.9513
-1030.3142
4867.3856
-2382.8143
-1162.5698
164.72893
-629.01149
642.09793
-31.179194
1931.2203
-5.8689497
1225.4631
-275.86723
-1115.874
-1364.8385
-4747.8277
420.98976
-31.21927
-587.45858
1423.327
-899.37154
1437.5267
-872.18411
-278.99505
1170.0387
555.88168
-76.363937
268.3387
-176.23645
-4658.4783
129.899
7339.6674
-3584.8987
-1077.0726
38.919901
4247.7554
600.21475
-5138.1565
-780.8319
-8.5001608
-428.99977
-911.36334
-4430.5225
-448.09435
567.57544
-4349.4883
-810.81299
869.132
35.90757
-225.21978
-414.96005
-26.878901
77.860659
1.8706103
596.29939
117.07064
-5.3844642
-437.29129
1620.3956
1020.7805
2455.6626
1328.3543
-2365.5023
-3488.1582
25.607411
-1358.1557
107.88843
-4525.3362
-1967.2866
-795.45428
-666.66786
-1384.8122
1403.9882
-826.33364
16.124103
-930.13007
-167.94994
1383.5601
-358.97735
110.03092
40.570597
-4652.2272
-741.81805
43.24632
-22.91562
15.885034
746.14725
403.95359
6595.6586
-6.7673501
-3.4924756
-52.566561
-341.59316
-4329.2866
-2425.0311
-1135.8855
-1342.2487
-1097.0953
2329.7133
3819.5623
-4045.6712
-15.335976
1703.5381
-4796.7767
-458.71943
434.48475
-3459.3184
-3742.3838
816.46486
68.704678
613.44011
-24.742943
-316.81338
-1358.0705
1363.2306
2964.8099
-3414.6638
167.38467
3322.1052
-69.93443
378.85712
-287.21951
2031.1672
-348.11456
-343.87313
82.360901
-9.1176604
-186.26121
-2422.4649
6024.9898
-2868.1807
-2557.2337
-141.22774
-2413.5826
3817.3017
-2328.1955
1460.4771
-1111.2264
-2011.149
-32.414271
166.62762
335.61406
-1238.6308
72.80748
-3337.8406
432.32331
1091.4728
2745.3008
-1558.7383
-1656.5417
1399.2754
-395.40821
89.185056
-190.76316
-4902.9355
-2977.4393
-594.59319
-445.13799
-1006.0774
-61.371438
602.9869
1653.338
662.33337
-3274.8631
-65.223163
-1861.6012
-129.62316
47.395142
2827.4623
1546.0872
-77.00535
1381.5617
-603.88977
1677.1706
156.49049
-378.56731
826.95656
3683.5895
-8809.3948
1063.5634
-115.43486
-2520.492
3.6519571
-8785.4412
-59.40939
971.59552
-1599.8478
-31.560791
757.56449
-407.99493
271.42562
-3594.3187
-5206.4539
-187.98935
-74.694528
125.59236
-257.60852
2344.9801
-2751.6406
-2414.8566
1469.2632
-35.316325
-2995.536
103.45637
551.10721
972.41712
-2696.6025
208.11852
221.09062
-713.37805
-407.25068
-1683.59
-16.308411
55.635037
-4265.0354
105.69458
79.009515
-771.28016
-283.21536
-5998.7073
-220.16524
4565.8941
-5916.188
2255.5008
-2678.6078
-115.09118
1686.4875
-154.82135
-708.97131
-8037.5448
-942.10705
6004.6689
90.049129
-4163.1391
-2493.6189
669.07908
-8002.657
481.96718
-62.661232
2587.1614
62.481575
232.07448
-102.61584
1883.6051
-765.60336
-29.408704
-225.24595
-3189.8666
21.752353
401.92131
-937.15767
-656.10529
96.280544
-34.530596
719.22275
7526.0942
-61.960697
1795.3412
-1390.9583
1088.1817
475.39426
387.00111
4688.0186
-146.74276
1461.5591
2011.6635
-1333.5538
1621.2586
-3975.9253
-890.99905
4.990318
350.00309
-235.96192
3.1838769
-537.87542
264.34731
217.76766
-2083.1196
6588.5207
-2233.7939
1277.6906
-3879.3179
1097.1926
825.91542
-1088.5834
3026.7663
1511.6732
520.50491
851.14048
-264.42939
-89.40478
393.10998
-491.59021
-250.36069
-6900.6585
-6860.2798
-134.94665
-533.74693
-225.06974
-28.578192
-891.14886
-112.69087
-173.58056
-2597.0954
-86.634665
-837.66604
-1172.3865
-2.9185987
-831.64043
500.79098
-546.15992
-14.75265
451.34505
-8592.538
1740.1309
7.722523
-830.06271
1536.1898
-1379.9252
-8568.0713
-106.07264
19.722436
-1772.1605
854.17772
-243.75859
-6988.3064
-3.3160692
2380.7577
-916.28906
105.48252
-16.291818
-404.06236
-6910.6652
1487.3705
42.986738
-1937.9914
-8.9367787
-926.47674
-3513.5666
1136.422
1099.8441
-97.771259
882.63503
-168.89726
-1904.5739
-3416.8594
122.55622
-395.22482
-779.056
-1501.1727
-105.16983
7031.3517
-73.894603
3827.4283
111.92105
4302.4097
-2004.1039
-1842.6028
-201.0036
479.08116
486.39909
1878.521
-1020.1848
17.27067
2189.1165
929.30944
-114.63144
-701.84744
-118.2243
1666.997
732.42565
-22.98534
104.61684
-218.20703
-529.5896
-265.93377
526.67542
596.26437
-742.30533
219.76429
-4345.1796
757.43612
970.99578
243.30718
-596.48019
18.574593
-32.774497
4702.7034
-335.59821
-536.2223
-55.649067
1797.2113
2920.2209
-3245.0038
-398.21232
-111.90067
1860.1617
6203.3511
-61.399623
99.646932
875.02388
-187.62292
-2.4810599
0.56977206
-897.12184
1487.4946
0.80309462
-674.0776
-1481.9621
495.88464
-4.9800748
-892.7432
-243.83594
-61.982363
-92.110325
-1784.2847
-518.50107
-4690.7885
-1743.8705
0.14660138
-47.998876
-454.84909
1701.1237
1338.181
762.96634
-2271.2024
-1.0626582
1101.8484
-1770.9783
-4585.9755
909.59911
3.4608048
896.46462
98.642642
-3867.6323
-5132.9908
71.786232
1160.5398
1171.7829
-154.91764
-2667.573
22.601983
-466.71163
279.97617
2004.4827
-1859.1333
1249.7574
2028.9067
-54.901761
3588.8932
6160.3445
745.07154
92.983712
-2756.3772
1315.7786
-1856.9554
2261.5013
361.06652
-2200.4023
433.40426
3093.1748
2392.4947
-5.6003072
-4.2669754
-4453.946
-90.027331
2276.7474
185.4955
158.55016
-5035.4511
115.39898
395.88022
2397.4597
-5744.6924
-1460.3523
-2647.5268
-2064.0467
3651.8571
1.4348998
86.483394
-916.49082
1113.0192
-618.80257
-1.3195693
-6188.4031
-78.894636
-97.097915
-6123.2942
81.085379
-6231.7847
-119.38367
172.06915
-377.54965
3.1672519
577.99888
1599.5323
99.59698
1.7221686
-834.48129
-95.99893
-874.13274
408.64847
-207.72273
441.15403
734.32215
-4350.5233
-6140.4406
-3003.6538
40.890229
-32.309535
2.5581022
79.49189
8.223129
647.80467
138.83462
-14.891291
971.52963
1967.8152
-781.97734
3121.0746
-637.61364
-156.63352
-3981.6191
1053.6467
-7862.8125
1790.2814
-55.904726
-278.57662
302.20181
-865.1525
-871.33162
-5233.4012
-220.02843
670.49263
-118.88175
1295.4035
-43.946084
64.853036
-36.084313
-22.429331
2087.009
-253.93889
-660.28881
-551.91104
771.36449
-1018.7584
-409.14593
-52.106796
-71.357208
-321.54345
4840.1551
-810.29924
-24.905346
-788.26379
1543.2914
-1260.8177
-2010.5666
883.83974
1002.593
-7903.078
-58.754668
-29.701083
1180.2848
-82.607024
499.95495
-143.71323
-974.16107
4.6782084
1406.6557
550.02088
5123.9751
-3372.1657
42.989391
383.44103
-5391.0525
-5389.1506
4931.2868
1303.7259
116.16607
-1338.7069
-203.31127
-72.717465
1948.7309
-8.6709976
1391.0747
2807.6017
-52.635631
-2918.2634
2388.6734
-926.72731
50.917133
-124.97018
495.20064
1207.5249
-622.914
-29.112834
128.60277
132.31642
-1990.8969
-3295.0092
-13.304684
-146.64188
-3088.4837
576.16754
-31.450731
-257.00657
1326.7513
-2087.246
-31.219689
-554.7039
-29.816738
-95.478667
231.31388
-1270.2154
-5583.5823
257.50999
6470.3536
1743.2736
216.24431
195.82687
1299.6612
19.370671
-4036.0903
113.93863
-4136.5149
457.90776
455.41773
-2820.3781
-1363.8981
-983.75075
791.29802
-3595.3371
-871.11117
4727.6132
3474.8754
-376.89316
7098.95
874.44558
-4591.1533
-38.818821
-5784.326
6051.5064
276.8217
-5488.5884
-4684.5348
-130.51876
-45.306089
-50.401645
1651.4925
5644.1868
-468.12707
-1430.301
273.31261
502.60183
-1362.2425
522.38914
-209.05264
6.8628532
-665.64469
-82.717739
-495.82584
-3661.5211
321.13518
-769.66294
-352.92376
-165.61099
-6004.0493
63.457459
-888.18809
-4483.9359
492.98269
1296.7713
-5973.4568
-193.64548
-1039.9912
-8.6891488
1598.2584
1357.2812
-1838.4895
733.35673
6398.6154
1197.2806
-537.80599
498.62762
-90.148711
1059.4795
4304.1665
-241.18863
-255.34961
-729.50237
-6039.8974
-969.08334
1028.2896
53.134667
-33.443157
166.56849
-1063.2055
391.75782
3809.007
-2541.1815
-1529.3783
-63.411887
411.07961
-58.201817
-72.141012
-87.262782
-6574.9635
1500.3907
604.40212
2085.1698
-6491.5962
-217.35518
2173.2484
-2557.0462
-2843.2138
631.90417
-2357.9166
-693.98917
-6012.9675
-7815.4283
-7793.1074
2854.9145
-4.542597
-3103.7116
-1447.797
-65.221363
206.96304
-639.2481
-212.00819
-1931.5496
15.526305
-1987.6554
-890.82512
42.985468
-2342.5774
238.01559
1914.1257
-743.60923
1619.4935
-1166.4439
-716.59089
1715.7535
-423.5248
-6799.5917
950.21473
-458.12504
-2098.3058
-185.35918
-871.62071
192.09804
-138.49944
114.54558
85.902359
2031.0654
-10.775249
-897.66128
538.03865
25.4217
-215.56843
-296.42563
-2788.2455
3026.7588
-73.360033
162.52089
-628.01809
-27.575548
-8.3262926
-186.76273
6427.8553
46.685132
-1496.8028
-5290.4869
4379.2171
-1184.3674
-527.28
-83.655926
754.02509
2772.1392
-175.23199
-1634.7982
-1994.5642
1490.8244
418.54571
1046.5755
-20.557803
-16.380976
1684.4078
-288.40659
-464.64084
-1690.7968
-2004.977
23.884759
-1895.4994
4526.2789
-158.69474
-37.577855
-792.45723
-338.98275
-1071.582
-8.4128506
-473.25443
1125.8071
183.12996
-5190.726
-6917.1089
-1157.6174
-297.8694
-5349.2837
5992.4548
-855.4694
-865.40298
146.67909
132.70767
-929.74718
84.526667
-1864.0767
1158.3154
-1.3164539
-129.29002
1044.0637
-59.775208
1335.4722
1178.8269
1020.9482
-1130.8914
-11.464736
1064.7843
-2161.4732
453.97824
-975.41614
-147.97851
1325.1642
-8.0431912
3.8982113
856.95632
-61.991982
284.07745
-6855.0281
749.14356
383.00117
-2706.4834
-436.91757
40.75301
-427.91437
593.92043
-184.55958
-863.8925
1008.2452
-290.80868
-586.52409
2222.4571
-18.137607
-14.478072
5570.7937
2705.5665
-1123.3635
-156.08084
-1289.9489
-536.26001
470.25581
1177.9836
-411.4448
-1302.7329
17.431719
-44.781288
-1261.7844
1597.8722
-935.41101
-121.3555
1384.8871
-892.01609
43.334668
-6.1266117
-4053.1766
-743.40788
69.402063
-4157.6967
-1180.2939
1118.8041
5940.1631
3.9799766
-13.012322
59.699488
-3294.4022
-20.965402
68.603631
21.848185
-32.035465
-49.652718
-5416.1656
-1143.1759
74.484206
84.954337
-927.89579
-1528.8455
-6833.0374
3045.8437
8.6701642
1425.2629
-343.04605
1904.8025
1910.6696
-1310.5639
-5313.0008
1609.7298
-1111.4062
-1485.7454
544.2423
1631.8297
729.19942
946.26961
-394.91477
-1921.1122
1700.5429
-224.90725
51.463949
-4.002939
668.23129
161.80685
-15.294576
1115.1555
-92.213935
1186.5806
-45.217038
-77.229278
209.25097
690.64753
-892.26576
-8.8536671
30.045684
-282.11856
-2135.0376
-1.6807411
-2210.3616
-72.095648
-137.07141
544.64716
-176.96709
3883.6164
831.30428
-294.74635
1573.7279
166.16984
3205.3986
741.19127
-1172.5344
-670.17067
-2860.3498
-50.677233
-181.18441
75.872813
-2295.8
-3644.9734
-336.12089
-165.94912
-41.194862
-75.713797
3707.7503
956.74458
-45.776384
-4410.4634
190.13018
-200.31752
-1947.2883
212.42527
3676.1098
1249.017
-802.81447
129.55439
-6002.3735
-61.83069
-805.1735
2.592441
-13.195484
-77.778238
-354.05576
101.1079
555.55869
-617.7286
838.83284
1213.4429
137.91092
114.69528
41.271306
-2798.8498
-340.25028
-4327.9257
2297.2439
329.46716
-1140.1745
-88.15674
2079.2641
-1853.7982
-7.4933847
-1120.5275
-177.18664
-96.778481
5.4537701
-180.81806
-1568.2623
39.066223
-5961.3899
-199.82959
220.62014
273.25358
-203.18023
-1007.8296
-568.52698
69.774116
-738.02199
2090.9299
-785.96547
-2040.351
4036.1571
-13.675389
-1225.4055
792.35507
-158.12756
-638.11093
1293.7962
-966.11761
1770.7346
-5527.6613
-2866.0211
-921.81848
-259.40312
-175.84825
-103.34704
479.82019
22.811463
-3535.946
-1241.7531
-101.57713
93.168936
138.69142
787.87624
438.73954
5404.4093
49.50119
838.69036
-43.019584
-1242.7225
-2722.5778
-699.55283
-218.89144
-864.89175
37.499645
1721.732
-703.20527
-154.48758
-706.67062
-13.012124
-349.8951
42.063541
-792.01798
444.90359
-1265.4398
1390.7752
-46.336401
1420.4488
-517.24265
-717.29928
-20.661172
14.006707
1148.5838
2033.2217
-21.708391
262.90566
-6502.8168
1111.0697
-39.810699
-197.93635
553.4894
-2548.1227
62.367049
42.192888
4016.2795
-50.844137