/*--------------------------------*- C++ -*----------------------------------*\
| =========                 |                                                 |
| \\      /  F ield         | foam-extend: Open Source CFD                    |
|  \\    /   O peration     | Version:     4.1                                |
|   \\  /    A nd           | Web:         http://www.foam-extend.org         |
|    \\/     M anipulation  |                                                 |
\*---------------------------------------------------------------------------*/
FoamFile
{
    version     2.0;
    format      ascii;
    class       surfaceScalarField;
    location    "0.6";
    object      phi;
}
// * * * * * * * * * * * * * * * * * * * * * * * * * * * * * * * * * * * * * //

dimensions      [0 3 -1 0 0 0 0];

internalField   nonuniform List<scalar> 
6703
(
-0.0042206273
0.021918
-0.017697373
-0.0079975793
0.026981056
-0.023204104
-0.011579222
0.03238892
-0.028807276
-0.015774402
0.038476255
-0.034281076
-0.020592848
0.045608445
-0.040789999
-0.026098257
0.053961575
-0.048456166
-0.032357438
0.063718269
-0.057459088
-0.039441233
0.075088243
-0.068004448
-0.047434276
0.088302105
-0.080309061
-0.056440326
0.10361727
-0.094611217
-0.066585493
0.12132501
-0.11117984
-0.07802042
0.14176094
-0.13032601
-0.090920978
0.16532935
-0.1524288
-0.10550361
0.19255734
-0.17797471
-0.12202687
0.22418693
-0.20766367
0.26122046
-0.24278344
-0.14046389
-0.0030621009
0.024980101
-0.0061274668
0.030046422
-0.0091442226
0.035405675
-0.012702569
0.042034601
-0.016855065
0.049760942
-0.021717475
0.058823984
-0.027408744
0.069409538
-0.034058639
0.081738138
-0.041813281
0.096056747
-0.050840416
0.1126444
-0.061338435
0.13182303
-0.073550378
0.15397288
-0.087778705
0.17955768
-0.10438475
0.20916338
-0.12373755
0.24353973
0.28355468
-0.14607177
-0.0011490456
0.026129146
-0.0029825509
0.031879928
-0.0050881948
0.037511319
-0.0076142581
0.044560665
-0.010610547
0.052757231
-0.01416785
0.062381287
-0.018381404
0.073623093
-0.023362213
0.086718947
-0.02923714
0.10193167
-0.03615078
0.11955804
-0.044268611
0.13994086
-0.05378296
0.16348723
-0.064923012
0.19069773
-0.077964048
0.22220441
-0.093210395
0.25878608
0.30131273
-0.11096844
-0.0004348697
0.026564016
-0.0016067055
0.033051763
-0.0028433672
0.038747981
-0.0043745453
0.046091843
-0.0062078536
0.054590539
-0.0084126808
0.064586115
-0.011054625
0.076265037
-0.014213559
0.089877882
-0.017981504
0.10569962
-0.0224645
0.12404104
-0.027784359
0.14526072
-0.034080161
0.16978303
-0.041508381
0.19812595
-0.05023662
0.23093265
-0.060408054
0.26895752
0.31284918
-0.07194451
0.0002032356
0.026360781
-0.00038177292
0.033636772
-0.00083010976
0.039196318
-0.001448494
0.046710227
-0.0021825003
0.055324545
-0.0030791964
0.065482811
-0.0041686756
0.077354516
-0.0054945086
0.091203715
-0.0071078063
0.10731292
-0.0090699585
0.12600319
-0.011453945
0.14764471
-0.01434565
0.17267474
-0.0178443
0.2016246
-0.022060501
0.23514886
-0.02711366
0.27401068
0.3191647
-0.033429179
0.00086933635
0.025491444
0.00094550009
0.033560608
0.0012711761
0.038870642
0.0015748656
0.046406538
0.0019451003
0.054954311
0.0023618573
0.065066054
0.0028299519
0.076886422
0.0033441758
0.090689492
0.0038965588
0.10676053
0.0044727319
0.12542702
0.0050506864
0.14706675
0.0055990871
0.17212634
0.0060756458
0.20114805
0.0064242797
0.23480022
0.0065991564
0.2738358
0.31921909
0.0065447744
0.0015701584
0.023921286
0.0024133992
0.032717368
0.0035215467
0.037762495
0.0047891528
0.045138932
0.0062853345
0.053458129
0.0080338785
0.06331751
0.010069684
0.074850616
0.012427548
0.088331628
0.015142511
0.10404557
0.01824762
0.12232191
0.021772573
0.1435418
0.025742671
0.16815624
0.030179198
0.19671152
0.035098092
0.22988133
0.040522994
0.2684109
0.31338942
0.046352658
0.0022814525
0.021639834
0.0039740287
0.031024792
0.005855772
0.035880752
0.0080920951
0.042902609
0.010714186
0.050836039
0.013797034
0.060234662
0.01740278
0.071244871
0.021603691
0.084130717
0.026474486
0.099174777
0.032091991
0.11670441
0.038533604
0.13710019
0.045876183
0.16081366
0.054195547
0.18839216
0.063560123
0.22051675
0.074020742
0.25795028
0.30187858
0.085531581
0.003050535
0.018589299
0.0057464427
0.028328884
0.0084552859
0.033171909
0.01166479
0.039693105
0.015402325
0.047098504
0.019794631
0.055842356
0.024935145
0.066104358
0.03093054
0.078135322
0.037892599
0.092212719
0.045939002
0.108658
0.055193061
0.12784613
0.065785295
0.15022143
0.077858939
0.17631851
0.091578491
0.2067972
0.10713785
0.24239093
0.28425082
0.12476561
0.0041121421
0.014477157
0.008027371
0.024413656
0.011761727
0.029437553
0.016020655
0.035434178
0.020891868
0.042227292
0.026554799
0.050179425
0.033148208
0.059510951
0.040815439
0.070468092
0.049704439
0.083323719
0.059970331
0.098392113
0.071777272
0.11603919
0.085303726
0.13669497
0.10075637
0.16086587
0.1184018
0.18915177
0.1386252
0.22216753
0.26068222
0.1621938
0.0044930079
0.009984149
0.010603683
0.018302981
0.016391471
0.023649766
0.022244087
0.029581562
0.028467109
0.03600427
0.03540722
0.043239315
0.043320786
0.051597385
0.052424252
0.061364626
0.062918727
0.072829246
0.074998969
0.086311871
0.088856497
0.10218166
0.10468451
0.12086696
0.12268731
0.14286307
0.14309302
0.16874606
0.16612602
0.19913453
0.23448504
0.1923232
0.0079267117
0.0020574378
0.015400506
0.010829187
0.02156122
0.017489052
0.027743682
0.023399101
0.03442741
0.029320542
0.041861475
0.035805251
0.050232114
0.043226747
0.059690247
0.051906493
0.070340926
0.062178567
0.082239238
0.07441356
0.095393401
0.089027498
0.10977557
0.10648479
0.12534326
0.12729539
0.14206854
0.15202078
0.1598657
0.18133736
0.21560813
0.17874262
-0.00029232147
-0.017754662
0.018046984
-0.0022598696
-0.021269597
0.023237145
-0.0059021571
-0.025310237
0.028952525
-0.010155772
-0.030080217
0.034333832
-0.015192861
-0.035678514
0.040715603
-0.02113877
-0.042230342
0.048176251
-0.028128908
-0.049873991
0.056864129
-0.036314178
-0.058760698
0.066945969
-0.045842557
-0.069056095
0.078584474
-0.056851803
-0.080941727
0.091950973
-0.069466726
-0.094618122
0.10723305
-0.083796409
-0.11031166
0.12464134
-0.099941883
-0.12828779
0.14443326
-0.11805326
-0.14885983
0.16697121
-0.13851276
-0.17236337
0.19282287
-0.19925002
0.22312569
-0.16238843
-0.0027258174
-0.015028845
-0.0061842678
-0.017811147
-0.010396956
-0.021097549
-0.015490586
-0.024986587
-0.021605104
-0.029563996
-0.028905224
-0.034930221
-0.03758155
-0.041197665
-0.047852376
-0.048489871
-0.059966893
-0.056941578
-0.074208846
-0.066699774
-0.090900393
-0.077926576
-0.11040688
-0.090805172
-0.13314493
-0.10554974
-0.15958474
-0.12242003
-0.19019177
-0.14175634
-0.16405261
-0.22538918
-0.0032033943
-0.01182545
-0.0071161623
-0.013898378
-0.011808649
-0.016405061
-0.017417355
-0.019377881
-0.02410268
-0.02287867
-0.032051154
-0.026981747
-0.041477495
-0.031771325
-0.052626743
-0.037340623
-0.065776623
-0.043791697
-0.081240467
-0.05123593
-0.099371513
-0.059795529
-0.12056984
-0.06960684
-0.14529271
-0.080826872
-0.17406964
-0.0936431
-0.20755602
-0.10826996
-0.1248876
-0.24672104
-0.0032945012
-0.0085309489
-0.0073902645
-0.009802615
-0.012358833
-0.011436492
-0.018330278
-0.013406435
-0.025468778
-0.01574017
-0.033968175
-0.018482349
-0.044051841
-0.021687659
-0.055973536
-0.025418928
-0.070018537
-0.029746696
-0.086505004
-0.034749463
-0.10578607
-0.040514466
-0.12825464
-0.047138267
-0.15435462
-0.054726896
-0.18459429
-0.063403423
-0.21949359
-0.073370662
-0.085066595
-0.25931459
-0.0036228977
-0.0049080511
-0.0080246769
-0.0054008357
-0.013292402
-0.0061687673
-0.019583827
-0.0071150103
-0.027085749
-0.0082382484
-0.036012482
-0.0095556167
-0.046607674
-0.011092467
-0.059146298
-0.012880303
-0.073936651
-0.014956343
-0.091322985
-0.01736313
-0.11168858
-0.020148874
-0.13546088
-0.023365964
-0.16311432
-0.027073452
-0.19519291
-0.031324832
-0.23250493
-0.03605865
-0.040873256
-0.27669826
-0.0011487373
0.026139887
-0.024991149
-0.0029824678
0.031895513
-0.030061783
-0.0050882337
0.037532262
-0.035426496
-0.0076143113
0.044589701
-0.042063624
-0.01061033
0.052798375
-0.049802357
-0.014166623
0.062438541
-0.058882248
-0.018377713
0.073700211
-0.069489122
-0.023353491
0.086817842
-0.081842064
-0.029219394
0.10204996
-0.096184062
-0.036118678
0.11968589
-0.1127866
-0.044216856
0.14005855
-0.13196038
-0.053709967
0.16356723
-0.15407412
-0.064836545
0.19071658
-0.17959
-0.077883472
0.22216631
-0.20911938
-0.093151534
0.25874332
-0.24347526
0.30132982
-0.2836072
-0.11087415
-0.0048701469
-3.7904213e-05
-0.010233706
-3.7276687e-05
-0.016365428
-3.7045256e-05
-0.023444296
-3.6142108e-05
-0.031648611
-3.3933721e-05
-0.041174328
-2.9899417e-05
-0.05224318
-2.3614033e-05
-0.065108639
-1.4844194e-05
-0.08006126
-3.7220518e-06
-0.097433433
9.0434617e-06
-0.11760433
2.2025832e-05
-0.14100351
3.3207741e-05
-0.16811713
4.0176577e-05
-0.19948123
3.9263357e-05
-0.23556085
2.0969486e-05
-3.662269e-05
-0.27639748
-0.0049670447
0.0049291405
-0.010414143
0.0054098218
-0.016631313
0.0061801244
-0.023800346
0.0071328912
-0.032099481
0.0082652008
-0.041722874
0.0095934942
-0.052888821
0.011142332
-0.065845649
0.012941984
-0.08087714
0.015027769
-0.098307615
0.017439518
-0.1185074
0.020221814
-0.14189631
0.023422115
-0.1689472
0.02709107
-0.20017417
0.031266227
-0.2360342
0.035881002
0.040658439
-0.27672926
-0.0036415126
0.0085706531
-0.0080823855
0.0098506946
-0.013397425
0.011495164
-0.019741297
0.013476763
-0.027298571
0.015822475
-0.036281072
0.018575994
-0.046929347
0.021790608
-0.059514471
0.025527108
-0.074339807
0.029853106
-0.091743242
0.034842953
-0.1120995
0.040578071
-0.13582473
0.047147343
-0.16338126
0.054647602
-0.19530224
0.063187204
-0.23233991
0.072918676
0.084137645
-0.27581912
-0.0032857704
0.011856423
-0.0073732315
0.013938156
-0.012332056
0.016453989
-0.018290205
0.019434912
-0.025409542
0.022941812
-0.033881019
0.02704747
-0.043924221
0.03183381
-0.055787944
0.037390831
-0.069751136
0.043816297
-0.086124354
0.051216171
-0.10525257
0.059706292
-0.12752201
0.069416776
-0.15337675
0.080502348
-0.18334775
0.0931582
-0.21802558
0.10759651
0.12386159
-0.25774953
-0.0031823891
0.015038813
-0.0070696561
0.017825422
-0.011730484
0.021114816
-0.01729972
0.025004148
-0.023935799
0.029577891
-0.03182283
0.034934501
-0.041172654
0.041183634
-0.052227161
0.048445338
-0.065261216
0.056850352
-0.080587027
0.066541981
-0.098561614
0.077680879
-0.11959933
0.090454489
-0.14418797
0.10509099
-0.17290939
0.12187962
-0.2065777
0.14126481
0.16423407
-0.24695018
-0.0027139993
0.017752812
-0.0061569843
0.021268407
-0.010349899
0.02530773
-0.015418894
0.030073144
-0.021503457
0.035662454
-0.028768127
0.042199171
-0.037404074
0.04981958
-0.047631774
0.058673038
-0.059705756
0.068924333
-0.073920904
0.080757129
-0.090620511
0.094380486
-0.11020753
0.11004151
-0.13316459
0.12804805
-0.16007732
0.14879235
-0.19152508
0.17271257
0.20014078
-0.22743178
-0.0002756213
0.018028433
-0.0022330206
0.023225806
-0.0058696195
0.028944329
-0.010115865
0.034319389
-0.015145233
0.040691822
-0.021083857
0.048137795
-0.028068516
0.056804239
-0.036252528
0.066857049
-0.045788395
0.0784602
-0.056821039
0.091789774
-0.069485771
0.10704522
-0.083903763
0.1244595
-0.10017941
0.1443237
-0.11842066
0.16703361
-0.13884415
0.19313606
0.22344948
-0.16215286
0.0079288855
-0.0099749237
0.0020460382
0.015407174
-0.018298622
0.010820332
0.021572497
-0.023649917
0.017484592
0.027757969
-0.029586044
0.02340057
0.034443403
-0.036015264
0.029329829
0.041877628
-0.043259348
0.035825121
0.050246111
-0.051629394
0.043260909
0.059698321
-0.061411162
0.05195895
0.070336877
-0.072890854
0.062252296
0.082213059
-0.086384416
0.074508231
0.09532961
-0.10225268
0.089136125
0.10965123
-0.12091168
0.10659006
0.12512456
-0.14284083
0.1273675
0.14169208
-0.16859674
0.15202922
0.15918331
-0.19873337
0.18124213
-0.23379425
0.21473731
0.17824026
0.0044995386
-0.014474464
0.010617903
-0.024416989
0.016413402
-0.02944542
0.02227419
-0.035446834
0.028506236
-0.042247312
0.035456594
-0.050209709
0.043381934
-0.059554737
0.052498644
-0.070527875
0.063007371
-0.083399586
0.075102184
-0.098479231
0.088974645
-0.11612514
0.10482168
-0.13675872
0.12286265
-0.1608818
0.14337099
-0.18910507
0.16670534
-0.22206772
-0.26077715
0.19368823
0.004117712
-0.018592178
0.0080389962
-0.028338275
0.011778938
-0.033185364
0.016044203
-0.039712101
0.020923009
-0.047126122
0.026595031
-0.055881734
0.03319909
-0.066158799
0.0408782
-0.078206988
0.049779476
-0.092300865
0.060056684
-0.10875644
0.071872457
-0.12794092
0.085404701
-0.15029097
0.10086245
-0.17633955
0.11851661
-0.20675923
0.13874334
-0.24229445
-0.28421776
0.16218396
0.0030536188
-0.021645798
0.0057530721
-0.03103773
0.0084652518
-0.035897545
0.011678877
-0.042925728
0.015421504
-0.05086875
0.019819954
-0.060280186
0.024967587
-0.071306434
0.030970626
-0.084210031
0.037939939
-0.09927018
0.045991751
-0.11680826
0.055247736
-0.13719691
0.065837817
-0.16088105
0.077908248
-0.18840999
0.091632708
-0.22048369
0.10722756
-0.25788931
-0.30194961
0.12495941
0.0022830052
-0.023928804
0.0039771192
-0.032731844
0.0058604299
-0.037780857
0.0080988579
-0.045164157
0.010723668
-0.053493561
0.013809857
-0.063366377
0.017419412
-0.07491599
0.021624148
-0.088414768
0.026497869
-0.1041439
0.03211594
-0.12242633
0.038553946
-0.14363491
0.045887383
-0.16821449
0.05419247
-0.19671507
0.063539293
-0.22983052
0.073980739
-0.26833075
-0.31339775
0.085428873
0.0015710779
-0.025499882
0.0024148912
-0.033575658
0.0035238052
-0.038889771
0.0047925181
-0.046432871
0.0062902434
-0.054991287
0.0080408021
-0.065116937
0.010079002
-0.076954191
0.01243934
-0.090775108
0.015156211
-0.10686077
0.01826161
-0.12553173
0.021783952
-0.14715726
0.025747692
-0.17217823
0.030174867
-0.20114225
0.035084452
-0.2347401
0.04050969
-0.27375599
-0.31921887
0.046330816
0.00087018584
-0.026370068
0.00094666728
-0.03365214
0.0012730068
-0.039216111
0.0015776579
-0.046737522
0.0019492986
-0.055362928
0.0023680298
-0.065535669
0.0028387045
-0.077424866
0.0033560723
-0.091292476
0.0039119226
-0.10741663
0.0044914079
-0.12611122
0.0050718571
-0.14773771
0.0056214258
-0.1727278
0.0060981301
-0.20161896
0.0064481158
-0.23509009
0.0066324354
-0.27394031
-0.31915578
0.0065693387
0.00020402262
-0.026574091
-0.00038079685
-0.033067321
-0.00082844393
-0.038768464
-0.0014458357
-0.046120131
-0.0021783263
-0.054630438
-0.0030727353
-0.06464126
-0.0041589107
-0.076338691
-0.0054801115
-0.089971276
-0.0070871783
-0.10580956
-0.0090413704
-0.12415703
-0.011415896
-0.14536318
-0.014297392
-0.16984631
-0.017786086
-0.19813026
-0.021991699
-0.23088448
-0.02702666
-0.26890535
-0.3128555
-0.033326942
-0.00043420436
-0.0016060118
-0.0028422145
-0.0043726444
-0.0062047068
-0.0084074259
-0.011045907
-0.014199342
-0.017958937
-0.022430074
-0.027734704
-0.034013779
-0.041427467
-0.050145639
-0.060307675
-0.071833356
-0.003058354
-0.021932795
-0.0061239582
-0.026996179
-0.0091433091
-0.032407145
-0.012704225
-0.038502708
-0.016859562
-0.045647021
-0.021724551
-0.054017259
-0.027417068
-0.063796605
-0.034064943
-0.075194189
-0.041811385
-0.088437621
-0.050820571
-0.10377742
-0.06128859
-0.12149236
-0.073462088
-0.14190063
-0.087660223
-0.16539186
-0.10427786
-0.19250175
-0.12373189
-0.22402122
-0.2609986
-0.14634049
-0.0042161634
-0.017716632
-0.0079973386
-0.023215004
-0.011588374
-0.02881611
-0.015794938
-0.034296144
-0.02062728
-0.040814679
-0.02614867
-0.04849587
-0.032424648
-0.057520628
-0.039523519
-0.068095318
-0.047525909
-0.080435231
-0.056530115
-0.094773213
-0.066657245
-0.11136523
-0.078059079
-0.13049879
-0.09093
-0.15252094
-0.10553031
-0.17790144
-0.1221291
-0.20742243
-0.2426159
-0.1405118
0.0047703616
-0.003049333
-0.0017210286
0.01542136
6.5704784e-05
-0.010716703
0.027987502
0.0044757976
-0.01704194
0.041294077
0.0093694054
-0.02267598
0.054366162
0.015249956
-0.028322041
0.067074024
0.021726839
-0.034434701
0.079426359
0.028989074
-0.041341408
0.091474778
0.037279652
-0.049328071
0.1033287
0.046829705
-0.058683629
0.11517091
0.057885146
-0.06972735
0.12724469
0.070748773
-0.082822558
0.13984616
0.085779424
-0.098380889
0.15334067
0.10336371
-0.11685822
0.16817926
0.12391786
-0.13875645
0.18487884
0.14793562
-0.16463519
0.17596058
-0.19509854
0.20401679
0.0022834888
-0.0053328219
0.0081102257
-0.0057610321
0.017111392
-0.0045253683
0.029223591
-0.0027427943
0.044738548
-0.00026500137
0.061991345
0.0044740428
0.079978793
0.011001625
0.097946493
0.019311953
0.11582214
0.028954058
0.13379324
0.039914047
0.1520234
0.052518613
0.17085108
0.066951744
0.190907
0.083307782
0.21319735
0.10162752
0.23905034
0.12208263
0.14490228
0.27010864
0.00011562167
-0.0054484436
0.00014720046
-0.0057926109
0.0020136515
-0.0063918193
0.006459631
-0.0071887738
0.0143732
-0.0081785708
0.02619484
-0.0073475963
0.042342941
-0.0051464758
0.063115264
-0.0014603709
0.086730594
0.0053387286
0.11111271
0.015531929
0.13481545
0.028815876
0.15808684
0.043680357
0.18164871
0.059745907
0.20671836
0.076557871
0.23464462
0.094156372
0.11254958
0.26699732
0.00034927467
-0.0057977182
0.00070374808
-0.0061470842
0.0011396992
-0.0068277703
0.0016313312
-0.0076804055
0.0021118388
-0.0086590782
0.0045070225
-0.0097427798
0.010248093
-0.010887546
0.020927922
-0.012140199
0.037444871
-0.011178221
0.059674931
-0.0066981297
0.084503255
0.0039875528
0.10471553
0.02346808
0.12975661
0.034704828
0.15818229
0.048132199
0.19053137
0.061807283
0.074636197
0.22844476
-0.00023212027
-0.005565598
-0.00093683835
-0.0054423659
-0.0020436104
-0.005720998
-0.0035808549
-0.0061431608
-0.0055937588
-0.006646174
-0.0081366086
-0.0071999297
-0.011249457
-0.0077746972
-0.015093358
-0.0082962982
-0.017593494
-0.0086780837
-0.015397017
-0.0088946057
-0.0017596278
-0.0096498359
0.020530307
0.0011781457
0.043397611
0.011837525
0.069810468
0.021719342
0.10174292
0.029874835
0.035749977
0.14062914
-0.0055496697
-1.5928182e-05
-0.010966941
-2.509411e-05
-0.016651505
-3.6433095e-05
-0.02274444
-5.0225711e-05
-0.029323793
-6.682008e-05
-0.036437156
-8.6566114e-05
-0.044101977
-0.00010987566
-0.052260739
-0.00013753535
-0.060767615
-0.00017120624
-0.069449869
-0.00021235075
-0.078836822
-0.00026288159
-0.077392647
-0.00026602819
-0.065332353
-0.0002227674
-0.043876453
0.00026344285
-0.016251836
0.0022502185
0.0088656103
0.010632532
-0.0056022567
0.0055863287
-0.011071593
0.0054442428
-0.016816866
0.0057088406
-0.022982811
0.0061157206
-0.029648872
0.0065992418
-0.036860126
0.0071246898
-0.044623884
0.0076538833
-0.052860257
0.0080988386
-0.061386736
0.0083552744
-0.069960179
0.0083610943
-0.078663339
0.0084402803
-0.076921013
-0.0020083527
-0.064835123
-0.012308656
-0.042820097
-0.021751581
-0.010766498
-0.029803381
-0.035246269
0.03334538
-0.00023320034
0.0058195295
-0.00095172225
0.0061627663
-0.0020853502
0.0068424705
-0.0036657492
0.0076961219
-0.0057419739
0.0086754689
-0.0083718938
0.0097546124
-0.011596076
0.010878068
-0.015569847
0.012072613
-0.018133924
0.010919355
-0.015852074
0.0060792475
-0.0025743417
-0.0048374484
0.019081234
-0.023663925
0.042014383
-0.035241802
0.068936641
-0.048673838
0.10151313
-0.062379872
-0.075508292
0.14177516
0.00034575113
0.0054737791
0.00069532746
0.0058131926
0.0011262564
0.0064115447
0.0016142515
0.0072081306
0.0020932225
0.0081965021
0.0044852636
0.0073625759
0.010216313
0.0051470233
0.020865249
0.0014236823
0.037270731
-0.0054861235
0.059205759
-0.015855776
0.083531282
-0.029162969
0.10387705
-0.044009693
0.1286553
-0.060020047
0.15672196
-0.076740502
0.18849212
-0.094150026
-0.11209351
0.22507733
0.00013322293
0.0053405572
0.00017752874
0.0057688906
0.0020579934
0.0045310845
0.0065207699
0.0027453589
0.014454602
0.00026267526
0.026296127
-0.0044789441
0.042461705
-0.01101855
0.063241472
-0.019356081
0.086781739
-0.029026387
0.11094955
-0.040023584
0.13444833
-0.052661746
0.15754699
-0.067108351
0.1809693
-0.083442356
0.20592156
-0.10169277
0.2337858
-0.12201426
-0.14466203
0.26635432
0.0022853673
0.0030551917
0.0081063929
-5.2130999e-05
0.01709968
-0.0044621991
0.02920527
-0.0093602274
0.044716412
-0.015248464
0.061971709
-0.021734238
0.079961207
-0.029008047
0.097919189
-0.037314062
0.11577657
-0.046883772
0.13371481
-0.057961817
0.15189947
-0.070846402
0.17067753
-0.085886415
0.19069009
-0.10345491
0.21295231
-0.123955
0.2388067
-0.14786865
-0.1755794
0.26972407
0.0047648778
-0.0017096835
0.015420236
-0.010707487
0.027995357
-0.017037319
0.041312117
-0.022676986
0.054394248
-0.028330594
0.067113602
-0.034453591
0.079479885
-0.041374329
0.091544932
-0.049379108
0.10341731
-0.058756146
0.11527746
-0.069821973
0.12736538
-0.082934318
0.1399751
-0.098496135
0.15347316
-0.11695297
0.16831963
-0.13880147
0.18506423
-0.16461325
-0.19516322
0.20464805
0.00035276292
-0.00033106045
0.00048981535
0.00052812835
0.00042995172
0.0001115814
-0.00054326789
-0.0016906667
-0.0035395279
-0.0063609716
-0.010495597
-0.016362107
-0.024467204
-0.035408303
-0.049935915
-0.069269875
0.00035249291
-0.00033035154
0.00048890755
0.00052659524
0.00042751974
0.00010790107
-0.00054859814
-0.0016979464
-0.0035487036
-0.0063709435
-0.010503124
-0.016360573
-0.024448252
-0.03537848
-0.049978038
-0.069468253
0.00044919992
-0.00033635461
0.00089647355
0.0016200578
0.0026192926
0.0039908221
0.0058774013
0.0084572421
0.011953391
0.016639648
0.022841454
0.030935378
0.041349903
0.054577649
0.071206526
0.090780614
0.00044889397
-0.00033640923
0.00089600529
0.0016191258
0.0026176276
0.0039881777
0.0058735167
0.0084519393
0.011946878
0.016633088
0.022838029
0.030941932
0.041379098
0.054643433
0.071345604
0.091855195
0.24300081
-0.53632574
0.29332493
1.2754989
-1.3206352
0.045136237
0.18666553
-0.48445584
0.2977903
1.2754989
-0.3319912
0.050446465
0.28154474
-1.2669458
0.787128
0.47981778
-0.16840772
0.66048637
-0.49207865
1.1647877
0.44040601
-1.6051937
1.2118217
0.30147257
-1.5132943
0.19143453
-0.2607044
-0.2929791
0.22351085
0.54419358
1.0046279
-1.5488215
-0.54170743
-0.57902459
1.120732
-1.1497211
0.5105698
0.6391513
-0.250044
0.60352793
-0.35348393
0.55175053
-0.038878756
-0.51287177
1.0996203
-1.1396295
0.040009242
0.07084548
0.2599872
-0.33083268
0.1757932
-0.25545295
0.079659753
0.9411748
-0.34246473
-0.59871007
-0.16562257
-0.16636864
-1.1548282
0.61312073
-1.4218493
1.4085551
0.013294262
0.10903781
1.2784869
-1.3875247
0.0055271789
-0.84973715
0.84420998
0.69821661
0.21231629
-0.91053291
-0.60607776
-0.91243622
1.518514
0.95731516
-0.31698253
-0.64033263
0.2170154
0.96488412
-1.1818995
-0.34563633
0.83838025
-0.49274392
1.0414532
-0.34323657
0.30417974
-0.21755049
-0.086629255
-0.027162977
1.2550266
-1.2278636
0.96357489
0.003014624
-0.96658951
0.15716402
-0.91966788
0.76250386
1.3268283
-1.117543
-0.20928532
1.1286335
-1.1968426
0.068209077
-0.72027291
0.87743693
0.84017388
-0.48909939
-0.35107449
-1.2970291
0.25553258
1.0414965
0.38347624
-0.54986649
0.16639025
1.2852089
-0.56470085
-0.72050807
1.1647877
-0.34947798
0.84480136
-0.49532337
1.2118217
-0.13091736
0.56093551
-0.43001815
-0.28499049
1.001785
-0.71679449
-1.4703565
0.62502368
0.84533282
-1.1647877
1.7485515
-0.58376385
-1.2118217
1.7638151
-0.55199339
0.47860528
-0.083129635
-0.39547564
-0.58683449
0.26242409
0.3244104
0.2162031
-0.40556928
0.18936618
0.14654
0.17387632
-0.32041633
-0.47367713
0.85722568
-0.38354855
0.10134891
0.83026603
-0.93161494
0.14617883
-0.2867905
0.14061167
-0.82384905
0.52344925
0.3003998
-1.5781507
0.17200775
1.4061429
1.2903223
-0.4589437
-0.83137863
1.1967593
0.09356304
0.83026902
0.61424495
-1.444514
0.77733717
0.65381318
-1.4311503
-0.3687595
0.75626929
-0.38750979
0.10659582
-0.60287676
0.49628094
-0.99678719
1.0343704
-0.037583254
0.66593052
-1.2081592
0.54222864
0.71346448
0.26116014
-0.97462462
-0.155036
0.9300394
-0.7750034
-1.3821558
1.0971653
-0.35328291
0.927835
-0.57455209
0.27971138
0.27203915
-0.62828482
0.57097273
0.057312096
0.74324225
0.95743851
-1.7006808
1.3396305
-1.2382827
-0.10134772
0.078150659
-0.44729314
0.74713197
-0.29983883
0.98195408
-0.46712302
-0.51483106
1.4964926
-1.348514
-0.14797856
1.1580063
-1.0279459
-0.13006043
0.44029267
-0.60068896
0.16039628
-0.34199663
0.13258928
0.20940735
0.20408334
-0.54971967
-1.8130225
1.2860979
0.52692465
0.34797347
0.7516468
0.37056646
-1.3668373
0.99627079
-0.6748172
1.1403627
-0.46554555
-0.15683218
-0.92994104
1.0867732
0.43634911
-0.32277784
-0.11357126
0.075635094
1.2639954
0.83742326
-0.0025975898
-0.83482567
-1.1951207
0.48846725
0.70665348
0.079530022
0.55003823
-0.62956825
0.47840131
0.36177257
0.66037433
0.36472201
-1.0250963
0.68868117
-0.26126561
-0.42741556
-0.72562478
-0.80806343
0.46254257
-0.27587703
-0.1159215
-0.23244671
0.34836822
-0.43442775
0.84923018
-0.41480243
-0.46809575
1.211338
-0.86156489
1.1454213
-0.28385644
-0.92289419
-0.27222654
-0.010735269
1.1393688
1.2401168
-1.1594623
-0.080654447
-0.76317042
-0.38655068
-1.6839972
1.1131898
0.57080733
-1.8140574
1.317446
0.49661138
0.86303218
-0.38792833
-0.47510385
0.20688061
-0.55635859
0.3079643
-0.78164144
0.00674637
0.63575019
-0.64249656
0.46899489
-0.62403089
-0.2213187
0.60479494
0.28388391
0.65729089
1.0032042
0.49328841
0.58119361
-0.57444724
0.43543212
1.0425353
-1.4779674
1.531412
-0.87861484
-0.65279718
-0.32957139
0.72140028
-0.39182889
-0.0095545328
0.22575763
0.30919522
-0.16265521
0.13002034
0.1366916
-0.26671195
1.6360346
-1.6631976
0.12900882
0.067960184
-0.19696901
0.17502982
-0.034400682
-1.1248444
1.2113658
-0.086521413
-0.31232112
0.20720731
0.10511381
0.59102008
-0.54936291
-0.041657177
-0.84421986
0.76990528
0.074314578
0.29060044
-0.14442161
-0.052236741
0.47837492
-0.42613818
-0.72528712
1.3292078
-0.60392071
0.44987654
0.83533238
1.1902734
-0.52434284
0.51394032
0.34909187
-0.53374996
0.4028326
0.99095835
-1.1477905
-0.46455444
0.34863293
0.84563714
0.39447962
0.78917946
-1.6227406
0.83356111
0.46526343
0.25327056
-0.2028241
-0.46092131
0.70392212
1.197009
-1.197009
-0.33858702
-0.19316856
1.0305918
0.11892418
-0.56621732
-0.058674353
0.96265412
-0.90397976
-0.61146404
1.4417331
-0.63845177
1.4157889
1.2718654
-0.72911544
-0.54274997
0.62867118
0.45822856
-0.78779995
0.89849272
-1.1797516
0.28125888
0.88555029
-0.88002311
0.13660865
-0.06749255
-1.0289149
1.0964075
1.4775197
0.24890989
-1.7264296
-0.82916065
1.2645928
-0.62340016
0.70893174
-0.64262229
0.72805116
-0.057607167
0.7179815
0.012275689
0.55246323
-0.56473892
-0.86552509
-0.039209117
0.90473421
0.54121219
-1.2664993
-1.3538783
1.2952039
0.9003315
0.4075781
-1.3079096
-0.11051494
-0.52176596
0.6322809
-0.56564817
1.1098417
-0.9146035
0.3429595
0.57164399
0.5710099
-0.49147988
0.13630041
-0.79555232
0.6592519
0.9974041
-1.1091256
0.11172154
0.87606043
0.39580498
-1.5160818
0.79580892
0.074588241
1.0834181
0.96576385
0.73717193
-1.3432497
-0.14831501
0.58860769
-1.0537236
0.83476947
0.21895415
-1.0785174
0.96800248
0.57471835
0.72532026
-1.3000386
0.91062242
0.017212581
-0.64647109
0.7827715
-0.31079114
-0.74293248
-0.17453201
-0.33625128
0.51078329
0.45547257
-0.73803296
0.28256039
0.14887147
0.43803996
-0.58691142
-1.0166627
0.25933896
0.75732373
0.16077349
1.1976699
-1.3584434
-0.94419341
-0.45677158
1.400965
0.24723264
0.71008252
-0.25191462
-0.0010049749
0.2529196
-0.95231469
-0.18731482
1.1991666
-1.0901288
1.0951697
-0.097765633
-0.78595097
-0.4493808
1.2353318
-0.68253917
-0.2962455
0.97878467
-0.12043339
0.47634174
-0.35590834
-0.051826292
0.88659576
-0.43002747
-0.51979572
0.94982318
0.55850612
0.0046935005
-0.56319962
-0.79419134
0.72514837
0.069042967
-0.99910962
0.55640832
0.4427013
-0.88787451
0.57708337
0.57448136
-1.1535059
1.4775197
0.17574787
0.39312684
-0.56887471
1.4531541
-1.1618416
-0.29131249
-1.0758506
1.1902826
-0.47681815
-0.88133983
-0.24350452
0.051163574
-0.84046934
0.78930577
-1.0748522
1.2356257
0.57498751
-1.1186376
0.54365011
0.54806788
0.7398145
-1.2878824
-0.68117704
0.53478298
-0.70931498
0.34218244
-0.39441918
-1.167684
-0.51631319
1.0444636
-0.11442415
1.0818237
-0.89356106
-0.18826267
0.87397141
0.71947166
-1.5934431
0.20586011
-0.6949595
-0.008902226
0.18973952
-0.18083729
-0.41502137
0.59076925
-0.51235414
1.3863256
-1.3783861
1.3656756
0.012710414
-0.13971823
0.61809315
0.030729549
-0.28264417
0.37708762
-0.38868567
0.011598047
0.29199482
-1.389246
1.0972512
-0.46544871
-0.035259866
0.50070858
-0.1385599
-0.7016669
0.8402268
0.61863541
0.29198701
0.25370183
1.099218
-1.3529199
-0.62190498
0.28565369
1.0298551
0.2314117
-1.2612668
0.029280047
1.1683898
0.58069302
0.46076017
1.3255431
-0.26223791
-1.0633051
-0.50267812
-0.1256067
-1.1672361
0.38152587
0.78571021
0.1148881
-0.58860643
0.47371832
-0.82032026
0.81667748
0.0036427797
-0.19199946
1.1555743
1.1640846
-1.7319758
0.5678912
0.63020123
0.3173805
-0.94758173
-0.45230084
-0.042092168
0.49439301
-0.13131491
-0.35875527
0.49007018
0.44050212
0.081004872
1.3721492
-0.47439825
1.0493858
0.36349925
-0.18770606
0.90486619
0.23258524
-1.1374514
0.46654344
-0.45426775
-0.82947253
0.39944506
1.5055064
-0.12508573
1.2689398
-1.1438541
0.11783219
-1.2353752
-1.4388186
0.81235875
0.62645989
1.4397049
-0.42024879
-0.7595028
-1.0827764
-0.21425272
-0.84344935
1.1046095
-0.57645859
-0.6904872
1.1854265
-0.96841106
-1.1220516
1.2316045
-0.10955286
-0.84260627
0.88261551
-0.39398563
-0.4002057
0.11367554
0.96814819
-0.031502172
-0.81271768
-0.57508899
-0.33951451
-0.18322417
1.248687
-1.0654628
-0.48294143
0.59782953
-0.89328122
0.92842747
-0.035146254
0.0027260324
-1.1955341
1.1928081
0.92391799
-0.07568577
-0.84823222
0.50846228
-0.52343056
0.014968283
1.0145899
-1.1505247
0.13593485
0.077481108
0.89910984
-0.97659095
0.72676918
-0.61209356
-0.11467562
-0.45195315
0.29740873
0.15454442
0.1733149
-0.33893746
-0.0042344281
-0.93995898
-0.09259391
-0.90419328
-1.1662668
1.2466281
-1.243902
-0.57717775
-0.2466713
-0.35845806
0.15744876
0.2010093
0.72603118
-0.6171716
-0.10885958
0.2144961
-1.0600263
0.84553025
0.0020710462
0.37501657
-0.43282449
-0.032624228
0.65561666
-0.036981257
-0.67555189
-0.94718868
0.77285379
-0.20188106
0.31539943
-1.6360346
1.3206352
1.0634134
-0.59385605
-0.46955736
-0.12960803
-0.69859428
0.82820231