/*--------------------------------*- C++ -*----------------------------------*\
| =========                 |                                                 |
| \\      /  F ield         | foam-extend: Open Source CFD                    |
|  \\    /   O peration     | Version:     4.1                                |
|   \\  /    A nd           | Web:         http://www.foam-extend.org         |
|    \\/     M anipulation  |                                                 |
\*---------------------------------------------------------------------------*/
FoamFile
{
    version     2.0;
    format      ascii;
    class       volVectorField;
    location    "0.6";
    object      U;
}
// * * * * * * * * * * * * * * * * * * * * * * * * * * * * * * * * * * * * * //

dimensions      [0 1 -1 0 0 0 0];

internalField   nonuniform List<vector> 
4242
(
(163.52063 167.54395 3.5568575e-15)
(178.63057 147.00335 1.0572147e-17)
(173.68171 146.45577 -1.8443768e-15)
(174.00839 142.01047 1.4927467e-15)
(172.97035 138.33992 1.9519083e-17)
(172.07201 133.96467 8.6304072e-18)
(171.06574 129.07599 0)
(169.94985 123.65732 5.1104786e-16)
(168.72788 117.69705 -8.2964028e-16)
(167.41115 111.20273 3.26803e-16)
(166.02794 104.2077 -2.1411667e-16)
(164.62199 96.776703 1.8164705e-16)
(163.26136 89.001995 1.8570801e-17)
(162.0992 80.957921 -2.5768638e-17)
(161.39188 72.747184 -5.2459441e-17)
(161.01566 64.96358 0)
(188.80554 155.41492 0)
(206.47284 127.89483 -2.2205155e-17)
(199.92078 129.89954 2.1300089e-15)
(199.51867 125.81886 -1.7316626e-15)
(197.70857 122.76123 -3.094781e-17)
(196.04326 118.95577 1.0259521e-15)
(194.2013 114.76228 -4.908265e-17)
(192.21673 110.11441 -1.2902502e-15)
(190.09369 105.00489 1.0354319e-16)
(187.84054 99.442539 4.0281392e-16)
(185.47671 93.455486 0)
(183.03285 87.097193 -3.1870743e-17)
(180.55812 80.446596 -3.4061114e-17)
(178.16054 73.569341 -1.9554767e-16)
(176.00856 66.521653 2.6955039e-16)
(173.95008 59.653391 3.5934999e-17)
(214.23577 142.2885 -6.381355e-17)
(235.53755 104.92001 -6.9319825e-15)
(227.01227 111.37338 2.7954469e-15)
(226.15292 107.25857 -1.9069689e-17)
(223.56532 104.96529 -1.6829652e-15)
(221.07602 101.84137 1.3767605e-15)
(218.29506 98.439371 -1.8937833e-17)
(215.28151 94.628874 2.9796171e-17)
(212.03716 90.411585 -1.3516359e-17)
(208.57886 85.791726 -3.6194301e-17)
(204.93898 80.790816 3.7737356e-16)
(201.16595 75.453104 -2.845129e-16)
(197.32601 69.848708 -4.574637e-16)
(193.51027 64.060359 4.0563866e-16)
(189.81166 58.206499 -5.195507e-17)
(186.29214 52.422759 -1.4947202e-16)
(236.82458 124.07158 -1.1417757e-17)
(261.02776 74.890364 -8.8310524e-18)
(250.79019 87.085384 -1.6872406e-15)
(249.77989 82.27994 1.4221001e-15)
(246.53986 81.025131 -1.8370197e-17)
(243.37664 78.736526 8.7951419e-16)
(239.80497 76.330533 -6.699885e-16)
(235.90084 73.593725 -1.0785094e-15)
(231.65783 70.54768 6.4493513e-17)
(227.09692 67.188911 1.3841056e-15)
(222.25994 63.530114 -5.4366935e-16)
(217.21268 59.601061 0)
(212.04569 55.450574 3.3358669e-17)
(206.86231 51.152325 -2.5877242e-16)
(201.71 46.877686 1.3191459e-16)
(196.58713 42.625623 -2.7314432e-16)
(251.6173 100.45797 1.1417757e-17)
(277.56197 38.431058 -2.3707917e-15)
(266.23957 57.439796 2.0154383e-15)
(265.28019 51.285368 -1.1762254e-17)
(261.62593 51.459858 2.9477201e-17)
(258.09212 50.081232 -8.4332269e-18)
(254.06771 48.838394 -8.533357e-16)
(249.6474 47.370084 1.9330366e-17)
(244.81508 45.733913 5.1267945e-16)
(239.59135 43.91444 -3.9578966e-16)
(234.01962 41.91366 3.3358552e-16)
(228.1714 39.741921 0)
(222.1475 37.417912 1.9926456e-16)
(216.0659 34.965775 -1.476827e-16)
(209.99565 32.457125 4.6960209e-17)
(203.99209 29.573274 0)
(257.11713 72.487348 -1.6478395e-15)
(282.8634 -0.42822416 6.5150308e-16)
(272.03621 24.406613 1.0469475e-15)
(270.91545 17.215381 -8.5052343e-16)
(267.21735 18.89341 1.857699e-18)
(263.60447 18.473573 2.9404827e-16)
(259.48997 18.468178 2.3325493e-16)
(254.96139 18.359542 -1.0220844e-17)
(250.00015 18.239833 -9.4707534e-18)
(244.6238 18.082674 -3.3392898e-16)
(238.87276 17.879913 3.5196708e-16)
(232.81601 17.621491 -1.3346646e-17)
(226.55241 17.297814 -3.6389981e-17)
(220.20186 16.889805 -8.2867754e-17)
(213.83579 16.484817 -5.6494404e-20)
(207.58529 15.49975 3.8877802e-17)
(252.55087 42.743468 -8.4547953e-16)
(276.6568 -37.831755 -5.9605658e-16)
(268.07343 -9.672712 1.5448887e-15)
(266.47681 -16.654078 -8.2515288e-16)
(263.12967 -13.918473 3.4900642e-16)
(259.6957 -13.27677 3.256297e-20)
(255.83018 -12.084121 4.3146507e-16)
(251.5725 -10.84143 -1.9564101e-16)
(246.91224 -9.4647474 -2.5212604e-17)
(241.86376 -7.9807971 9.4367441e-17)
(236.46351 -6.4075929 -1.5254621e-16)
(230.77373 -4.7742132 1.2148363e-16)
(224.88381 -3.1165045 -3.4334308e-17)
(218.90228 -1.5002032 -1.4666536e-16)
(212.89307 0.1789173 5.8188077e-17)
(206.96118 1.0527704 7.5383632e-17)
(237.46588 14.04755 -1.9818165e-17)
(259.41393 -70.498818 2.3424748e-15)
(254.51717 -42.142577 -1.9535601e-15)
(252.45802 -47.592191 1.5040386e-15)
(249.72269 -44.357469 -1.2643895e-15)
(246.74771 -42.620859 0)
(243.45023 -40.340748 7.7642493e-16)
(239.82678 -37.849033 -6.2997029e-16)
(235.87512 -35.097482 -1.3306708e-17)
(231.60771 -32.109299 0)
(227.05543 -28.91331 -5.4455089e-17)
(222.26962 -25.557135 2.7211532e-17)
(217.3239 -22.101359 -1.853443e-16)
(212.30499 -18.658252 3.5776419e-16)
(207.27804 -15.124549 -2.5623762e-16)
(202.29236 -12.370112 -7.0485452e-17)
(211.76618 -10.483808 1.4017658e-17)
(232.07259 -95.183628 -8.9235439e-18)
(231.94212 -70.160542 0)
(229.94322 -73.071287 3.0912527e-17)
(227.96905 -69.783944 1.5579673e-17)
(225.75226 -67.071543 8.7146256e-16)
(223.32734 -63.885044 -7.4453042e-16)
(220.68353 -60.360074 0)
(217.82332 -56.476899 3.7870324e-18)
(214.75674 -52.256993 -3.8081051e-17)
(211.50555 -47.738328 3.4096185e-17)
(208.10456 -42.982312 1.9270077e-17)
(204.60476 -38.065028 3.9852296e-17)
(201.06211 -33.122702 2.4508835e-16)
(197.54084 -28.080999 -2.9604115e-16)
(194.03107 -23.687303 1.6659006e-16)
(175.27443 -27.164447 0)
(195.44646 -108.07561 3.7393158e-15)
(200.94181 -90.494171 -5.8311025e-15)
(200.30136 -90.647396 2.2943088e-15)
(199.34161 -87.553425 -1.5444223e-17)
(198.20082 -84.186526 -4.3883115e-17)
(196.94614 -80.374717 1.1164234e-15)
(195.59493 -76.163756 -9.1135752e-16)
(194.16084 -71.541939 -6.119748e-16)
(192.65155 -66.529142 5.7112492e-16)
(191.07515 -61.168504 0)
(189.44187 -55.527957 -3.5421998e-16)
(187.76774 -49.688658 2.0615192e-16)
(186.06074 -43.781579 0)
(184.34831 -37.754962 0)
(182.5766 -32.026142 0)
(130.17768 -33.007013 1.1805991e-14)
(153.38518 -108.49019 -3.2000502e-15)
(164.53494 -100.50931 0)
(167.14463 -99.1861 -1.1358104e-17)
(167.96298 -96.476086 -1.2854e-15)
(168.28682 -92.943315 1.1013531e-15)
(168.40446 -88.867486 7.8693646e-16)
(168.44438 -84.360059 -1.8116114e-17)
(168.48315 -79.431908 -5.7000986e-16)
(168.55452 -74.107344 2.9310252e-17)
(168.66653 -68.437804 0)
(168.8095 -62.500978 -4.6738206e-16)
(168.96064 -56.389699 9.0637985e-17)
(169.06884 -50.238302 3.0053066e-16)
(169.07494 -44.081944 0)
(169.39255 -37.181938 3.3364957e-17)
(39.321066 9.5163502 5.1666643e-17)
(73.025964 -59.904524 4.8408131e-15)
(99.104331 -75.432751 -1.650611e-15)
(112.75456 -81.519698 -1.1971182e-15)
(119.83609 -83.328958 9.5509976e-16)
(124.41393 -82.707915 -7.5475393e-16)
(128.06362 -80.644337 6.2710099e-16)
(131.37117 -77.693572 4.466096e-16)
(134.60871 -74.114575 -4.0441001e-16)
(137.89176 -70.036552 0)
(141.23018 -65.548578 0)
(144.56431 -60.734234 0)
(147.79558 -55.676533 2.6302534e-17)
(150.80106 -50.47984 0)
(153.39582 -45.334761 1.6018375e-16)
(156.1186 -39.225979 -2.9456472e-16)
(104.31834 -148.56678 1.1344989e-15)
(130.05332 -143.24984 8.8189757e-19)
(132.64456 -149.68771 -5.6381761e-16)
(132.59795 -145.76657 4.4152319e-16)
(132.51203 -141.9866 5.2647811e-19)
(132.45442 -137.6122 9.2604261e-18)
(132.45887 -132.64774 0)
(132.55415 -127.05802 8.4375047e-17)
(132.76187 -120.81612 -1.0234731e-16)
(133.1082 -113.93055 4.1264096e-17)
(133.61471 -106.44717 -7.2346157e-18)
(134.29365 -98.449592 6.0860465e-18)
(135.16646 -90.046293 -2.2357754e-17)
(136.28792 -81.345453 1.0085933e-17)
(137.59343 -72.550172 1.1007638e-17)
(138.53897 -64.377394 0)
(82.581276 -142.28369 0)
(93.918977 -133.24864 2.7121024e-18)
(93.166788 -131.56374 -3.2607827e-16)
(94.211856 -128.60961 2.5582275e-16)
(95.413278 -125.34265 3.2769357e-18)
(96.880471 -121.63428 -2.1788541e-16)
(98.623952 -117.44015 -1.586395e-17)
(100.65512 -112.72515 3.2773868e-16)
(102.98081 -107.46654 -7.758834e-18)
(105.59966 -101.65849 -1.2395153e-16)
(108.49775 -95.31818 0)
(111.64671 -88.490636 1.76494e-17)
(115.01398 -81.244247 1.0564786e-17)
(118.57723 -73.656292 1.2432897e-16)
(122.26859 -65.833966 -1.6572464e-16)
(125.7816 -58.069879 -2.9457327e-17)
(54.339583 -122.55992 -1.506487e-17)
(61.680104 -116.87868 3.268444e-15)
(62.330443 -114.62947 -1.2489957e-15)
(63.933704 -111.89515 9.8966339e-18)
(65.873545 -108.87192 7.9287157e-16)
(68.180312 -105.48827 -6.2444766e-16)
(70.878633 -101.69615 1.0216719e-17)
(73.990525 -97.459944 -1.6629272e-17)
(77.531055 -92.757313 2.3394849e-18)
(81.502693 -87.583168 2.2112818e-17)
(85.889233 -81.954764 -2.3744367e-16)
(90.655223 -75.914441 1.7891482e-16)
(95.761509 -69.525288 3.3197571e-16)
(101.18118 -62.866703 -2.9469726e-16)
(106.82014 -56.068189 3.8977965e-17)
(112.26542 -49.403814 1.3515323e-16)
(30.464024 -95.184665 9.370806e-18)
(34.579153 -91.37211 6.7247485e-18)
(36.111468 -89.080192 1.1445581e-15)
(38.226241 -86.70441 -8.9162365e-16)
(40.811656 -84.151704 1.183409e-17)
(43.879638 -81.357772 -5.5123055e-16)
(47.458258 -78.279439 4.043099e-16)
(51.572996 -74.887465 6.9253359e-16)
(56.238816 -71.164829 -1.256904e-17)
(61.451831 -67.108291 -9.1928368e-16)
(67.181572 -62.730953 3.6542401e-16)
(73.372461 -58.062583 0)
(79.96308 -53.145694 -2.4794092e-17)
(86.891515 -48.037361 2.1188126e-16)
(93.979669 -42.841985 -1.0700272e-16)
(100.68624 -37.749828 2.5085013e-16)
(13.846592 -63.976596 -1.1893896e-17)
(15.779663 -60.223043 2.2972166e-15)
(17.789325 -57.740249 -1.6586587e-15)
(20.303065 -55.564065 8.7632657e-18)
(23.361808 -53.451806 -2.0987806e-17)
(26.988092 -51.303193 5.8728135e-18)
(31.215969 -49.064941 6.0343965e-16)
(36.07739 -46.70629 6.2437161e-18)
(41.592116 -44.210122 -3.4963565e-16)
(47.757773 -41.569622 2.8828604e-16)
(54.542354 -38.786911 -2.3672426e-16)
(61.889858 -35.870209 0)
(69.743126 -32.827995 -1.5852189e-16)
(78.028871 -29.666265 1.1632739e-16)
(86.454985 -26.420292 -3.9990337e-17)
(94.160353 -23.243533 0)
(214.37243 -142.34475 0)
(235.67063 -104.98058 3.4402204e-15)
(227.16711 -111.4307 -5.5224035e-15)
(226.32339 -107.33 2.2421292e-15)
(223.76378 -105.04612 1.5151246e-17)
(221.30233 -101.93523 4.8053771e-18)
(218.54671 -98.544336 1.0339892e-15)
(215.54906 -94.741189 -8.7700071e-16)
(212.30348 -90.52401 -6.2724021e-16)
(208.819 -85.89384 4.7220232e-16)
(205.12349 -80.869884 0)
(201.2692 -75.497748 -2.432771e-16)
(197.34003 -69.856103 1.9154082e-16)
(193.46238 -64.038213 0)
(189.77944 -58.147253 0)
(186.35718 -52.313838 0)
(5.3712126 -37.889001 2.5017063e-15)
(6.6322425 -32.632231 -7.3128157e-16)
(9.2826724 -29.474902 -9.8464017e-16)
(12.459157 -27.047435 7.1273337e-16)
(16.126911 -24.980016 6.7046408e-18)
(20.305948 -23.120337 -2.150105e-16)
(25.024663 -21.390506 -1.7244939e-16)
(30.30782 -19.744529 2.0094205e-18)
(36.169643 -18.151711 2.2041959e-18)
(42.607387 -16.589056 2.4740053e-16)
(49.595261 -15.040765 -2.6464348e-16)
(57.08114 -13.489836 4.6837117e-18)
(64.987826 -11.917556 2.4997594e-17)
(73.209796 -10.298299 6.7126639e-17)
(81.581733 -8.6001971 4.8884344e-20)
(89.808197 -6.8501378 -3.6754079e-17)
(5.433227 37.676935 1.2351873e-15)
(6.7131617 32.320578 7.2271967e-16)
(9.3993753 29.192065 -1.4649119e-15)
(12.620729 26.820075 7.0646388e-16)
(16.336528 24.816626 -2.7526829e-16)
(20.564419 23.022501 -2.513768e-20)
(25.330315 21.355597 -3.3203901e-16)
(30.655915 19.766531 1.3971666e-16)
(36.551766 18.221668 1.4794407e-17)
(43.011178 16.695704 -7.8846186e-17)
(50.005129 15.171616 1.1772412e-16)
(57.480051 13.632835 -1.0224651e-16)
(65.358667 12.063064 2.488423e-17)
(73.530588 10.442203 1.2947347e-16)
(81.80831 8.7529967 -5.2203487e-17)
(89.859041 7.0580589 -7.4411366e-17)
(13.911785 64.169388 1.8573776e-17)
(15.845374 60.45154 -2.3072651e-15)
(17.882541 58.001126 1.652634e-15)
(20.426431 55.844381 -1.2213276e-15)
(23.514191 53.739281 9.5213581e-16)
(27.167055 51.58629 0)
(31.417458 49.332692 -5.8207637e-16)
(36.295423 46.948115 4.5478087e-16)
(41.818374 44.415671 9.2939516e-18)
(47.981111 41.728555 0)
(54.748721 38.888542 4.144343e-17)
(62.063354 35.902892 -2.1187366e-17)
(69.866388 32.777389 1.5483228e-16)
(78.074521 29.50944 -3.0643537e-16)
(86.365975 26.113718 2.1991059e-16)
(93.871634 22.726493 6.4496509e-17)
(30.545963 95.538692 -9.3470971e-18)
(34.675787 91.753121 6.7114675e-18)
(36.215256 89.477643 0)
(38.326598 87.103367 -1.8753199e-17)
(40.900564 84.538809 -8.7405383e-18)
(43.948904 81.721111 -5.498088e-16)
(47.498682 78.608056 4.5545826e-16)
(51.574019 75.171132 0)
(56.188114 71.39404 -4.4381059e-18)
(61.334309 67.274521 2.3812571e-17)
(66.978 62.827252 -2.4609878e-17)
(73.062657 58.083134 -1.1451515e-17)
(79.543645 53.079468 -3.1033373e-17)
(86.396925 47.851657 -1.9693663e-16)
(93.415764 42.481648 2.4004434e-16)
(99.768501 37.255216 -1.4022869e-16)
(54.372017 122.81086 0)
(61.758897 117.12676 -1.6423401e-15)
(62.396956 114.88572 2.5026712e-15)
(63.977993 112.1449 -9.6795711e-16)
(65.884798 109.10321 7.8413801e-18)
(68.147263 105.6902 1.9345399e-17)
(70.789427 101.85836 -5.3575504e-16)
(73.832934 97.572695 4.2821518e-16)
(77.293116 92.81194 3.2496755e-16)
(81.172999 87.573492 -3.0117084e-16)
(85.456578 81.879922 0)
(90.114891 75.780206 2.2193367e-16)
(95.148156 69.334948 -1.3031083e-16)
(100.61892 62.608689 0)
(106.42471 55.790095 0)
(111.62696 49.49927 0)
(82.537778 142.37416 -8.7400627e-16)
(93.942553 133.3119 3.430292e-16)
(93.168035 131.6325 0)
(94.191202 128.66421 -5.9997475e-19)
(95.360133 125.37321 2.4667559e-16)
(96.785363 121.63151 -2.0424721e-16)
(98.478474 117.39562 -1.9191467e-16)
(100.45309 112.63187 -1.4005237e-17)
(102.72046 107.32003 1.5520917e-16)
(105.28663 101.45882 -1.2661925e-17)
(108.14898 95.073223 0)
(111.29945 88.217866 1.9499666e-16)
(114.74584 80.968073 -2.8116208e-17)
(118.51508 73.419891 -1.3700186e-16)
(122.52355 65.764998 0)
(126.44896 58.332065 -1.3809821e-17)
(104.13005 148.48693 4.2118697e-17)
(129.99946 143.17574 1.6498653e-15)
(132.58835 149.66265 -6.0795143e-16)
(132.52389 145.72134 -3.9900329e-16)
(132.41353 141.92143 3.17528e-16)
(132.32503 137.52057 -1.953214e-16)
(132.29406 132.525 1.4473723e-16)
(132.35284 126.90246 8.4750324e-17)
(132.52863 120.63027 -8.3570719e-17)
(132.85606 113.7232 0)
(133.36819 106.23621 0)
(134.0919 98.264075 0)
(135.06617 89.925923 1.1114671e-17)
(136.35476 81.341305 0)
(137.8595 72.71556 -3.1970721e-17)
(138.88704 64.682094 7.4620342e-17)
(39.259234 -9.5981142 5.5717798e-15)
(72.988312 59.843215 1.1376679e-17)
(99.089016 75.409484 -1.6147186e-15)
(112.77058 81.519395 1.2446286e-15)
(119.88117 83.350383 1.7946109e-17)
(124.48639 82.750997 6.2821751e-18)
(128.16275 80.708555 0)
(131.49444 77.776945 4.6487536e-16)
(134.74965 74.21255 -7.7167574e-16)
(138.03824 70.141097 3.0967242e-16)
(141.36348 65.648136 -2.2695542e-16)
(144.65948 60.815384 1.9254139e-16)
(147.82473 55.726007 1.6023321e-17)
(150.73048 50.503493 -3.2557524e-17)
(153.25118 45.249938 -8.3027531e-17)
(156.26931 38.355885 0)
(130.19952 32.977709 0)
(153.4181 108.47661 -2.4706413e-17)
(164.58633 100.52934 2.2224194e-15)
(167.21756 99.211501 -1.7298322e-15)
(168.05675 96.512955 -2.9798108e-17)
(168.40321 92.992675 1.0259063e-15)
(168.54405 88.929073 -3.9304323e-17)
(168.60423 84.431489 -1.3114223e-15)
(168.65531 79.507957 9.6883168e-17)
(168.72515 74.1794 4.1953971e-16)
(168.8164 68.494137 0)
(168.91718 62.527941 -3.518544e-17)
(169.01046 56.371086 -3.9823714e-17)
(169.0564 50.163394 -2.3935008e-16)
(169.04985 43.857766 3.3364822e-16)
(169.00309 37.534796 4.5112136e-17)
(175.34818 27.161934 -9.4939078e-17)
(195.52263 108.08827 -7.552e-15)
(201.03481 90.529899 2.9538815e-15)
(200.41224 90.683306 -1.9584915e-17)
(199.47332 87.599588 -1.7548754e-15)
(198.35623 84.242412 1.4286622e-15)
(197.12515 80.440027 -1.9323159e-17)
(195.79288 76.235894 3.0459737e-17)
(194.36731 71.616095 -1.423164e-17)
(192.84992 66.598219 -3.7306231e-17)
(191.24418 61.224128 4.0481978e-16)
(189.56054 55.562583 -3.0445276e-16)
(187.8247 49.697355 -5.0465025e-16)
(186.05998 43.777365 4.4739638e-16)
(184.3331 37.703594 -6.1653643e-17)
(182.48721 32.343578 -1.8238769e-16)
(211.87622 10.491014 -1.403557e-17)
(232.18174 95.207105 -8.9335278e-18)
(232.06738 70.198093 -1.7138303e-15)
(230.08405 73.108478 1.4226335e-15)
(228.13183 69.830253 -1.8012077e-17)
(225.93923 67.12511 8.7217299e-16)
(223.53708 63.945952 -6.6045224e-16)
(220.90933 60.425919 -1.0670712e-15)
(218.05208 56.543879 5.8759632e-17)
(214.96902 52.319846 1.3714863e-15)
(211.67803 47.791426 -5.3914054e-16)
(208.21656 43.021249 0)
(204.64881 38.088448 3.4700117e-17)
(201.05104 33.143213 -2.6794507e-16)
(197.51998 28.050209 1.3706279e-16)
(194.01862 23.876093 -2.9088585e-16)
(237.59564 -14.043043 1.2875999e-17)
(259.54166 70.517947 -2.327628e-15)
(254.66171 42.171053 1.9556352e-15)
(252.61772 47.620231 -1.1396589e-17)
(249.90598 44.393032 2.8147769e-17)
(246.95556 42.661286 -7.897237e-18)
(243.68007 40.386732 -8.0215485e-16)
(240.07 37.898778 1.6466162e-17)
(236.11627 35.148764 4.7831195e-16)
(231.82482 32.159206 -3.7090781e-16)
(227.22343 28.959178 3.1219247e-16)
(222.36819 25.597652 0)
(217.34891 22.139049 1.8891366e-16)
(212.27637 18.70415 -1.4054422e-16)
(207.23983 15.134262 4.6533667e-17)
(202.29309 12.600723 0)
(252.68969 -42.74742 -1.7061576e-15)
(276.79334 37.838849 6.4467928e-16)
(268.2283 9.687073 1.0269413e-15)
(266.64718 16.666205 -8.2598345e-16)
(263.32527 13.935936 1.5747386e-18)
(259.91635 13.296093 2.8162274e-16)
(256.07252 12.106702 2.2242085e-16)
(251.82643 10.866369 -9.5685773e-18)
(247.16049 9.4916893 -8.8318826e-18)
(242.08251 8.0093233 -3.1508674e-16)
(236.62647 6.43774 3.3149808e-16)
(230.86107 4.8069333 -1.2342266e-17)
(224.89439 3.1551706 -3.437412e-17)
(218.86106 1.5457305 -7.7963794e-17)
(212.84231 -0.16600836 -5.2345069e-20)
(206.96406 -0.84410992 3.6786937e-17)
(257.25999 -72.502422 -8.1857416e-16)
(283.0041 0.42049964 -6.0379769e-16)
(272.19669 -24.408693 1.5784627e-15)
(271.09195 -17.222492 -8.5138736e-16)
(267.42049 -18.898182 3.6277562e-16)
(263.83327 -18.48003 3.424588e-20)
(259.74064 -18.47435 4.5322639e-16)
(255.22292 -18.365168 -2.0658598e-16)
(250.25418 -18.243246 -2.6682696e-17)
(244.84537 -18.08166 9.9959425e-17)
(239.03492 -17.87167 -1.6259016e-16)
(232.8994 -17.602887 1.2926142e-16)
(226.558 -17.266591 -3.6433768e-17)
(220.15707 -16.85508 -1.5626677e-16)
(213.78566 -16.466206 6.1994036e-17)
(207.60081 -15.318273 7.9115038e-17)
(251.76153 -100.48588 -1.7725849e-17)
(277.70463 -38.454144 2.3913068e-15)
(266.40254 -57.459703 -2.0178736e-15)
(265.45983 -51.312839 1.5737884e-15)
(261.83303 -51.488978 -1.335216e-15)
(258.32551 -50.115687 0)
(254.32343 -48.876082 8.2714342e-16)
(249.91415 -47.409374 -6.7462367e-16)
(245.0741 -45.771162 -1.3629597e-17)
(239.81725 -43.944787 0)
(234.1852 -41.931437 -5.7773532e-17)
(228.25749 -39.742061 2.8431433e-17)
(222.15542 -37.400613 -1.9458184e-16)
(216.02369 -34.945065 3.7660502e-16)
(209.95618 -32.430181 -2.6646045e-16)
(204.0168 -29.44528 -7.2309e-17)
(236.96738 -124.11405 1.1433089e-17)
(261.16928 -74.930843 -8.8426531e-18)
(250.95238 -87.12376 0)
(249.95867 -82.329216 -7.8623905e-18)
(246.74647 -81.079999 -1.5469986e-17)
(243.61019 -78.800541 8.3129807e-16)
(240.06186 -76.401538 -7.1748515e-16)
(236.17024 -73.668818 0)
(231.92138 -70.621295 5.3288367e-17)
(227.32926 -67.25342 3.7739421e-17)
(222.43324 -63.576609 3.501879e-17)
(217.30609 -59.622156 -7.1172672e-17)
(212.05793 -55.447106 4.0480905e-17)
(206.82177 -51.137298 2.4003191e-16)
(201.68027 -46.842635 -2.8539261e-16)
(196.62839 -42.524567 1.6073399e-16)
(188.92457 -155.47993 7.4957467e-15)
(206.58344 -127.97233 -2.8467896e-15)
(200.05446 -129.97147 0)
(199.66642 -125.90688 -1.2231641e-17)
(197.88437 -122.86147 -1.2919479e-15)
(196.2484 -119.07235 1.1149912e-15)
(194.43517 -114.89429 7.7926901e-16)
(192.47245 -110.25843 -2.6361216e-17)
(190.3566 -105.15336 -5.5697671e-16)
(188.08678 -99.583689 2.7564054e-17)
(185.67443 -93.573626 0)
(183.14852 -87.175663 -4.1492166e-16)
(180.57206 -80.473284 9.2648772e-17)
(178.09421 -73.53786 2.5705329e-16)
(175.94663 -66.416004 0)
(173.96604 -59.475839 2.3076405e-17)
(163.61656 -167.59062 3.681233e-17)
(178.70143 -147.07954 4.9817475e-15)
(173.77903 -146.52086 -1.9117143e-15)
(174.11807 -142.09243 -1.4203222e-15)
(173.10855 -138.43585 1.1506081e-15)
(172.2421 -134.07953 -8.7897285e-16)
(171.26963 -129.21091 7.268588e-16)
(170.18403 -123.81103 4.9290782e-16)
(168.98134 -117.86394 -4.4455536e-16)
(167.66261 -111.37239 0)
(166.24459 -104.36379 0)
(164.76265 -96.89782 0)
(163.29056 -89.066177 1.7333175e-17)
(162.01748 -80.953534 0)
(161.26521 -72.689262 1.0471446e-16)
(160.96291 -64.832253 -1.7816273e-16)
(-39.677109 61.796144 1.0894722e-15)
(19.935987 -13.53446 2.0482685e-18)
(47.154859 -35.750407 -2.1361823e-16)
(66.219484 -47.500438 1.4143749e-16)
(80.586724 -53.585518 1.9545574e-18)
(91.682552 -56.195799 5.0393109e-18)
(100.44909 -56.725829 0)
(107.60003 -56.03726 7.3427389e-17)
(113.63071 -54.64874 -1.2723912e-16)
(118.86768 -52.871908 6.134327e-17)
(123.53001 -50.880096 -6.6010416e-17)
(127.75763 -48.739356 5.7433219e-17)
(131.62977 -46.432906 -8.6672635e-18)
(135.21136 -43.880496 -1.1066014e-17)
(138.44059 -41.111924 -4.6906262e-17)
(141.93303 -37.678424 0)
(-18.644425 46.060742 0)
(-24.08307 37.167618 -7.1276717e-18)
(-3.7940634 16.165341 5.2905993e-16)
(17.671707 -4.3980153 -3.3300328e-16)
(38.918468 -22.935551 -4.6703053e-18)
(56.54763 -35.079712 1.5105055e-16)
(71.436321 -42.468648 1.3265599e-18)
(84.019555 -46.674698 -1.7944582e-16)
(94.496344 -48.75153 6.1906263e-18)
(103.14912 -49.364219 6.3716868e-17)
(110.28494 -48.961744 0)
(116.12978 -47.828202 -5.5270604e-18)
(120.87775 -46.113856 -1.1793933e-17)
(124.78328 -43.858001 -5.8468616e-17)
(128.08598 -41.102184 8.6952375e-17)
(131.50814 -37.569533 7.9953943e-18)
(-17.118081 53.497497 -1.0730093e-17)
(-23.54965 43.935942 -2.4986467e-15)
(-19.872353 41.313316 1.0788492e-15)
(-17.234673 39.807298 -6.478453e-18)
(-14.589678 38.801166 -5.5252334e-16)
(-1.3810754 24.938543 3.4499825e-16)
(15.596874 7.3439215 -3.7347868e-18)
(34.368213 -10.238048 5.1909768e-18)
(52.059739 -23.719584 -3.096664e-18)
(67.654858 -32.731998 -5.444767e-18)
(80.956426 -38.576165 5.6536085e-17)
(91.714627 -42.072474 -3.9400103e-17)
(100.01653 -43.430343 -6.9648004e-17)
(106.36301 -42.93393 6.0635033e-17)
(111.31124 -40.942681 -1.2022889e-17)
(116.35487 -37.262023 -2.6552268e-17)
(-13.657353 57.645081 -2.4574317e-18)
(-16.756571 50.033469 -2.111565e-18)
(-15.111021 46.616791 -5.2321609e-16)
(-13.775692 43.913785 4.4979162e-16)
(-12.701671 41.488604 -5.0744047e-18)
(-11.295296 39.338193 3.1965662e-16)
(-8.7383328 37.669831 -2.3105159e-16)
(-5.4196812 36.017761 -3.8311749e-16)
(4.9823768 25.832433 -9.524552e-18)
(20.600064 9.5660805 3.6667082e-16)
(38.465297 -8.0034569 -1.2674822e-16)
(51.847986 -22.043373 0)
(62.682209 -31.731358 6.1076492e-18)
(72.307848 -36.485629 -2.7737656e-17)
(80.881119 -37.374242 1.5249569e-17)
(89.759116 -34.946366 -5.6044133e-19)
(-9.3006648 54.8468 2.4574317e-18)
(-9.534871 47.583384 -4.590087e-16)
(-9.3285177 43.606874 3.796461e-16)
(-9.3679024 40.523425 -2.8330561e-18)
(-9.7153997 37.769985 5.8858397e-18)
(-10.331973 35.150734 -1.1027077e-18)
(-11.176573 32.582377 -1.8924201e-16)
(-12.18119 29.921996 -1.2141943e-17)
(-13.356342 26.754392 1.2338113e-16)
(-15.277299 21.953631 -1.4035673e-16)
(-15.694721 13.555524 1.5191849e-16)
(20.19752 -11.521386 0)
(20.826341 -21.498845 3.9672431e-17)
(28.33081 -27.362889 -2.3955389e-17)
(38.184022 -29.514633 1.9737951e-18)
(50.623642 -28.160686 0)
(-6.3932452 40.105416 -6.3827522e-17)
(-7.1168252 30.015449 1.8129918e-17)
(-9.4001973 23.847714 2.924111e-17)
(-12.019006 18.990303 -2.4002013e-17)
(-14.865173 14.750301 -1.9123708e-18)
(-17.884125 10.840143 9.5618307e-18)
(-21.010108 7.1087457 1.0661949e-17)
(-24.198163 3.4579714 1.2286147e-18)
(-27.52925 -0.19482992 1.2671006e-18)
(-31.136892 -3.918436 -2.5777677e-17)
(-34.347363 -7.7524736 3.1056404e-17)
(-34.153151 -11.520221 -3.1872773e-18)
(-27.964417 -15.619698 -9.5744606e-18)
(-19.683547 -18.962061 -4.620921e-18)
(-8.1603093 -20.673899 8.6492317e-21)
(13.995002 -19.819885 -1.814737e-17)
(-6.4209279 -40.03838 -3.0515647e-17)
(-7.1498157 -29.748464 -2.0655151e-17)
(-9.4514041 -23.459078 4.2335471e-17)
(-12.097414 -18.507481 -2.3530377e-17)
(-14.977886 -14.189789 1.0405582e-17)
(-18.037188 -10.21434 1.1566582e-21)
(-21.20865 -6.4278824 2.0129472e-17)
(-24.445155 -2.7301329 -7.6958265e-18)
(-27.809684 0.96422381 -4.6823955e-19)
(-31.370188 4.7174844 9.9178166e-18)
(-34.348269 8.5183344 -1.2458651e-17)
(-33.783539 12.097104 1.1027793e-17)
(-27.694738 15.73883 -9.4597137e-18)
(-19.498586 18.124566 -3.1800761e-19)
(-9.1431734 18.199658 -4.1033468e-18)
(13.463102 13.033651 -2.9569837e-17)
(-9.3324372 -55.012085 -3.1141043e-18)
(-9.5421683 -47.657463 4.6711538e-16)
(-9.3368278 -43.643717 -3.8252318e-16)
(-9.3910186 -40.536698 3.1314555e-16)
(-9.7605012 -37.754203 -2.5549132e-16)
(-10.397911 -35.078062 0)
(-11.270122 -32.389933 1.8600549e-16)
(-12.358992 -29.493137 -1.4629867e-16)
(-13.663216 -25.929297 -6.2740175e-18)
(-15.32984 -20.562765 0)
(-13.811699 -11.35422 -2.7284045e-17)
(18.452045 12.677862 1.3650561e-17)
(20.257245 22.63949 -4.2158299e-17)
(28.159127 28.382173 3.1959998e-17)
(38.085893 30.647434 -1.1442985e-17)
(52.485033 29.048218 8.9807822e-18)
(-13.7201 -57.899309 2.479412e-18)
(-16.812578 -50.205459 -2.1331851e-18)
(-15.155592 -46.760471 0)
(-13.81817 -44.042955 9.7606855e-18)
(-12.741302 -41.603417 5.6322763e-18)
(-11.324166 -39.422445 3.2393172e-16)
(-8.7466944 -37.691721 -2.6355846e-16)
(-5.460536 -35.911846 0)
(5.0550638 -25.29924 1.2465743e-19)
(20.943265 -8.5670201 -1.0080173e-17)
(38.472172 9.0013785 7.5075367e-18)
(51.696468 22.898788 4.343824e-18)
(62.447283 32.376361 5.7126265e-18)
(71.946901 36.976424 2.1728845e-17)
(80.289092 37.763884 -1.8881865e-17)
(89.876042 34.894204 1.6553231e-18)
(-17.170026 -53.69371 0)
(-23.586532 -44.062787 1.2600798e-15)
(-19.899889 -41.403756 -2.1661491e-15)
(-17.238277 -39.887608 8.0975985e-16)
(-14.573542 -38.873426 -4.5346387e-18)
(-1.3640007 -25.010682 -1.1000876e-17)
(15.641354 -7.3721598 2.3382643e-16)
(34.470225 10.300706 -1.6069049e-16)
(52.169857 23.845592 -9.4305105e-17)
(67.73142 32.936607 7.8010727e-17)
(80.961179 38.848863 0)
(91.633552 42.36897 -4.9958155e-17)
(99.859512 43.717642 2.5997358e-17)
(106.1424 43.168171 0)
(110.99414 41.091502 0)
(116.38375 37.052319 0)
(-18.640177 -46.122509 2.7367538e-15)
(-24.147261 -37.250822 -9.8128984e-16)
(-3.8578287 -16.233503 0)
(17.638705 4.36966 -2.1695656e-18)
(38.92013 22.959727 -2.196499e-16)
(56.573564 35.142456 1.5848996e-16)
(71.483956 42.564579 1.1120461e-16)
(84.086065 46.803882 5.2917097e-18)
(94.577586 48.916384 -7.9082148e-17)
(103.23787 49.564023 3.8544292e-18)
(110.36788 49.186101 0)
(116.19032 48.05744 -9.8822777e-17)
(120.9006 46.322064 1.0602457e-17)
(124.76242 44.012361 7.1608958e-17)
(127.93684 41.236378 0)
(131.49037 37.484378 1.3509939e-17)
(-39.927106 -62.054063 3.1710239e-17)
(19.823101 13.411335 8.9744768e-16)
(47.090675 35.679685 -2.2962953e-16)
(66.189029 47.462663 -1.3601905e-16)
(80.585817 53.57795 9.9375938e-17)
(91.709556 56.218353 -8.7592455e-17)
(100.50317 56.77862 6.5088936e-17)
(107.68004 56.119886 7.1435789e-17)
(113.73339 54.758999 -7.3999704e-17)
(118.98566 53.004659 0)
(123.65006 51.026285 0)
(127.86039 48.886245 0)
(131.69461 46.564491 2.1344658e-17)
(135.22393 43.981119 0)
(138.34177 41.243518 8.2837909e-17)
(142.57412 37.198894 -1.5824267e-16)
(129.00996 144.69076 0)
(132.79212 150.70244 0)
(134.02448 146.29503 0)
(134.42703 142.72796 2.187717e-18)
(134.95093 138.53758 -1.6611749e-17)
(135.57141 133.7241 2.0934414e-17)
(136.30855 128.28358 0)
(137.17024 122.17915 -4.2012418e-18)
(138.16063 115.40576 0)
(139.2778 108.00777 0)
(140.51072 100.07481 0)
(141.85532 91.733251 1.0640612e-17)
(143.35835 83.106493 0)
(145.04301 74.399226 2.3472049e-17)
(146.60879 66.452379 0)
(129.07264 -144.75959 0)
(132.85159 -150.72657 0)
(134.09855 -146.34175 0)
(134.52638 -142.79398 2.1920349e-18)
(135.08112 -138.6299 -1.5574306e-17)
(135.73721 -133.84694 2.3179334e-17)
(136.51049 -128.43881 0)
(137.40274 -122.3629 4.1985567e-18)
(138.40865 -115.60783 0)
(139.51352 -108.20842 0)
(140.6914 -100.24314 0)
(141.92736 -91.828433 -1.0631877e-17)
(143.28112 -83.086502 0)
(144.82923 -74.282033 9.1512553e-18)
(146.45394 -66.40635 0)
(71.977607 55.949385 0)
(98.30206 72.841422 0)
(110.63948 79.93703 0)
(117.32449 81.625642 2.0940386e-18)
(121.61472 80.653627 -1.5720035e-17)
(124.8531 78.302803 2.0137002e-17)
(127.69375 75.1385 0)
(130.47721 71.426362 -4.2880244e-18)
(133.3542 67.321136 0)
(136.35286 62.932237 0)
(139.41949 58.349565 0)
(142.45445 53.645815 7.9925259e-18)
(145.33803 48.903099 0)
(147.78398 44.392509 5.1882e-17)
(150.78582 38.564222 0)
(72.022125 -56.010382 0)
(98.320049 -72.86694 0)
(110.62524 -79.939825 0)
(117.28214 -81.605661 2.0891192e-18)
(121.54542 -80.611211 -1.437952e-17)
(124.7574 -78.238169 2.2642576e-17)
(127.57397 -75.052978 0)
(130.33929 -71.323667 4.2915185e-18)
(133.20943 -67.208226 0)
(136.21883 -62.819333 0)
(139.3199 -58.24849 0)
(142.41431 -53.569095 -8.0095612e-18)
(145.38894 -48.840926 0)
(147.99983 -44.287258 4.2843823e-17)
(150.79136 -39.067865 0)
(103.99532 148.98084 6.7327679e-20)
(104.18575 -149.05876 -6.7358011e-20)
(37.234681 -10.758056 5.9339429e-19)
(37.317438 10.676616 -5.8974185e-19)
(151.70424 15.030435 0)
(158.59278 0.15792199 0)
(141.36926 -25.727827 0)
(158.36123 0.15389834 0)