/*--------------------------------*- C++ -*----------------------------------*\
| =========                 |                                                 |
| \\      /  F ield         | foam-extend: Open Source CFD                    |
|  \\    /   O peration     | Version:     4.1                                |
|   \\  /    A nd           | Web:         http://www.foam-extend.org         |
|    \\/     M anipulation  |                                                 |
\*---------------------------------------------------------------------------*/
FoamFile
{
    version     2.0;
    format      ascii;
    class       volScalarField;
    location    "0.7";
    object      p;
}
// * * * * * * * * * * * * * * * * * * * * * * * * * * * * * * * * * * * * * //

dimensions      [0 2 -2 0 0 0 0];

internalField   nonuniform List<scalar> 
4242
(
-0.18894948
-0.19012456
-0.19077615
-0.19049497
-0.18864882
-0.18418393
-0.17587142
-0.16255013
-0.143594
-0.11915249
-0.090115518
-0.057920862
-0.024375868
0.0083038344
0.038343737
0.068924346
-0.36725249
-0.366866
-0.36578989
-0.3630417
-0.35717844
-0.34644203
-0.32919072
-0.30465172
-0.27337348
-0.23713933
-0.19820165
-0.15847
-0.11924044
-0.081556826
-0.046514018
-0.013535076
-0.53227341
-0.53160932
-0.53034273
-0.52762138
-0.52204585
-0.51173804
-0.49457461
-0.46882365
-0.43395831
-0.39120146
-0.34322147
-0.29297349
-0.24273657
-0.1940048
-0.14786941
-0.10571499
-0.666797
-0.66563895
-0.66391168
-0.66089814
-0.65529916
-0.64535007
-0.62894352
-0.60405729
-0.56948568
-0.52556414
-0.474335
-0.41871686
-0.36139025
-0.30448898
-0.24954223
-0.19818345
-0.74895856
-0.74742507
-0.74538537
-0.74228885
-0.73698861
-0.72788286
-0.71295035
-0.69005461
-0.65758743
-0.61524874
-0.56446822
-0.50792957
-0.44845719
-0.38834316
-0.32896839
-0.27052665
-0.77541046
-0.77367625
-0.77152054
-0.76858297
-0.76395293
-0.75631057
-0.74386805
-0.72452924
-0.69639617
-0.65853526
-0.61162211
-0.55787861
-0.50016342
-0.44102218
-0.38219042
-0.32454354
-0.75229119
-0.75053676
-0.7484458
-0.74583523
-0.74207294
-0.73621252
-0.72686168
-0.71219364
-0.69026012
-0.6596266
-0.6201153
-0.57313407
-0.52117276
-0.46682515
-0.41202451
-0.35770569
-0.69297431
-0.69138082
-0.68951814
-0.6873274
-0.68443182
-0.68026664
-0.67392018
-0.66403252
-0.64890262
-0.62689622
-0.59711521
-0.55998102
-0.51720811
-0.47107855
-0.42354799
-0.37596799
-0.61540024
-0.61412446
-0.61262472
-0.61089544
-0.60874558
-0.60591957
-0.60195268
-0.59601688
-0.58689982
-0.57314926
-0.5535058
-0.52752281
-0.49593281
-0.46035381
-0.42247629
-0.38356038
-0.53755604
-0.53672618
-0.53570897
-0.53448656
-0.53295308
-0.53100676
-0.52848588
-0.52510273
-0.52029565
-0.5130827
-0.50219442
-0.48672318
-0.46653235
-0.44229232
-0.41500742
-0.38598334
-0.47580343
-0.47554775
-0.47514815
-0.47451613
-0.47353666
-0.47212383
-0.4702282
-0.4677077
-0.46420017
-0.45934056
-0.45314156
-0.44560205
-0.43569922
-0.42203376
-0.40275753
-0.37623813
-0.43251225
-0.43275625
-0.43290281
-0.43287011
-0.43256569
-0.43182791
-0.43042797
-0.4281668
-0.42516591
-0.42207126
-0.4200083
-0.42060201
-0.42333084
-0.42162272
-0.41071841
-0.38666891
0.062626559
0.063576522
0.064832609
0.067277019
0.071996843
0.079982435
0.091870403
0.10763569
0.12644742
0.14680582
0.16699919
0.1855717
0.20141248
0.21358673
0.2222061
0.23082671
0.27740894
0.27607666
0.27500079
0.27479157
0.27599989
0.27922925
0.2848881
0.2929165
0.30266753
0.31302407
0.32268875
0.33045388
0.33527983
0.33621373
0.33268404
0.32605072
0.47234024
0.4707589
0.46924491
0.46818029
0.46779019
0.46831217
0.46982006
0.472048
0.47434168
0.47576776
0.47532488
0.47212163
0.46539822
0.45446502
0.43919762
0.42178735
0.62006007
0.61818878
0.61626272
0.61453277
0.61299894
0.61165177
0.61034621
0.60868199
0.60598231
0.60137538
0.59394554
0.58286325
0.56739303
0.54690194
0.521572
0.49414982
0.72258844
0.72055647
0.71838785
0.71624297
0.71398556
0.71144082
0.70828429
0.70395157
0.69765584
0.68850561
0.67566847
0.65846923
0.63634477
0.60895916
0.57757486
0.54741806
-0.53222338
-0.53155664
-0.53028895
-0.52756819
-0.52199441
-0.51168925
-0.49452789
-0.46877245
-0.43389277
-0.39110747
-0.34309147
-0.2928111
-0.24255983
-0.19387539
-0.14797211
-0.10623197
0.74816873
0.7462833
0.74421018
0.74204982
0.73961418
0.73666831
0.73283868
0.72755908
0.72011759
0.70976535
0.69583199
0.67780294
0.65534668
0.6283462
0.59711309
0.56303737
0.7484915
0.74659613
0.74451283
0.7423426
0.73989631
0.73693744
0.73309016
0.72778565
0.72031051
0.70991768
0.6959428
0.67787987
0.65540919
0.62845911
0.59750568
0.56422005
0.72244999
0.72041265
0.7182394
0.71609095
0.71383013
0.71128087
0.70811684
0.70377153
0.69745701
0.68828374
0.67542542
0.6582152
0.63610299
0.60881067
0.57776033
0.54820205
0.61892746
0.61707223
0.61516452
0.61345382
0.61194015
0.610613
0.60932472
0.60767126
0.60497211
0.60035511
0.59291114
0.58181297
0.56627038
0.54552691
0.52002191
0.49415649
0.47082303
0.46926621
0.46777996
0.46674471
0.46638735
0.46694732
0.46849988
0.47077949
0.47313027
0.47461778
0.47424636
0.471123
0.46438034
0.45304711
0.43740956
0.42321272
0.27680166
0.27548108
0.27441961
0.27422668
0.27545517
0.27871301
0.28441536
0.29250993
0.302356
0.3128402
0.3226698
0.33064098
0.33569014
0.33682708
0.33362803
0.3271624
0.062839879
0.063787527
0.065041501
0.067481977
0.072194275
0.080169205
0.092046708
0.1078075
0.12662602
0.14700312
0.16722295
0.1858192
0.20164842
0.21369836
0.22202943
0.23048295
-0.42913295
-0.42937351
-0.42951519
-0.42947679
-0.42916607
-0.42842146
-0.42701222
-0.42473005
-0.42168862
-0.41855204
-0.4164249
-0.41688023
-0.41991501
-0.41831005
-0.40638475
-0.38023218
-0.4724491
-0.47219869
-0.47180392
-0.4711748
-0.47019425
-0.46877321
-0.46686517
-0.46433887
-0.46084198
-0.45600955
-0.44989852
-0.44260258
-0.43319659
-0.4203506
-0.40254485
-0.37913921
-0.53356569
-0.53274073
-0.53172789
-0.53050907
-0.52897925
-0.52703808
-0.52452617
-0.52116593
-0.51641704
-0.50932926
-0.49864672
-0.48348239
-0.46372225
-0.44005888
-0.41355604
-0.38561936
-0.61146352
-0.6101902
-0.60869223
-0.60696453
-0.60481834
-0.60200274
-0.59806097
-0.5921742
-0.58314298
-0.56952878
-0.55008193
-0.52435923
-0.49309193
-0.45788976
-0.42043708
-0.38207812
-0.68920896
-0.68761637
-0.68575467
-0.68356683
-0.68067984
-0.67653489
-0.67022869
-0.66041106
-0.64538955
-0.6235338
-0.59394288
-0.55703095
-0.51450694
-0.46864575
-0.42139857
-0.37421657
-0.74904112
-0.74728631
-0.74519569
-0.7425888
-0.7388379
-0.73300279
-0.72369854
-0.70910503
-0.68727732
-0.65677847
-0.61742305
-0.57061221
-0.51883761
-0.46469396
-0.41012817
-0.35622181
-0.77290523
-0.77116939
-0.76901346
-0.76608001
-0.76146253
-0.75384632
-0.74144865
-0.72217633
-0.69413031
-0.65637118
-0.60956669
-0.55593767
-0.49835271
-0.43935961
-0.38072157
-0.3234566
-0.74734093
-0.745805
-0.74376467
-0.74067176
-0.73538217
-0.7262973
-0.71139826
-0.6885485
-0.65613653
-0.61385648
-0.56313337
-0.50665806
-0.44727017
-0.38726346
-0.32807827
-0.27005527
-0.66605021
-0.66488951
-0.66316137
-0.66015007
-0.6545574
-0.64461982
-0.6282302
-0.60336435
-0.56881314
-0.52490737
-0.47368754
-0.41808622
-0.36079815
-0.30396492
-0.24920264
-0.19822722
-0.36761533
-0.36722725
-0.3661504
-0.36340086
-0.35753344
-0.34678768
-0.3295181
-0.30494787
-0.27362538
-0.23733611
-0.19833606
-0.15853355
-0.11924016
-0.081556934
-0.046617385
-0.013397469
-0.18910105
-0.19027579
-0.19092636
-0.19064284
-0.18879194
-0.18431855
-0.17599229
-0.16265519
-0.14367855
-0.1192085
-0.090131257
-0.057887088
-0.024308679
0.0083514283
0.03841743
0.069305854
-0.42932292
-0.42907629
-0.4287776
-0.42836718
-0.42774738
-0.42678747
-0.42529123
-0.42299241
-0.41959986
-0.41490345
-0.40893865
-0.40221459
-0.39619695
-0.3927565
-0.39095512
-0.38613142
-0.43082898
-0.43032415
-0.42975136
-0.42911131
-0.42832591
-0.42731232
-0.42598493
-0.42428293
-0.42223916
-0.42006401
-0.41820552
-0.41742298
-0.41904129
-0.42480274
-0.43131191
-0.43186791
-0.42041368
-0.41983189
-0.41919776
-0.4185355
-0.41779395
-0.41695376
-0.41604936
-0.41521223
-0.41473194
-0.41508669
-0.41690495
-0.42084944
-0.42745105
-0.43667444
-0.44623231
-0.44683096
-0.38445953
-0.38431011
-0.38415555
-0.38400088
-0.38384365
-0.38372322
-0.3837623
-0.38421832
-0.38551679
-0.3882203
-0.39290843
-0.40001054
-0.40957752
-0.42056544
-0.42977264
-0.43436714
-0.32318857
-0.32389749
-0.3246699
-0.32546341
-0.32635076
-0.32745171
-0.32899854
-0.33138161
-0.33511884
-0.34073415
-0.34857577
-0.35866106
-0.37049842
-0.38254185
-0.39143004
-0.39336333
-0.2822468
-0.28381466
-0.28553099
-0.28730628
-0.28927766
-0.29160257
-0.29452705
-0.29842371
-0.30373674
-0.31084955
-0.31992199
-0.33075878
-0.34269067
-0.35424146
-0.36235363
-0.36218197
-0.27900581
-0.28062183
-0.28238918
-0.28421483
-0.2862394
-0.28862503
-0.29162482
-0.29561877
-0.30105148
-0.30829204
-0.31746814
-0.32832683
-0.34009851
-0.3512479
-0.3591441
-0.36036211
-0.3168227
-0.31761395
-0.31847622
-0.31936324
-0.32035446
-0.32157112
-0.32324095
-0.32574499
-0.32958724
-0.33527397
-0.34313847
-0.35316235
-0.36473534
-0.37626749
-0.3852635
-0.39006166
-0.37706538
-0.37699186
-0.3769207
-0.37685401
-0.37679687
-0.37679523
-0.37697778
-0.37760366
-0.37908904
-0.38196999
-0.38678582
-0.39391772
-0.40330923
-0.41367722
-0.42191313
-0.42680777
-0.41494586
-0.41440717
-0.41382103
-0.41320987
-0.4125269
-0.4117587
-0.41094897
-0.41023942
-0.40992439
-0.41047535
-0.4124943
-0.41659801
-0.42323676
-0.43217117
-0.44084068
-0.44107844
-0.42775045
-0.4272372
-0.42665786
-0.42601601
-0.42523644
-0.42424299
-0.42296286
-0.42135568
-0.41948167
-0.41758074
-0.41612096
-0.41584431
-0.41797101
-0.42405401
-0.43044625
-0.42935432
-0.42764755
-0.42736952
-0.42703933
-0.42660017
-0.42595372
-0.42497114
-0.42346222
-0.42117373
-0.41783938
-0.41329207
-0.40763134
-0.40138523
-0.39561298
-0.39232037
-0.39015104
-0.38445487
-0.075517741
-0.076286854
-0.07424472
-0.069282721
-0.061167325
-0.049467909
-0.033481181
-0.01324439
0.010374679
0.035975345
0.062043002
0.08713794
0.10959976
0.12874991
0.1489295
-0.075716293
-0.076476233
-0.074414998
-0.069425631
-0.061278641
-0.049549848
-0.033545495
-0.013296521
0.010336299
0.03596075
0.062062607
0.087195664
0.10974108
0.12924087
0.14916118
-0.42940672
-0.42961299
-0.42954748
-0.42905288
-0.42792635
-0.42593306
-0.42287496
-0.41877407
-0.41418301
-0.41054315
-0.40857772
-0.405958
-0.40006331
-0.3904602
-0.37035337
-0.4319294
-0.43215433
-0.43211026
-0.43163837
-0.43053422
-0.42855995
-0.42551259
-0.42140836
-0.41680743
-0.413179
-0.41083208
-0.4076985
-0.40172082
-0.39277251
-0.37644051
-0.071650016
-0.071847023
-0.42903274
-0.43154617
-0.1198058
0.026505645
0.28315057
0.018922854
-0.38152895
0.041952444
0.16116937
0.20539646
0.20392418
0.15614522
0.14931029
0.01748529
0.23032821
-0.025453418
0.16589128
-0.2022564
0.097059177
-0.29127168
-0.35407329
0.020457046
-0.38928452
0.23364299
0.21176914
0.20006719
0.20321928
0.043517204
0.015067488
0.01811647
0.006167315
-0.029935777
0.04518446
0.1621149
0.035180352
-0.0055098595
0.21987284
0.022867324
0.016333735
0.21525082
0.094872302
0.095544303
0.080832106
0.011283075
0.20141758
-0.02481525
0.20046559
0.31020007
0.01892876
0.20015598
0.17479381
0.17488381
-0.30982036
0.42042531
0.2435072
0.13291318
-0.1506235
-0.028588043
0.13050855
0.15693547
0.19988193
0.013381483
0.015586139
0.17788334
0.17597177
0.10600552
-0.28736082
0.11081308
0.036839758
0.01865411
0.078983009
0.019441235
0.052762349
-0.18161219
0.062707664
0.011928064
0.010962965
0.20996072
-0.12265306
0.054917763
0.018048083
0.13508584
-0.1578552
-0.31498733
-0.028549907
0.015427673
0.085277744
0.030230425
0.17855202
0.005477769
-0.24554403
0.0097870823
-0.004550857
0.038888024
0.32826239
0.078985259
0.2050453
0.2194787
0.001290689
0.29811937
-0.34653254
0.22432632
0.010222085
0.023352841
0.041726324
0.014386589
0.016465139
-0.025702389
0.050428778
0.0073757625
0.095571044
-0.02294695
-0.17588913
0.24589464
0.078810557
0.081974415
0.0056918303
0.020645506
0.26040742
0.013298348
0.018144872
0.25014016
0.25363122
0.12602927
-0.28560162
0.038624926
-0.37861778
-0.38752121
0.1163705
-0.36811526
-0.21998353
0.23411286
0.11819298
0.11235759
0.027067549
0.0090011272
0.034294393
0.078777653
0.29900306
0.0057924517
-0.32414831
0.01828782
0.20765643
0.027488676
-0.36602328
-0.10693967
-0.0047912781
-0.0034982673
0.0028271763
-0.15712162
0.017582407
0.16977514
0.16866841
0.020251221
0.051906981
0.25875027
0.025143473
0.19806309
-0.30057979
0.11890705
0.025622278
0.012899585
-0.32558147
-0.32210408
0.20961876
0.23646124
0.12533765
0.026690339
0.018329627
0.16000721
-0.038792617
0.016407349
-0.11552035
0.31843181
0.064422521
0.027890444
0.021687296
0.21121844
0.12746366
0.016832836
0.018085084
-0.13176579
0.16519955
-0.025023934
-0.0030099316
0.051585032
0.067479356
0.17331972
0.20620914
0.017865918
0.025689833
-0.016018388
0.015874944
0.037503256
0.0014714568
-0.15812305
0.10573607
0.19984164
0.027377957
0.042716732
0.1555532
0.33685188
0.16457344
0.058882376
-0.20228671
0.13802985
0.23864826
0.18153785
0.22452918
0.034103063
0.25960348
0.02111409
-0.0013694578
0.019796579
0.12631012
0.15154733
0.015613179
0.010932645
0.010943729
0.20263851
0.21479379
0.10961969
0.061504006
0.070554423
0.13164774
0.011085761
0.11069749
-0.11690056
0.24207494
0.0092937936
0.041107138
0.10966761
-0.19319315
0.28112085
0.020815312
0.093692739
0.0020334991
0.046998981
0.027812499
0.20175361
0.010357687
0.015246756
0.044373401
0.010064618
0.064666931
0.052450692
0.27265039
0.12198577
-0.0035290113
0.19417303
0.027210975
0.089237061
0.1749707
0.32443015
0.019639576
0.010392057
-0.36975869
0.0056854972
0.22611212
0.057717355
0.009046021
0.011609091
0.021414915
0.0019493827
0.025047146
0.026394157
0.10673364
0.023114632
0.042674486
0.010099431
0.020700198
0.096941062
0.14901536
0.10679252
0.12385197
0.22885453
-0.11645163
0.030185044
0.26259677
0.24144573
0.023439144
0.028273238
-0.21719901
0.034804805
0.040340399
-0.030900977
-0.23662894
-0.40333871
0.039327961
0.12020407
0.062982311
0.026511369
0.16506171
0.069217809
-0.025617214
0.0029442138
0.26732996
0.1139056
0.045467404
0.20870939
0.058321083
0.028084505
0.037981393
0.0060380948
0.035349575
0.28182086
0.32683766
0.11033329
0.055018029
0.13375285
0.015741041
0.21320391
-0.24824602
0.01259092
0.037279569
0.049265593
0.12868481
0.033856409
0.051483801
0.03843713
0.36127552
-0.021718921
0.044539847
0.22158673
0.002722418
0.014271798
0.040281589
0.12026096
0.03914033
0.026557639
0.035897718
0.0088218417
0.4188126
-0.24131469
0.15229981
0.19976624
-0.0046649525
-0.022790153
0.11982582
0.017778806
0.017349867
0.039757677
0.0096879029
0.050370976
0.037442905
0.25311715
0.011943291
0.026039153
0.015364376
0.042209795
0.036231536
0.0082372903
0.014340142
-0.35919708
0.086040881
0.162992
-0.046556696
-0.045875739
0.026144494
0.018996061
-0.39198376
0.18394038
0.067015559
0.18969541
0.017029406
-0.37577346
0.29057894
0.21702196
0.056988413
-0.16705361
0.022361108
0.23239251
-0.040077809
0.0016061712
0.33870532
0.16207702
0.15834025
0.071126052
-0.036576038
0.0719684
0.0058910837
0.057019963
0.032599015
0.23574397
0.21775975
-0.28868375
0.073374516
0.11958627
-0.17127278
0.0083736959
0.15391293
-0.095053313
0.024553393
0.062086737
-0.089593473
0.030848937
0.056447882
0.013121079
0.023320036
0.027299955
0.39846384
0.045123864
0.0045682191
-0.2137958
0.039055483
-0.028411913
0.19145638
-0.22893362
0.019372511
0.026400976
0.19358309
0.03607085
0.12603281
0.19681753
-0.0032615591
0.021186591
0.12742049
0.16375571
0.16623508
0.011277543
0.0098910429
0.016449091
-0.047683135
0.029550938
0.015925945
0.19371743
0.23935679
0.28258669
-0.076853481
0.024182351
0.22514207
0.041343113
0.16779506
0.16466014
0.05118627
0.056228196
-0.36061243
0.15256612
0.036166554
0.012910364
0.0167647
0.098496345
-0.15463946
-0.24002302
0.1057073
0.037594091
-0.0062747456
0.034616306
0.027685537
0.0036779219
0.017090047
0.20096932
0.032783345
-0.18793338
-0.0018591564
0.017292512
0.053843076
0.049140604
0.13869711
0.12508162
0.014401584
0.17098087
0.17356053
0.24938743
0.053716555
0.081912959
0.15699076
0.18684652
0.19812181
0.21150438
0.22639027
-0.025271078
-0.40312414
0.0315968
0.27088472
0.02151762
0.024414201
0.052163177
0.019201156
0.023154795
0.42752372
0.031552031
0.018872699
-0.20904929
-0.020759925
0.0010896385
-0.016389313
-0.050365172
0.039931457
0.19944887
0.19770171
-0.11864157
-0.28774686
0.0053159699
0.023054399
0.01319453
-0.04453694
-0.24233342
0.12888106
0.073866964
0.018948691
0.017260072
0.078426377
0.12413649
0.28875333
0.16210996
0.15897217
0.030813321
-0.29238882
0.0088101215
0.0071949019
0.041933397
0.01553515
0.022420272
0.0031625129
0.013593184
-0.23031259
-0.28870505
0.028577344
0.20149753
0.15020744
0.197437
0.020306869
0.10546039
0.054791831
0.021808329
-0.11158583
0.024762961
-0.17669993
0.046212775
-0.24155993
0.23947466
0.16375655
-0.22205685
0.23592109
0.046634995
-0.31931274
0.23114621
0.17475597
0.17432432
0.19955428
0.18816725
-0.31188734
0.0042386197
0.0032713821
0.031368038
0.0078823277
-0.26322489
0.19583032
0.18758366
0.069067567
0.056655167
0.096807279
0.041873123
0.011471402
0.22949831
0.03678466
0.077501425
0.040116159
-0.30773769
0.27916087
-0.38152406
0.064163522
0.13667783
-0.37682279
-0.0089750567
0.022162668
-0.28217163
-0.10104967
-0.028853164
0.18374737
0.1878747
0.11184004
0.032241145
-0.1864393
0.23325351
0.27457555
0.26773653
0.17366191
0.013958655
0.18630292
0.22302734
0.28159497
0.20872063
0.32495346
0.02883054
0.1991135
0.2087362
0.015187464
0.018355609
0.023175343
0.19654613
0.23972027
0.19967203
-0.18761747
0.17817607
0.023485353
0.42717928
0.20135284
0.01000618
0.41638399
0.23562281
-0.017864219
0.055238162
-0.19776926
0.41450372
0.023441562
-0.15098442
0.21875963
0.031199933
0.31116271
0.21907184
0.22636557
0.033411121
0.0010860611
-0.19003967
0.22749301
0.42747721
0.17164731
0.037793626
0.18557834
-0.020355128
-0.39509486
0.052210833
-0.079784079
0.42510762
-0.10316459
0.010282059
0.090680358
0.28438521
0.27074191
-0.24842109
-0.015053948
0.04289177
0.22112426
-0.35341382
-0.073465912
0.016459497
-0.017326195
0.17756283
0.17780534
0.017210175
-0.1271148
0.12524653
-0.28652319
0.012523575
-0.11912053
0.19593261
0.051183414
0.020134869
0.015849653
0.38205123
0.079154963
0.16270004
0.011679946
0.048388282
0.18332208
-0.030336826
0.41129755
0.026356121
0.0063660559
0.19966062
0.021359252
-0.025793475
0.018256087
-0.031544576
0.022171042
0.089515646
0.018664195
0.010813218
0.28029822
-0.38135162
0.14086901
0.17285866
0.086619103
0.25465705
0.018359249
0.280216
-0.1852557
0.47256118
-0.19743126
0.097471611
-0.021518399
0.35689788
-0.352711
0.0056523009
0.033203481
0.18331672
0.14206972
-0.30979165
0.18816697
0.18966943
-0.35431037
-0.15700572
0.033724221
-0.00091071733
0.0023905011
-0.15842609
-0.23880843
0.014032293
0.026262168
0.031164804
0.032309108
0.22834421
0.03735052
-0.25131934
0.17719225
0.099284236
0.002302667
0.1407972
0.010321845
0.012165553
0.0023110172
0.12360735
-0.28022369
0.010665671
0.28269798
-0.1197815
0.024297117
0.018973605
-0.11349499
0.19751517
0.22975913
0.0023894974
-0.031006569
0.017093154
0.23110998
0.21341202
-0.037894975
0.1607621
0.013390348
0.099666138
-0.31201947
-0.12538284
0.2020747
-0.17852926
-0.15732142
0.031050513
-0.21308132
0.20407657
0.12919357
-0.020579414
0.021600299
0.016741481
-0.034477332
0.020903258
-0.33727042
0.055440096
0.051424128
0.012484723
0.074530001
0.053662286
-0.043561386
0.10823696
0.11668483
-0.35951938
0.032869827
0.03579493
0.088841568
-0.023789718
0.29105376
0.042271829
0.17514251
0.030634568
0.17674551
-0.11927759
0.036546906
-0.16896305
-0.20931288
0.04651958
0.12034714
0.081199726
0.10010491
0.017974515
0.14282323
0.0066289631
0.22073517
0.023272686
0.03231802
0.18835354
0.22313854
0.032691507
0.27963058
-0.012340144
0.52740682
-0.099125447
-0.036166723
0.019593539
0.012596552
0.085941135
0.24320513
0.007979191
0.023596623
0.030390344
0.046732444
0.054254428
0.016926646
0.024846249
0.017893815
0.0077386342
0.27566344
0.0098709288
0.21458175
0.24069818
0.2276209
0.22335366
0.20711963
0.17733633
0.0082581365
0.078118191
-0.070098234
0.016846272
0.002072656
0.14373215
0.28280563
-0.015548649
-0.071741266
0.044169017
0.23177387
0.035411138
0.23825107
0.19266416
0.092645449
0.32043673
0.1439937
0.12261776
-0.0033588133
0.0089468175
0.0040755986
0.021160357
0.033342168
0.42354541
0.14073326
0.10401358
0.20221956
0.14618359
0.15046825
0.020024749
0.028348251
0.23353743
0.093084427
0.10782252
0.030331254
0.19937632
0.04525531
0.16663713
0.11495658
0.014272064
0.031397584
-0.0031919196
0.21903434
0.095562548
-0.037929714
0.011646206
0.041061728
-0.14560935
0.17340503
0.015634474
0.10233164
0.40821756
0.033427796
0.40599246
-0.31217256
0.047573237
0.15365494
0.026548109
0.183451
0.026952268
0.25627437
0.038809963
0.22041134
0.022697036
-0.0096978692
-0.18976469
-0.065795343
0.16971946
0.021456936
0.0087260158
0.23055841
0.065300611
-0.062077921
-0.080834665
0.1127109
0.21760397
0.18835473
0.032954144
0.15975379
0.12388111
-0.061153603
0.1499776
0.5208339
-0.085202687
0.058620009
0.047186518
0.37467582
0.18143183
-0.25147401
0.070457476
0.023392937
0.098421091
0.060229981
-0.039834793
0.013643096
0.18656353
-0.035851466
0.13919208
-0.059122328
0.0461389
0.013961099
0.016648995
0.028993316
-0.10001556
0.0076558107
0.18669753
0.034595199
0.13853309
0.11313043
0.23913075
0.20611525
0.28325348
0.2235033
-0.14196349
-0.077978401
-0.21105495
-0.020544933
0.043820667
-0.15253824
-0.095386013
0.08327664
0.086381166
0.050272821
0.22970728
-0.086027282
0.0095504837
-0.013825343
0.12562833
-0.31052697
0.12504568
0.034733378
0.040153119
-0.16201756
0.0090854967
0.03135912
0.024524562
0.14081947
0.19118538
0.17108612
0.48688577
0.043749236
0.020372583
0.13614853
0.018345371
-0.16112861
-0.1004202
-0.10198415
-0.071511678
0.066502842
0.27664362
0.35537764
-0.20166968
0.020161225
0.24354308
-0.22471179
0.019511294
0.04924543
0.01810304
-0.26126711
0.19547916
0.14702873
0.18504273
0.010085603
-0.074386583
0.0080439369
0.22525589
0.31777649
0.0205927
0.16624155
0.32999437
0.13410529
0.090142989
0.020698485
0.26107687
-0.006555922
0.017103951
0.039467501
0.022480594
0.12467331
-0.37593456
0.46084616
0.01951062
-0.32294498
0.021693804
0.039357191
0.35326965
-0.087279918
-0.35161732
0.024294491
0.069630896
0.018774107
0.044562426
0.16596533
0.016266125
0.047917778
-0.16507738
0.094614209
0.21478621
0.30337845
-0.0055332327
-0.21430947
0.23348645
0.14254076
0.14676516
0.023284083
-0.22250961
0.014027542
0.023186629
0.14063022
-0.01332926
0.020305072
0.18284642
0.24115294
0.18829812
-0.076498815
0.016769084
0.076794921
-0.10006593
0.038686994
0.30789574
-0.33693014
0.0065251721
0.22858455
0.0023282783
0.24237042
0.052230359
0.10744654
0.19701706
0.34999515
-0.30291307
0.0050699039
0.023409269
0.03393338
0.0080737311
-0.29976138
0.014398606
0.20634944
-0.16667745
0.023136275
0.1923629
0.015305491
0.070361451
-0.17485436
-0.21152135
0.021119065
0.006285969
0.15717704
0.023286875
0.27723064
-0.14656859
-0.019477551
-0.30423394
0.01982776
-0.3578058
0.030226847
0.1056263
0.20288085
0.051849554
0.16207112
0.16325479
-0.053476555
0.012868893
-0.14265891
0.010868796
0.024514836
-0.1381267
0.057004691
0.039581999
0.017688582
0.021896661
-0.1577971
0.021906204
0.39031266
-0.15282124
0.28280333
0.054448963
0.020571464
0.24736028
0.030328817
0.013380676
-0.25858182
0.032140254
0.45900686
0.14647458
-0.12982614
-0.024762604
0.20052307
-0.25506281
0.083281955
0.14748261
0.29497305
0.047128008
0.068988141
0.02020048
0.25370446
0.069022558
0.021788417
0.028094409
-0.069522985
0.0020153323
0.17026347
0.031023887
0.085155524
0.15136097
0.025962445
0.03538514
0.52949566
0.13663243
-0.1655642
-0.21199554
-0.045924563
0.18095797
0.057689951
0.39829525
0.028963819
-0.077553914
-0.20917676
-0.013656169
-0.23093633
-0.088317717
0.039327038
0.0022399665
0.044865913
0.015399697
0.0040155025
0.011688277
0.17857234
0.063198826
-0.1673984
0.48485358
-0.11601211
0.22247334
-0.081436458
0.21015872
0.19753853
0.020669071
0.3124894
-0.35325834
0.069284186
0.20133817
0.017524337
0.022791091
0.16960479
0.0090068947
0.025647823
-0.17090518
-0.16793199
0.034287966
0.018341607
0.020423233
0.01857879
-0.051453031
0.016349084
0.0230178
-0.16780196
0.035456427
0.046196544
0.01466156
0.0013475107
0.045892587
0.096021576
0.11971675
0.025608185
0.1824163
-0.2681269
0.24585818
0.02097549
-0.38029384
0.23598381
0.050218865
-0.26531809
0.031532117
0.041655085
-0.11472556
0.2006128
0.025815587
-0.2197948
0.0004838838
0.27920781
-0.048061361
0.16337672
0.007358097
0.10185591
-0.21464854
-0.28341861
0.021252295
-0.35811058
0.011972643
0.056220721
-0.070923797
0.21677314
0.020250461
0.022090244
0.19876727
0.030719473
-0.096975446
-0.064342175
0.043079614
0.020880364
0.073903471
0.02043139
0.027465092
0.5075697
0.02821862
0.35295662
0.055176746
0.3764206
-0.10776232
-0.22344109
0.028679124
0.18628435
0.19879956
0.26294263
-0.024820845
0.0076030537
0.26920958
0.20321282
0.015830845
-0.32251846
0.022438021
0.24907047
0.19225648
0.0051558979
0.048318785
0.021709317
-0.015734291
0.11587859
0.19179314
-0.33194094
-0.37855472
0.15626092
-0.32973883
0.19026893
0.10753555
0.061300511
0.015236662
0.15652037
0.012209599
0.3966729
0.13025644
0.0041005324
0.012206748
0.24864712
0.30891269
-0.33163586
0.10532436
-0.070844063
-0.23852459
0.46769094
0.038316341
0.14990505
0.20174209
0.028867528
0.0066946008
0.04281174
-0.42973227
0.23364745
0.0069821669
0.017802835
-0.11482892
0.18412332
0.0092125088
-0.074241045
0.027108703
0.014955072
0.028125196
0.038176764
-0.31723528
-0.10364491
0.040499049
0.0077067271
0.14650512
0.09968027
0.24425529
-0.020243444
0.076792519
-0.2724914
0.0010255045
0.21655665
0.061304368
-0.097403176
0.0982507
0.0045004287
-0.38183913
-0.010451835
-0.26549468
-0.14688705
0.03548778
0.21812039
0.21718439
0.023512919
-0.1896535
0.0055517718
0.008015385
-0.32829064
0.26002645
-0.39427381
0.2190114
0.26119567
0.0069994419
0.34216857
0.46698441
0.19636724
0.043497278
0.040508168
-0.29239471
0.057201948
0.27315452
0.17275999
0.065920238
0.096065055
0.32224256
0.28320894
0.015081159
0.0027461502
-0.11814707
0.036501461
0.28150412
0.15421885
0.16029581
-0.14017716
0.032724249
0.042163974
0.2883215
-0.35156791
0.017467078
0.045891118
0.072669138
0.34465887
0.010553619
0.043945086
0.037128003
0.21547583
0.03666834
0.0079069984
-0.14585419
0.016316584
0.036336404
-0.1420019
0.019628355
-0.18093655
0.030978393
-0.43181659
0.10936842
0.015773453
0.18135974
-0.24184828
0.038868765
0.0052526612
0.0016791984
0.029721172
0.044821744
0.17713855
-0.036195489
0.18052618
0.19714713
-0.11094745
-0.17508302
-0.05954051
0.0090631322
0.01143753
0.0052880072
0.04746841
0.015856579
0.18579189
0.054760354
0.017314183
0.095562613
0.25895368
0.11042251
0.31801492
0.012180307
0.022400692
-0.35131802
0.21295764
-0.34877207
0.24903831
0.010631745
-0.025109018
0.078866391
0.10658326
0.038335263
-0.34218083
0.024989353
0.19484604
0.021530657
0.22360491
0.013795628
0.046588005
0.016826064
0.028915829
0.26632684
0.11840065
0.080304308
0.088497197
0.1923571
0.029528425
0.021149062
0.01389439
0.022335141
0.016592333
0.40360823
-0.012833352
0.0043347506
0.002553065
0.23537562
-0.057509604
-0.012180932
0.10433371
0.20712601
-0.34660331
0.026569333
0.016727332
0.21732154
0.026941449
0.18897946
0.020415881
-0.021710659
0.043303775
0.22964984
0.10657144
0.41661531
-0.26678829
0.048269374
0.084833509
-0.077279398
-0.076526035
0.40879113
0.22474046
-0.42946855
-0.13224021
0.026325871
0.018620314
0.25655422
0.0031089982
0.22907589
0.30170665
0.0043198411
-0.0528361
0.27971081
-0.40138091
0.15726182
0.031349016
0.20341645
-0.34869681
-0.028781303
0.017378262
0.15500227
0.15466415
-0.15074477
-0.14278792
0.0089029817
0.032688223
-0.1924084
-0.097182949
0.0039602048
0.018496936
-0.31821963
-0.017894054
0.019269173
-0.049326952
0.032163727
0.023958275
0.15693395
-0.060806183
-0.17855763
0.010441041
0.48244435
0.24665722
0.15974938
0.15773107
-0.086533178
0.01167998
-0.052547292
0.053829785
-0.05802504
0.19657163
0.19444634
-0.29216383
-0.10275035
-0.0077758488
0.20288468
-0.10740373
-0.42507076
0.39775978
0.33520201
0.12341309
0.51040299
-0.36082221
-0.065622471
0.01264585
-0.34415162
0.46176437
0.1643544
-0.17157098
-0.070521434
0.13173028
0.0057523312
0.037749957
0.24095589
0.44155486
-0.021529656
-0.096379486
0.063657492
0.098194037
0.10729121
0.1759614
-0.31013765
0.034497814
-0.083607184
0.17062165
0.020315357
-0.11576424
0.075486667
0.14130568
0.0184511
0.026497264
-0.11645975
0.17871679
0.13421113
-0.30382758
0.20173308
-0.36434618
-0.11410632
0.019882492
0.018608445
0.0025173222
0.23932192
0.22707515
-0.081883308
0.20102414
0.4792859
0.033768938
0.086916298
0.1841956
0.021404002
0.2078391
0.37701134
0.024802631
-0.02733673
0.064228416
-0.23068377
-0.043500811
0.20843931
0.035109375
0.008940357
0.18024122
-0.064154315
0.085054227
0.35178326
-0.35814333
-0.018996995
0.13428406
0.07933252
0.02839159
0.015006457
0.13148741
-0.17299215
0.23442752
0.075662706
0.26414027
-0.16795658
0.02010378
0.27052097
-0.30727721
-0.35781587
0.18252576
-0.16505758
-0.44259448
-0.22709008
-0.22831724
-0.22592592
0.30396389
-0.0062387663
-0.10629837
0.011600435
0.0094018982
0.029099519
0.1009417
0.026732792
-0.23706941
0.02662675
-0.030977839
0.062227343
0.039088954
-0.11134528
0.061408496
0.26002639
0.05506997
0.25243517
0.11662073
0.108416
0.24510626
-0.03174177
-0.3653032
-0.014677376
0.10132334
-0.19586424
0.027830421
0.057818315
0.065701891
0.027480039
0.15017861
0.14750263
0.2614038
0.021130531
-0.015189687
0.17701666
0.044938556
0.023747484
0.00802439
-0.032775099
0.3177704
0.13307901
0.061838118
0.1019854
0.030340914
0.0069499252
0.024868791
0.47763757
0.015344101
-0.4275041
-0.18226188
0.3802336
0.0012337419
0.030261739
0.13143788
0.19548862
0.30269258
0.023942097
0.055059326
-0.073099874
0.23395507
0.16919578
0.20875491
0.0017241421
0.0026743829
0.24355905
-0.01049242
0.011035611
0.052560599
0.061189636
0.014099337
0.066630488
0.38832688
-0.0071204706
0.020094679
-0.34596557
0.11248709