/*--------------------------------*- C++ -*----------------------------------*\
| =========                 |                                                 |
| \\      /  F ield         | foam-extend: Open Source CFD                    |
|  \\    /   O peration     | Version:     4.1                                |
|   \\  /    A nd           | Web:         http://www.foam-extend.org         |
|    \\/     M anipulation  |                                                 |
\*---------------------------------------------------------------------------*/
FoamFile
{
    version     2.0;
    format      ascii;
    class       surfaceScalarField;
    location    "0.7";
    object      phi;
}
// * * * * * * * * * * * * * * * * * * * * * * * * * * * * * * * * * * * * * //

dimensions      [0 3 -1 0 0 0 0];

internalField   nonuniform List<scalar> 
6703
(
5.5008533e-06
7.5141035e-06
-1.3014957e-05
9.9212064e-06
2.738916e-05
-3.1809513e-05
1.3255566e-05
5.6873858e-05
-6.0208218e-05
1.4425031e-05
9.872379e-05
-9.9893255e-05
1.141637e-05
0.00015563292
-0.00015262426
1.1918811e-06
0.00022959045
-0.00021936596
-2.0025962e-05
0.00032109136
-0.00029987352
-5.5162837e-05
0.00042767032
-0.00039253345
-0.00010535989
0.00054513777
-0.00049494072
-0.00016949985
0.00066986004
-0.00060572007
-0.00024509132
0.00080163633
-0.00072604486
-0.00033010075
0.00094447383
-0.00085946441
-0.00042411801
0.0011047083
-0.001010691
-0.0005283745
0.0012888924
-0.0011846359
-0.00064528777
0.0015036259
-0.0013867127
0.0017570406
-0.0016247782
-0.00077755019
1.9661372e-07
7.3174898e-06
7.832148e-07
2.6802559e-05
1.6964726e-06
5.59606e-05
2.6129426e-06
9.780732e-05
2.7325822e-06
0.00015551328
4.8377e-07
0.00023183926
-6.6843444e-06
0.00032825947
-2.271162e-05
0.0004436976
-5.2026505e-05
0.00057445266
-9.8025094e-05
0.00071585862
-0.00016173241
0.00086534364
-0.00024244456
0.001025186
-0.00033970608
0.0012019698
-0.00045430517
0.0014034915
-0.0005881702
0.0016374909
0.001911717
-0.00074284658
4.4463651e-07
6.8728533e-06
1.9241712e-06
2.5323024e-05
4.6848074e-06
5.3199964e-05
8.8184031e-06
9.3673725e-05
1.4071538e-05
0.00015026014
1.9586083e-05
0.00022632471
2.3635234e-05
0.00032421032
2.3220858e-05
0.00044411197
1.426296e-05
0.00058341055
-7.3981559e-06
0.00073751974
-4.4525208e-05
0.00090247069
-9.7844662e-05
0.0010785054
-0.00016713752
0.0012712627
-0.00025249071
0.0014888447
-0.0003555472
0.0017405474
0.0020354647
-0.00047929494
8.5858206e-07
6.0142712e-06
3.7914892e-06
2.2390117e-05
9.4725595e-06
4.7518894e-05
1.8503109e-05
8.4643175e-05
3.1183175e-05
0.00013758008
4.7184312e-05
0.00021032358
6.5161361e-05
0.00030623327
8.2404016e-05
0.00042686932
9.4843339e-05
0.00057097123
9.7800862e-05
0.00073456222
8.7341682e-05
0.00091292987
6.1705522e-05
0.0011041416
2.1396433e-05
0.0013115718
-3.2549568e-05
0.0015427907
-9.9970312e-05
0.0018079682
0.0021153756
-0.00017988122
1.1801265e-06
4.8341447e-06
5.3068515e-06
1.8263392e-05
1.3502703e-05
3.9323043e-05
2.6951267e-05
7.1194611e-05
4.665761e-05
0.00011787374
7.3063453e-05
0.00018391773
0.00010554515
0.00027375157
0.00014192316
0.00039049131
0.00017825614
0.00053463825
0.00020929441
0.00070352395
0.00022974733
0.00089247695
0.00023605375
0.0010978352
0.00022745354
0.001320172
0.00020507934
0.0015651649
0.0001703475
0.0018427
0.0021635652
0.00012215795
1.3569049e-06
3.4772398e-06
6.1983315e-06
1.3421965e-05
1.6023021e-05
2.9498353e-05
3.2577855e-05
5.4639777e-05
5.7652805e-05
9.2798785e-05
9.2678646e-05
0.00014889189
0.00013811871
0.00022831151
0.00019277571
0.00033583431
0.00025330534
0.00047410863
0.00031433724
0.00064249205
0.0003694925
0.00083732169
0.00041319409
0.0010541336
0.00044242979
0.0012909363
0.00045710228
0.0015504924
0.00045914402
0.0018406583
0.0021716406
0.0004510686
1.3819583e-06
2.0952816e-06
6.4094253e-06
8.3944983e-06
1.6822638e-05
1.908514e-05
3.4811349e-05
3.6651066e-05
6.2900799e-05
6.4709336e-05
0.00010361099
0.00010818171
0.00015880932
0.00017311317
0.00022881257
0.00026583106
0.00031153738
0.00039138382
0.00040218828
0.00055184115
0.00049389329
0.00074561667
0.00057933201
0.00096869487
0.00065281777
0.0012174505
0.00071172108
0.0014915891
0.00075653536
0.001795844
0.0021395421
0.00078863389
1.2538272e-06
8.4145438e-07
5.9127832e-06
3.7355423e-06
1.5774996e-05
9.2229271e-06
3.32611e-05
1.9164963e-05
6.143797e-05
3.6532466e-05
0.00010383429
6.5785385e-05
0.00016388522
0.00011306224
0.00024392805
0.00018578824
0.00034396075
0.00029135111
0.00046074577
0.00043505613
0.0005878826
0.00061847984
0.00071705645
0.00083952102
0.00084010455
0.0010944024
0.00095108259
0.0013806111
0.0010474822
0.0016994444
0.0020572521
0.0011297722
9.9388301e-07
-1.5242863e-07
4.7849127e-06
-5.548744e-08
1.302252e-05
9.8532e-07
2.8078115e-05
4.1093682e-06
5.3214205e-05
1.1396376e-05
9.2615815e-05
2.6383774e-05
0.0001511044
5.4573658e-05
0.00023335977
0.00010353286
0.00034232371
0.00018238718
0.00047757018
0.00029980966
0.00063456408
0.00046148594
0.00080529416
0.00066879093
0.00098004684
0.00091964974
0.0011497422
0.0012109157
0.0013080668
0.0015411198
0.0019133354
0.0014519835
6.3210456e-07
-7.8453319e-07
3.1431964e-06
-2.5665793e-06
8.809845e-06
-4.6813285e-06
1.9619479e-05
-6.7002659e-06
3.8602482e-05
-7.586627e-06
7.0184359e-05
-5.1981033e-06
0.00012029787
4.4601431e-06
0.00019571798
2.8112749e-05
0.00030249308
7.5612084e-05
0.00044398035
0.00015832239
0.00061963037
0.00028583593
0.00082357252
0.00046484878
0.0010459419
0.00069728032
0.0012755381
0.00098131953
0.0015036108
0.0013130471
0.0016882744
0.0017286718
1.6821099e-07
-9.5274417e-07
9.6327343e-07
-3.3616417e-06
3.0374187e-06
-6.7554738e-06
7.5935087e-06
-1.1256356e-05
1.6775606e-05
-1.6768725e-05
3.4275663e-05
-2.269816e-05
6.6102724e-05
-2.7366918e-05
0.00012115934
-2.6943863e-05
0.00021097602
-1.4204599e-05
0.0003462828
2.3015608e-05
0.00053039424
0.00010172449
0.00075643869
0.00023880434
0.0010140553
0.00043966375
0.0012903627
0.00070501209
0.0015726909
0.0010307189
0.0014073481
0.0018536173
7.5761537e-07
-1.7103595e-06
1.3274139e-06
-3.9314403e-06
1.9566971e-06
-7.384757e-06
3.1432076e-06
-1.2442866e-05
5.9881778e-06
-1.9613695e-05
1.2680084e-05
-2.9390066e-05
2.7315212e-05
-4.2002046e-05
5.7212997e-05
-5.6841647e-05
0.00011420895
-7.1200549e-05
0.00021455645
-7.7331897e-05
0.0003724894
-5.620846e-05
0.00057690363
3.4390108e-05
0.00080175939
0.00021480799
0.0010415222
0.00046524931
0.0012851131
0.00078712792
0.0011736675
0.0015187937
-5.937619e-06
-7.1559963e-06
1.3093615e-05
-1.2221278e-05
-2.5756067e-05
3.2039726e-05
-2.0139908e-05
-5.2727333e-05
6.0645963e-05
-3.0771652e-05
-8.9907022e-05
0.00010053877
-4.5435694e-05
-0.00013869115
0.00015335519
-6.5755931e-05
-0.00019951112
0.00021983136
-9.3703303e-05
-0.00027141061
0.00029935798
-0.00013146209
-0.00035214478
0.00038990356
-0.00018092711
-0.00043917582
0.00048864084
-0.000243444
-0.00053132051
0.0005938374
-0.00031987419
-0.00062986932
0.00070629951
-0.00041073525
-0.00073817783
0.00082903888
-0.00051639383
-0.00086028405
0.00096594263
-0.00063737893
-0.00099990693
0.001120892
-0.00077541636
-0.0011601694
0.0012982068
-0.0013441255
0.0015060585
-0.00093734936
-1.1484857e-06
-6.0075105e-06
-5.3077302e-06
-2.1596822e-05
-1.3832677e-05
-4.4202386e-05
-2.8352475e-05
-7.5387223e-05
-5.0743403e-05
-0.00011630022
-8.3048323e-05
-0.0001672062
-0.0001273305
-0.00022712843
-0.00018545827
-0.000294017
-0.00025890429
-0.00036572979
-0.00034878633
-0.00044143847
-0.00045626731
-0.00052238834
-0.0005830751
-0.00061137003
-0.0007317878
-0.00071157136
-0.0009057789
-0.00082591583
-0.0011087162
-0.00095723209
-0.001109093
-0.0013437487
-1.3118158e-06
-4.6956947e-06
-6.0230851e-06
-1.6885553e-05
-1.5673831e-05
-3.455164e-05
-3.217322e-05
-5.8887835e-05
-5.772363e-05
-9.0749814e-05
-9.4650888e-05
-0.00013027894
-0.00014514744
-0.00017663188
-0.00021101977
-0.00022814467
-0.00029360991
-0.00028313965
-0.00039402407
-0.00034102431
-0.00051358873
-0.00040282368
-0.00065426127
-0.0004706975
-0.00081880127
-0.00054703136
-0.001010751
-0.00063396609
-0.0012345659
-0.00073341722
-0.00084681962
-0.0014968393
-1.535102e-06
-3.1605927e-06
-7.0409002e-06
-1.1379755e-05
-1.8256221e-05
-2.3336319e-05
-3.7252313e-05
-3.9891743e-05
-6.6319497e-05
-6.168263e-05
-0.00010774804
-8.88504e-05
-0.00016355993
-0.00012081999
-0.00023532645
-0.00015637815
-0.00032423515
-0.00019423096
-0.00043144044
-0.00023381902
-0.00055850479
-0.00027575933
-0.00070767047
-0.00032153181
-0.00088190726
-0.00037279456
-0.0010848647
-0.00043100867
-0.0013204347
-0.00049784721
-0.00057647258
-0.0015907817
-1.6437158e-06
-1.5168769e-06
-7.4723392e-06
-5.5511313e-06
-1.9282396e-05
-1.1526262e-05
-3.9238687e-05
-1.9935452e-05
-6.9724347e-05
-3.1196969e-05
-0.00011311175
-4.5462997e-05
-0.00017150892
-6.2422824e-05
-0.00024663202
-8.1255043e-05
-0.00033992852
-0.00010093446
-0.00045289907
-0.00012084846
-0.00058741356
-0.00014124485
-0.00074586938
-0.00016307599
-0.00093119633
-0.00018746761
-0.0011469091
-0.00021529587
-0.0013982526
-0.00024650371
-0.00027860721
-0.001696118
4.5205133e-07
6.8638734e-06
-7.3159248e-06
1.9576802e-06
2.5293394e-05
-2.6799023e-05
4.7703177e-06
5.3144869e-05
-5.5957507e-05
8.989522e-06
9.3590762e-05
-9.7809966e-05
1.436878e-05
0.00015015201
-0.00015553127
2.0054089e-05
0.00022620215
-0.00023188746
2.4317408e-05
0.00032409514
-0.00032835846
2.4171483e-05
0.00044404123
-0.0004438953
1.5531096e-05
0.00058342795
-0.00057478757
-5.7700306e-06
0.00073765898
-0.00071635785
-4.2511439e-05
0.00090275079
-0.00086600939
-9.5429725e-05
0.0010788229
-0.0010259046
-0.00016431399
0.001271408
-0.0012025237
-0.00024928316
0.0014885757
-0.0014036065
-0.00035189571
0.0017396056
-0.001636993
0.0020338381
-0.0019107034
-0.00047503037
-1.5159374e-06
-9.3948678e-10
-7.064438e-06
-2.6306687e-09
-1.8586033e-05
-4.6668047e-09
-3.8513938e-05
-7.5479695e-09
-6.969925e-05
-1.1656521e-08
-0.00011514466
-1.75841e-08
-0.0001775414
-2.6083389e-08
-0.00025875873
-3.7719651e-08
-0.00035964074
-5.2452252e-08
-0.00048041911
-7.0091017e-08
-0.00062157192
-9.2034258e-08
-0.00078452561
-1.2230647e-07
-0.00097182735
-1.6587587e-07
-0.0011868936
-2.2963336e-07
-0.0014330509
-3.4640875e-07
-6.3584729e-07
-0.0017110222
-1.5244651e-06
1.5235256e-06
-7.1009417e-06
5.5738459e-06
-1.8676201e-05
1.1570593e-05
-3.8690694e-05
2.0006945e-05
-7.000206e-05
3.129971e-05
-0.00011561736
4.559772e-05
-0.00017822847
6.2585017e-05
-0.0002597
8.1433819e-05
-0.00036086436
0.00010111191
-0.00048193125
0.0001209968
-0.00062334186
0.00014131857
-0.00078646365
0.00016299949
-0.00097374477
0.00018711524
-0.0011884244
0.00021445004
-0.0014336534
0.00024488258
0.00027654274
-0.001710832
-1.6503551e-06
3.1738807e-06
-7.5013114e-06
1.1424802e-05
-1.9354459e-05
2.342374e-05
-3.9379834e-05
4.003232e-05
-6.9965013e-05
6.1884889e-05
-0.00011348479
8.9117497e-05
-0.00017204585
0.00012114608
-0.00024735679
0.00015674476
-0.00034084799
0.00019460311
-0.00045399022
0.00023413903
-0.00058860682
0.00027593516
-0.00074702689
0.00032141956
-0.00093209035
0.0003721787
-0.0011472014
0.00042956106
-0.0013972514
0.00049493261
0.00057068064
-0.0016913893
-1.5260253e-06
4.699906e-06
-7.0009501e-06
1.6899727e-05
-1.8156527e-05
3.4579317e-05
-3.705733e-05
5.8933123e-05
-6.5989076e-05
9.0816635e-05
-0.00010724052
0.00013036894
-0.00016283372
0.00017673928
-0.00023433527
0.00022824631
-0.00032291294
0.00028318078
-0.00042967768
0.00034090377
-0.00055612471
0.0004023822
-0.00070441523
0.00046971008
-0.00087744798
0.00054521145
-0.0010788853
0.00063099842
-0.001312828
0.00072887527
0.00083918406
-0.0015813314
-1.2972768e-06
5.9971827e-06
-5.9597302e-06
2.156218e-05
-1.5516216e-05
4.4135804e-05
-3.1864111e-05
7.5281017e-05
-5.7195371e-05
0.00011614789
-9.3827969e-05
0.00016700154
-0.00014394856
0.00022685986
-0.00020935624
0.000293654
-0.000291378
0.00036520254
-0.00039109433
0.00044062009
-0.00050980534
0.0005210932
-0.00064947215
0.00060937689
-0.00081292992
0.00070866923
-0.0010039082
0.00082197671
-0.0012276441
0.00095261121
0.0011070176
-0.0014954777
-1.1453882e-06
7.1425709e-06
-5.2925679e-06
2.570936e-05
-1.379143e-05
5.2634665e-05
-2.826472e-05
8.9754307e-05
-5.0581165e-05
0.00013846434
-8.2776437e-05
0.00019919681
-0.00012691001
0.00027099344
-0.00018485487
0.00035159885
-0.00025810314
0.00043845081
-0.00034781718
0.00053033414
-0.00045525046
0.00062852648
-0.00058231183
0.00073643825
-0.0007319467
0.0008583041
-0.00090827517
0.00099830519
-0.0011159662
0.0011603023
0.0013471153
-0.0013560639
-5.9369148e-06
1.3079486e-05
-1.2229026e-05
3.2001471e-05
-2.0164479e-05
6.0570119e-05
-3.0820535e-05
0.00010041036
-4.5514622e-05
0.00015315843
-6.5868701e-05
0.00021955089
-9.3853844e-05
0.00029897858
-0.00013165978
0.00038940479
-0.00018119694
0.00048798797
-0.00024384736
0.00059298456
-0.00032053119
0.00070521031
-0.00041184773
0.00082775479
-0.00051823338
0.00096468975
-0.00064010957
0.0011201814
-0.00077850306
0.0012986957
0.0015066074
-0.00093799517
7.6454904e-07
9.5612906e-07
-1.7206781e-06
1.3471821e-06
3.3769976e-06
-3.9596306e-06
1.9990847e-06
6.7956263e-06
-7.4475289e-06
3.218599e-06
1.1345728e-05
-1.2565243e-05
6.0997001e-06
1.6950605e-05
-1.9831706e-05
1.2804069e-05
2.3047399e-05
-2.9751767e-05
2.7358774e-05
2.8011415e-05
-4.256612e-05
5.6966222e-05
2.8068809e-05
-5.7676257e-05
0.00011329709
1.6073123e-05
-7.2403987e-05
0.00021252227
-2.0070388e-05
-7.9154796e-05
0.00036925348
-9.7427072e-05
-5.9304135e-05
0.00057457682
-0.00023313825
2.7814907e-05
0.0007988552
-0.00043280653
0.00020852815
0.0010370738
-0.00069686388
0.00045864525
0.0012774601
-0.0010201673
0.00077978102
-0.0013923184
0.0011611886
0.00150859
1.6206733e-07
7.9406173e-07
9.3315457e-07
2.6059104e-06
2.9564803e-06
4.7723006e-06
7.4248585e-06
6.8773501e-06
1.6471231e-05
7.9042325e-06
3.3778712e-05
5.7399183e-06
6.5362058e-05
-3.5719322e-06
0.00012014844
-2.671757e-05
0.00020976459
-7.3543027e-05
0.00034522319
-0.00015552899
0.00053004745
-0.00028225133
0.00075742659
-0.0004605174
0.0010169777
-0.00069235762
0.0012962066
-0.00097609279
0.001584109
-0.0013080697
-0.001685823
0.0018776136
6.2626568e-07
1.6779605e-07
3.1177032e-06
1.1447283e-07
8.7458687e-06
-8.5586489e-07
1.949261e-05
-3.869391e-06
3.8385444e-05
-1.0988602e-05
6.9857119e-05
-2.5731756e-05
0.00011987429
-5.3589104e-05
0.00019526915
-0.00010211243
0.00030216956
-0.00018044344
0.0004439464
-0.00029730582
0.00062015071
-0.00045845564
0.00082496952
-0.00066533621
0.0010485329
-0.00091592097
0.0012795274
-0.0012070873
0.0015088514
-0.0015373937
-0.0019098641
0.0017328925
9.8969666e-07
-8.219006e-07
4.7664403e-06
-3.6622708e-06
1.2977241e-05
-9.066666e-06
2.7993175e-05
-1.8885325e-05
5.3081024e-05
-3.6076451e-05
9.2437851e-05
-6.5088583e-05
0.00015090437
-0.00011205563
0.00023320449
-0.00018441255
0.00034233801
-0.00028957696
0.00047793284
-0.00043290065
0.00063548549
-0.00061600829
0.00080697475
-0.00083682546
0.00098261468
-0.0010915609
0.001153168
-0.0013776407
0.0013120487
-0.0016962744
-0.002053723
0.0014559076
1.2515669e-06
-2.0734675e-06
5.9039011e-06
-8.3146049e-06
1.5755626e-05
-1.891839e-05
3.3230405e-05
-3.6360105e-05
6.1403023e-05
-6.4249069e-05
0.00010381787
-0.00010750342
0.00016393582
-0.00017217358
0.00024412916
-0.00026460589
0.00034443353
-0.00038988133
0.00046164005
-0.00055010717
0.00058935406
-0.00074372231
0.00071922978
-0.00096670118
0.00084302563
-0.0012153568
0.00095467183
-0.0014892869
0.0010515072
-0.0017931097
-0.0021361678
0.001133952
1.3817158e-06
-3.4551833e-06
6.40988e-06
-1.3342769e-05
1.682798e-05
-2.933649e-05
3.4832307e-05
-5.4364432e-05
6.2959674e-05
-9.2376436e-05
0.00010374813
-0.00014829188
0.00015908945
-0.00022751489
0.00022932763
-0.00033484407
0.00031240264
-0.00047295634
0.00040352974
-0.00064123427
0.00049582683
-0.0008360194
0.00058193252
-0.0010528069
0.00065608728
-0.0012895115
0.00071557811
-0.0015487777
0.00076084148
-0.0018383731
-0.0021687104
0.00079338408
1.3591599e-06
-4.8143432e-06
6.2101048e-06
-1.8193714e-05
1.605726e-05
-3.9183645e-05
3.2656401e-05
-7.0963572e-05
5.7810471e-05
-0.00011753051
9.2967324e-05
-0.00018344874
0.00013860984
-0.00027315741
0.00019355894
-0.00038979317
0.00025448179
-0.00053387919
0.00031600711
-0.00070275959
0.00037173842
-0.0008917507
0.00041605437
-0.0010971228
0.00044587946
-0.0013193366
0.00046106836
-0.0015639666
0.00046352661
-0.0018408314
-0.0021610323
0.00045584856
1.1846725e-06
-5.9990157e-06
5.3286412e-06
-2.2337683e-05
1.3561662e-05
-4.7416666e-05
2.7077228e-05
-8.4479138e-05
4.689301e-05
-0.00013734629
7.3465027e-05
-0.00021002075
0.0001061834
-0.00030587578
0.00014287902
-0.00042648878
0.00017961343
-0.0005706136
0.00021112877
-0.00073427493
0.00023211756
-0.00091273949
0.00023897663
-0.0011039819
0.00023090051
-0.0013112605
0.00020901187
-0.001542078
0.00017473926
-0.0018065587
-0.0021134187
0.00012712557
8.6485773e-07
3.8205695e-06
9.5487729e-06
1.8660397e-05
3.1466118e-05
4.7647517e-05
6.5866874e-05
8.3419322e-05
9.6233673e-05
9.9617716e-05
8.9629016e-05
6.4470003e-05
2.4617506e-05
-2.888478e-05
-9.583791e-05
-0.00017541847
2.0355177e-07
-7.5194765e-06
8.1339483e-07
-2.7408866e-05
1.771645e-06
-5.6915757e-05
2.7607761e-06
-9.8799097e-05
2.9857935e-06
-0.00015575628
8.7793123e-07
-0.0002297796
-6.1149722e-06
-0.00032136555
-2.1930934e-05
-0.00042807934
-5.1002366e-05
-0.00054571614
-9.6724969e-05
-0.00067063525
-0.00016013069
-0.00080260367
-0.00024049269
-0.0009455426
-0.00033736899
-0.0011056474
-0.00045162183
-0.0012893537
-0.00058530587
-0.001503309
-0.0017557501
-0.00074025922
5.5094695e-06
-1.3028946e-05
9.9478306e-06
-3.1847227e-05
1.3314858e-05
-6.0282784e-05
1.4535033e-05
-0.00010001927
1.1595954e-05
-0.0001528172
1.4573208e-06
-0.00021964097
-1.9662671e-05
-0.00030024556
-5.4718548e-05
-0.00039302347
-0.00010485283
-0.00049558186
-0.0001689354
-0.00060655267
-0.0002444454
-0.00072709367
-0.00032932047
-0.00086066753
-0.00042316998
-0.0010117979
-0.00052735729
-0.0011851664
-0.00064437128
-0.001386295
-0.0016239173
-0.00077620402
-8.0040409e-07
-9.1393197e-07
1.7143361e-06
-1.2704222e-06
-3.4755339e-06
3.945552e-06
-1.1830588e-06
-7.511275e-06
7.4239116e-06
-9.4523896e-08
-1.3632647e-05
1.2544112e-05
2.6581715e-06
-2.261633e-05
1.9863634e-05
8.0224977e-06
-3.5341159e-05
2.9976833e-05
1.7320986e-05
-5.2617208e-05
4.3318719e-05
3.241589e-05
-7.47929e-05
5.9697996e-05
5.6152867e-05
-0.00010102622
7.728924e-05
9.3728559e-05
-0.00012805522
9.0479532e-05
0.00015660935
-0.00014804854
8.5167752e-05
0.00027701931
-0.00014462688
2.4216915e-05
0.00048119516
-8.5160963e-05
-0.00011901488
0.00075058458
6.3145573e-05
-0.000332535
0.0010466945
0.00031930276
-0.0006154127
0.00065968072
-0.00096393996
0.0013509538
4.0263238e-07
-1.3165644e-06
1.8637757e-06
-4.9366772e-06
4.8908403e-06
-1.053834e-05
1.0140106e-05
-1.8881912e-05
1.8413096e-05
-3.088932e-05
3.0629199e-05
-4.7557262e-05
4.7761754e-05
-6.9749763e-05
7.0786459e-05
-9.7817604e-05
0.00010079953
-0.00013103929
0.00013970502
-0.00016696071
0.00019235814
-0.00020070167
0.00027172537
-0.0002239941
0.00040925834
-0.00022269394
0.00064022893
-0.00016782502
0.00097012424
-1.0592549e-05
0.00026471498
0.00136509
4.715097e-07
-1.788074e-06
2.1098763e-06
-6.5750438e-06
5.3542321e-06
-1.3782695e-05
1.0679573e-05
-2.4207253e-05
1.8517582e-05
-3.8727329e-05
2.9140071e-05
-5.8179751e-05
4.2524078e-05
-8.313377e-05
5.8251912e-05
-0.00011354544
7.5571543e-05
-0.00014835892
9.387279e-05
-0.00018526196
0.00011381282
-0.00022064169
0.00013938739
-0.00024956868
0.0001816701
-0.00026497665
0.00026837995
-0.00025453486
0.00044998752
-0.00019220012
-1.2479147e-05
0.00072718164
1.2338369e-07
-1.9114577e-06
4.6927591e-07
-6.920936e-06
9.9987182e-07
-1.4313291e-05
1.5726473e-06
-2.4780028e-05
1.8422284e-06
-3.899691e-05
1.1490043e-06
-5.7486527e-05
-1.5887175e-06
-8.0396048e-05
-7.9148207e-06
-0.00010721934
-1.9686838e-05
-0.0001365869
-3.859706e-05
-0.00016635174
-6.5314032e-05
-0.00019392472
-9.8337539e-05
-0.00021654517
-0.00013239833
-0.00023091586
-0.00015490494
-0.00023202825
-0.00013491715
-0.00021218791
-0.0001662335
1.8837211e-05
-5.6782068e-07
-1.3436371e-06
-2.6256416e-06
-4.863115e-06
-6.8973919e-06
-1.0041541e-05
-1.4347147e-05
-1.7330273e-05
-2.6215288e-05
-2.7128769e-05
-4.4058624e-05
-3.9643191e-05
-6.9771716e-05
-5.4682956e-05
-0.00010550826
-7.1482788e-05
-0.00015336725
-8.8727911e-05
-0.0002148107
-0.00010490829
-0.00028994248
-0.00011879294
-0.00037695786
-0.00012952979
-0.00047172873
-0.00013614499
-0.0005669701
-0.00013678687
-0.00065059629
-0.00012856173
-0.00010953484
-0.00070729496
-1.2604286e-06
-8.3208463e-08
-5.8249138e-06
-2.9862983e-07
-1.5254289e-05
-6.1216561e-07
-3.1536808e-05
-1.047754e-06
-5.7043378e-05
-1.6221989e-06
-9.4350694e-05
-2.3358747e-06
-0.00014587387
-3.1597815e-06
-0.00021333348
-4.0231761e-06
-0.00029725472
-4.8066701e-06
-0.0003968198
-5.3432124e-06
-0.00051018888
-5.4238594e-06
-0.00063491717
-4.8015056e-06
-0.00076787378
-3.1883804e-06
-0.00090441439
-2.4625742e-07
-0.0010373615
4.3853618e-06
1.0660008e-05
-0.0011575563
-1.2998389e-06
1.2166304e-06
-6.000137e-06
4.4016683e-06
-1.5700219e-05
9.0879164e-06
-3.2434132e-05
1.5686159e-05
-5.861675e-05
2.456042e-05
-9.685226e-05
3.5899635e-05
-0.00014954446
4.9532423e-05
-0.00021833871
6.4771064e-05
-0.00030360498
8.0459601e-05
-0.00040429843
9.5350241e-05
-0.00051832934
0.00010860705
-0.00064308641
0.00011995556
-0.00077552361
0.00012924882
-0.00091155359
0.00013578372
-0.0010453742
0.00013820596
0.00013553137
-0.0011702456
-6.359415e-07
1.8525719e-06
-2.9367092e-06
6.702436e-06
-7.6995029e-06
1.385071e-05
-1.5971163e-05
2.3957819e-05
-2.9073723e-05
3.766298e-05
-4.8618924e-05
5.5444836e-05
-7.6488548e-05
7.7402048e-05
-0.00011471955
0.00010300207
-0.00016518111
0.00013092116
-0.00022897921
0.00015914834
-0.00030574383
0.00018537167
-0.00039308309
0.00020729482
-0.00048618579
0.00022235152
-0.00057692589
0.00022652383
-0.00065149911
0.00021277918
0.00017753666
-0.0006935044
6.1041964e-08
1.79153e-06
1.8586988e-07
6.5776081e-06
2.6825139e-07
1.3768329e-05
8.2283157e-08
2.4143787e-05
-8.1094065e-07
3.8556204e-05
-3.1659242e-06
5.7799819e-05
-8.1448036e-06
8.2380927e-05
-1.7331387e-05
0.00011218865
-3.2548528e-05
0.0001461383
-5.5340263e-05
0.00018194008
-8.6068655e-05
0.00021610007
-0.00012269832
0.00024392448
-0.00015906909
0.00025872229
-0.00018140451
0.00024885925
-0.00015907053
0.0001904452
2.5083825e-05
-6.6176937e-06
4.3619926e-07
1.3553307e-06
1.9441806e-06
5.0696267e-06
4.9149645e-06
1.0797545e-05
9.7607074e-06
1.9298045e-05
1.6835391e-05
3.148152e-05
2.6317045e-05
4.8318166e-05
3.8070741e-05
7.0627231e-05
5.1558392e-05
9.8701003e-05
6.593054e-05
0.00013176615
8.0512512e-05
0.00016735811
9.5941287e-05
0.00020067129
0.00011623721
0.00022362856
0.00015252234
0.00022243716
0.00023256067
0.00016882092
0.00040831815
1.4687729e-05
-0.00025376726
0.00068716923
4.1000797e-07
9.4532276e-07
1.8918463e-06
3.5877884e-06
4.9483458e-06
7.7410452e-06
1.0220672e-05
1.4025718e-05
1.8478909e-05
2.3223283e-05
3.0587276e-05
3.6209799e-05
4.743548e-05
5.3779027e-05
6.9890839e-05
7.6245644e-05
9.8932352e-05
0.00010272464
0.00013635408
0.00012993638
0.0001868847
0.00015014068
0.00026330207
0.00014721119
0.00039711161
8.8627613e-05
0.00062478336
-5.8850835e-05
0.00095305831
-0.00031358722
-0.00064690694
0.001346198
-7.7983403e-07
1.7251568e-06
-1.1677422e-06
3.9756966e-06
-9.1875236e-07
7.4920554e-06
4.2844236e-07
1.2678524e-05
3.5467281e-06
2.0104997e-05
9.3780392e-06
3.0378488e-05
1.9214694e-05
4.3942373e-05
3.4854944e-05
6.0605394e-05
5.9034967e-05
7.8544614e-05
9.6761111e-05
9.2210233e-05
0.00015910165
8.7800139e-05
0.0002762028
3.0110032e-05
0.0004779196
-0.00011308918
0.0007455599
-0.00032649114
0.0010406493
-0.00060867664
-0.00095393128
0.0013476737
2.5648695e-07
-6.4528939e-08
6.1838811e-07
1.1354965e-06
1.6696659e-06
1.8546022e-06
9.596675e-07
-2.1689925e-06
-9.1217467e-06
-2.1857251e-05
-4.26918e-05
-7.4401416e-05
-0.00012040268
-0.00018485724
-0.00027287415
-0.00039104492
2.5716772e-07
-6.4669271e-08
6.2034596e-07
1.1398394e-06
1.6778276e-06
1.8682205e-06
9.8063751e-07
-2.1392655e-06
-9.0802814e-06
-2.1795559e-05
-4.2589717e-05
-7.4218365e-05
-0.00012007364
-0.00018434796
-0.00027243615
-0.00039029495
2.0544702e-08
-4.478707e-09
6.507124e-08
1.783524e-07
4.5164342e-07
1.0783638e-06
2.4546166e-06
5.3837536e-06
1.152438e-05
2.4579817e-05
5.3075822e-05
0.00011100076
0.00020643973
0.00033859384
0.00050969822
0.00071695551
1.8088323e-08
-3.9765344e-09
5.7242902e-08
1.5848849e-07
4.0842781e-07
9.9519474e-07
2.3118681e-06
5.1682172e-06
1.1256909e-05
2.4404544e-05
5.3363837e-05
0.00011197086
0.00020776397
0.00034047828
0.00051219349
0.00072192103
0.0011155782
-0.0038913706
0.0027757924
0.0072192547
-0.0075647586
0.00034550387
0.0011215952
-0.0031815728
0.0020599775
0.0072192547
-0.0022039737
0.00040735688
0.0017966168
-0.0083314539
0.0050549595
0.0032764944
-0.001251176
0.0044947038
-0.0032435278
0.0073751067
0.0031823942
-0.010557501
0.0076764508
0.0022495566
-0.0099260074
0.0013291506
-0.0017201956
-0.0019237964
0.0015335015
0.0035534945
0.006639828
-0.010193323
-0.0036301
-0.0038415456
0.0074716456
-0.0082724552
0.0037677844
0.0045046708
-0.0016018286
0.0040623108
-0.0024604822
0.0043257055
-0.00025728964
-0.0040684158
0.0076891518
-0.0079073225
0.00021817075
0.00046451027
0.0021534058
-0.0026179161
0.0012546566
-0.0019083124
0.00065365584
0.00655002
-0.0022657307
-0.0042842893
-0.0011759325
-0.0010280412
-0.0077007429
0.0040706429
-0.0094456252
0.0095196178
-7.3992609e-05
0.0007790561
0.0085257751
-0.0093048312
4.3483155e-05
-0.0056960701
0.005652587
0.0047690607
0.0010822709
-0.0058513317
-0.0041031541
-0.0061657697
0.010268924
0.0066565832
-0.002081752
-0.0045748312
0.0014364295
0.0069222899
-0.0083587194
-0.0026232881
0.005880228
-0.0032569399
0.0067814471
-0.0020123864
0.0020070189
-0.001513415
-0.00049360397
-0.00019361351
0.0086169916
-0.0084233781
0.0068697894
3.4331568e-05
-0.006904121
0.001063878
-0.0061449539
0.005081076
0.0088817907
-0.0075175596
-0.0013642311
0.0078373242
-0.0082990483
0.00046172416
-0.0048069318
0.0058708098
0.0057700848
-0.0034613586
-0.0023087262
-0.0089752037
0.001700276
0.0072749277
0.0015940416
-0.0029252592
0.0013312175
0.010222167
-0.0044200657
-0.0058021015
0.0073751067
-0.0026504889
0.0059259968
-0.0032755079
0.0076764508
-0.00081685407
0.0036782515
-0.0028613975
-0.002129518
0.0069590769
-0.0048295589
-0.0098402167
0.0041739477
0.005666269
-0.0073751067
0.011095577
-0.0037204704
-0.0076764508
0.011184971
-0.0035085202
0.0038730524
-0.0010471627
-0.0028258898
-0.0037985696
0.0016943461
0.0021042236
0.001352296
-0.0026748547
0.0013225588
0.0008685477
0.0012965458
-0.0021650935
-0.0037563731
0.0062992838
-0.0025429106
0.00053358917
0.0060915664
-0.0066251556
0.00087968457
-0.0019541656
0.001074481
-0.0055866435
0.0036067108
0.0019799327
-0.010554375
0.0012131866
0.0093411882
0.0090441355
-0.0034701353
-0.0055740002
0.0081372032
0.0009069323
0.0054484754
0.0043779004
-0.0098263758
0.0050805532
0.004635674
-0.0097162273
-0.0024523457
0.0052114221
-0.0027590764
0.00045225668
-0.0044604912
0.0040082346
-0.006820202
0.0071700122
-0.00034981023
0.0042997071
-0.0080286322
0.0037289252
0.0045222065
0.0022306234
-0.0067528298
-0.0011741277
0.0065364816
-0.0053623539
-0.009478236
0.007348718
-0.0026577581
0.0069297841
-0.004272026
0.0020876961
0.0022380093
-0.0047552929
0.0042239735
0.00053131938
0.0049315834
0.0062823186
-0.011213902
0.0086858735
-0.008049702
-0.00063617157
0.0005543748
-0.0031208543
0.0057140935
-0.0025932392
0.0068205583
-0.0031223001
-0.0036982583
0.0095043266
-0.0085626362
-0.00094169043
0.0079963333
-0.0070261823
-0.00097015093
0.0028886131
-0.0047798231
0.00189121
-0.0026025217
0.0008326527
0.001769869
0.0011081417
-0.0037314298
-0.010162603
0.0070048344
0.0031577689
0.0024731692
0.0052159825
0.0025567722
-0.0096165028
0.0070597306
-0.0045728152
0.0077095681
-0.0031367529
-0.0010047949
-0.0061784613
0.0071832563
0.0033384925
-0.0022370157
-0.0011014768
0.00045978761
0.0082260859
0.0056455574
0.00037777871
-0.0060233362
-0.0077608283
0.002979446
0.0047813823
0.00055768603
0.0035939309
-0.0041516169
0.0031726512
0.0025974335
0.0044085991
0.0024672461
-0.0068758452
0.0046205216
-0.0018446191
-0.0027759024
-0.0048132263
-0.0054435222
0.0030203446
-0.0018987494
-0.00059649611
-0.0020235589
0.002620055
-0.0029502812
0.0056822615
-0.0027319803
-0.0030992699
0.0080308532
-0.005876543
0.0077451179
-0.0018685749
-0.0061923127
-0.0015685157
-6.4120087e-05
0.0079014443
0.0086711873
-0.0079889902
-0.00068219708
-0.0054898788
-0.0027825764
-0.011401146
0.0075023783
0.0038987681
-0.0099958053
0.0071025135
0.0028932917
0.0059281195
-0.0025582481
-0.0033698714
0.001126994
-0.0037774829
0.0018549231
-0.0056112962
-2.471364e-05
0.0042708941
-0.0042461805
0.0031697194
-0.0043438471
-0.0023111703
0.003905212
0.0018115177
0.0047385023
0.0064644346
0.003039892
0.0038242379
-0.0038489515
0.0030456734
0.0072642364
-0.01030991
0.010135939
-0.005759234
-0.0043767051
-0.002253908
0.0048202614
-0.0025663534
-0.00015539656
0.0015076926
0.0020154563
-0.0011469086
0.00058673672
-0.00027371987
-0.00031301685
0.0095818065
-0.00977542
0.00057500347
0.00066991359
-0.0012449171
-0.00049382228
-0.00021347268
-0.0077638351
0.0083244804
-0.00056064529
-0.0021091198
0.0015861238
0.00052299603
0.0044021982
-0.0045273356
0.00012513733
-0.0056146173
0.0051502009
0.00046441644
0.0018949484
-0.0010152639
-0.00058476886
0.0034468176
-0.0028620487
-0.0048609001
0.0087282986
-0.0038673985
0.0035604489
0.0066617182
0.0078406767
-0.0035409697
0.0034163253
0.0025117942
-0.0035061836
0.0026893295
0.0065597202
-0.0075645151
-0.0034454752
0.0028489791
0.0060306541
0.0026405332
0.0052620289
-0.010830804
0.0055687755
0.0030052477
0.0019059021
-0.0014985452
-0.0039994318
0.0051150099
0.0063469091
-0.0063469091
-0.0019951601
-0.0016452556
0.0072908131
0.0014438969
-0.0045647513
-0.00041287501
0.0061634015
-0.0057505265
-0.0041071044
0.0095555797
-0.0042786735
0.0093592267
0.008787102
-0.0051926864
-0.0035944156
0.0041628003
0.0029941051
-0.0052480131
0.0060135198
-0.0077933538
0.001779834