/*--------------------------------*- C++ -*----------------------------------*\
| =========                 |                                                 |
| \\      /  F ield         | foam-extend: Open Source CFD                    |
|  \\    /   O peration     | Version:     4.1                                |
|   \\  /    A nd           | Web:         http://www.foam-extend.org         |
|    \\/     M anipulation  |                                                 |
\*---------------------------------------------------------------------------*/
FoamFile
{
    version     2.0;
    format      ascii;
    class       volVectorField;
    location    "0.7";
    object      U;
}
// * * * * * * * * * * * * * * * * * * * * * * * * * * * * * * * * * * * * * //

dimensions      [0 1 -1 0 0 0 0];

internalField   nonuniform List<vector> 
4242
(
(0.056667646 0.051535787 1.4014767e-19)
(0.17135 0.15566649 9.6670213e-22)
(0.29601049 0.26760068 -1.601431e-19)
(0.42766566 0.38434443 1.4673647e-19)
(0.5614226 0.50068243 2.9206083e-21)
(0.69046764 0.60894913 6.3945771e-22)
(0.80684858 0.69978553 0)
(0.9004627 0.76207327 6.7244308e-20)
(0.96595926 0.78986692 -1.089528e-19)
(1.0043648 0.78466159 4.0338889e-20)
(1.0223456 0.75458317 -1.9004044e-20)
(1.0283472 0.70974543 1.5619723e-20)
(1.0290592 0.65781167 5.5891211e-21)
(1.0287955 0.60260057 -1.1444026e-21)
(1.0303895 0.5457681 5.7577036e-21)
(1.0324002 0.49219654 0)
(0.061903059 0.041379313 0)
(0.18854488 0.12616427 -2.5193649e-21)
(0.32718861 0.21924076 3.0403015e-19)
(0.47500253 0.3186002 -2.7713972e-19)
(0.62693865 0.42059934 -5.1818394e-21)
(0.77541491 0.51960119 1.9801355e-19)
(0.91072053 0.60796653 -1.0227856e-20)
(1.0214015 0.67592513 -2.5407977e-19)
(1.0990889 0.71519852 2.3713202e-20)
(1.1424582 0.72301325 7.3015049e-20)
(1.1581933 0.70402115 0)
(1.1571384 0.66744685 -5.2723164e-21)
(1.1488293 0.62188641 -2.5772043e-21)
(1.1391072 0.57241101 -1.4694185e-20)
(1.1309468 0.52130185 1.697755e-20)
(1.1237687 0.47185851 2.1971766e-21)
(0.064550713 0.031925211 -2.2389193e-22)
(0.19743355 0.097906959 -9.4088198e-19)
(0.34405369 0.17139275 4.4287407e-19)
(0.50206709 0.25130685 -3.5287361e-21)
(0.66692309 0.33536733 -3.463537e-19)
(0.83126333 0.41972011 2.9690747e-19)
(0.98481956 0.49868054 -4.3631582e-21)
(1.1153833 0.5648411 6.9917274e-21)
(1.211979 0.6105272 -2.2236387e-21)
(1.2693947 0.63069662 -8.1503098e-21)
(1.2907387 0.62543353 7.4283126e-20)
(1.2867987 0.60094427 -5.4723484e-20)
(1.2705611 0.56529794 -7.1936091e-20)
(1.250817 0.52427244 6.0161235e-20)
(1.2317899 0.48129418 -4.5798723e-21)
(1.2147274 0.43911237 -1.009048e-20)
(0.061968048 0.021231972 -1.0269586e-21)
(0.19102289 0.065923038 -1.2236001e-21)
(0.33545935 0.11725356 -2.7630599e-19)
(0.49391214 0.17506953 2.5738215e-19)
(0.66290334 0.23837056 -3.663584e-21)
(0.83602031 0.30497086 1.913858e-19)
(1.0034771 0.3710921 -1.4871799e-19)
(1.1527037 0.43124982 -2.4754762e-19)
(1.2707947 0.47892525 1.4581707e-20)
(1.3487874 0.50841325 3.0622716e-19)
(1.385671 0.5171926 -1.1607304e-19)
(1.3894224 0.5075821 0)
(1.3730329 0.48518714 5.6709799e-21)
(1.3476832 0.45513909 -4.092441e-20)
(1.3206592 0.42226948 1.9593718e-20)
(1.294225 0.39021931 -3.2281822e-20)
(0.053880198 0.010978574 1.0270552e-21)
(0.16818255 0.034912874 -3.2985007e-19)
(0.29906422 0.064119803 3.1147799e-19)
(0.44664637 0.099171214 -2.0840575e-21)
(0.60921905 0.14017815 5.6406986e-21)
(0.78215124 0.18652713 -1.6915247e-21)
(0.9569953 0.23638942 -1.8224101e-19)
(1.1214993 0.28635091 1.4537789e-21)
(1.2614263 0.33152563 1.0958244e-19)
(1.3644699 0.36654294 -8.3637086e-20)
(1.4249023 0.38732332 6.8136419e-20)
(1.4462199 0.39288335 0)
(1.4392662 0.38554423 3.5926155e-20)
(1.4165077 0.36886819 -2.5104669e-20)
(1.3878081 0.34674471 6.8132449e-21)
(1.3573371 0.32255317 0)
(0.041842164 0.0030325443 -1.4387716e-19)
(0.13296966 0.010377208 8.6142186e-20)
(0.24072068 0.021137661 1.6108773e-19)
(0.36686375 0.036192303 -1.462472e-19)
(0.5119201 0.056319812 -1.472664e-21)
(0.67389859 0.082088855 5.72311e-20)
(0.8468822 0.11341944 4.8439223e-20)
(1.0202182 0.14907448 -1.2016877e-21)
(1.1794365 0.18632544 -1.4048751e-21)
(1.3095808 0.22116889 -6.8851102e-20)
(1.400099 0.24931566 7.0240648e-20)
(1.4488041 0.26766499 -2.5604856e-21)
(1.4621914 0.27535057 -6.5840077e-21)
(1.4515963 0.27336764 -1.4046987e-20)
(1.4284355 0.26403779 -9.0981331e-24)
(1.3999636 0.25045145 5.5243103e-21)
(0.027827886 -0.0015373349 -6.927667e-20)
(0.090986724 -0.0042670652 -8.2992171e-20)
(0.16934335 -0.0055268791 2.3482149e-19)
(0.26605606 -0.0045977777 -1.4218946e-19)
(0.3838442 -0.00064039128 6.4799625e-20)
(0.52378156 0.0073920853 6.6705484e-24)
(0.6835405 0.020531648 9.2330155e-20)
(0.85569273 0.039389938 -4.0666755e-20)
(1.027346 0.063604697 -4.7067207e-21)
(1.1823822 0.091407359 2.1396241e-20)
(1.3061263 0.1197321 -3.2408673e-20)
(1.390267 0.14500232 2.541489e-20)
(1.4351879 0.16422959 -6.7832452e-21)
(1.448385 0.17568109 -2.7756065e-20)
(1.4405319 0.17917009 1.0346829e-20)
(1.4209987 0.17582134 1.2848874e-20)
(0.014077716 -0.0025482716 -1.4740185e-21)
(0.048858504 -0.0081568124 3.0794598e-19)
(0.095980701 -0.013842906 -2.8911768e-19)
(0.15937432 -0.019375324 2.6024256e-19)
(0.24337573 -0.024387785 -2.3458479e-19)
(0.35185725 -0.028146103 0)
(0.486522 -0.029480657 1.695008e-19)
(0.64459359 -0.026838559 -1.3767955e-19)
(0.81700065 -0.018664882 -3.0558923e-21)
(0.98885429 -0.0041554128 0)
(1.1431324 0.016025 -1.261233e-20)
(1.2660481 0.039587616 6.2865579e-21)
(1.3510875 0.063175622 -4.1365701e-20)
(1.399708 0.083291166 7.5477284e-20)
(1.4191013 0.097380506 -5.1805096e-20)
(1.418698 0.10482276 -1.3658764e-20)
(0.0026579202 -0.00071100382 9.4967715e-22)
(0.012962287 -0.0031289151 -1.1336352e-21)
(0.03176601 -0.0063743318 0)
(0.062962257 -0.010767531 5.3702135e-21)
(0.11149218 -0.01665599 3.0356187e-21)
(0.18300075 -0.024182498 1.8362395e-19)
(0.28265849 -0.03302992 -1.6117505e-19)
(0.41290591 -0.042028468 0)
(0.5705456 -0.048957992 6.9802641e-22)
(0.74495956 -0.051030069 -9.6407224e-21)
(0.91970738 -0.046043797 8.2799485e-21)
(1.0774669 -0.033558012 5.4518573e-21)
(1.2053327 -0.015329483 9.3923916e-21)
(1.2976184 0.0051581535 5.9144769e-20)
(1.3556543 0.023985621 -6.915859e-20)
(1.3860671 0.038939828 3.6505829e-20)
(-0.005005005 0.0025759684 0)
(-0.012067945 0.0067847399 4.7869931e-19)
(-0.014774206 0.010338742 -8.9897531e-19)
(-0.009989658 0.012545104 4.0713719e-19)
(0.0067997575 0.012445627 -3.0435726e-21)
(0.041697053 0.0089340701 -9.9155083e-21)
(0.1017949 0.0011097636 2.7076057e-19)
(0.19319307 -0.011066663 -2.2312119e-19)
(0.31934548 -0.026607152 -1.6413713e-19)
(0.47690632 -0.042747074 1.4894696e-19)
(0.65421993 -0.055399201 0)
(0.83404334 -0.060915157 -1.008155e-19)
(0.99898491 -0.05784894 5.4302504e-20)
(1.1362463 -0.047496752 0)
(1.2396917 -0.032837997 0)
(1.3108215 -0.015424344 0)
(-0.0083557895 0.0055895662 7.0853215e-19)
(-0.023950748 0.016217375 -4.2480392e-19)
(-0.038703565 0.026864888 0)
(-0.050865707 0.0368859 -2.7199941e-21)
(-0.057692405 0.045389327 -3.1835366e-19)
(-0.054933386 0.051135515 2.9006529e-19)
(-0.035951301 0.052253495 2.3095408e-19)
(0.009180725 0.04617333 4.694773e-21)
(0.091063502 0.031229263 -1.7541687e-19)
(0.21502724 0.0091108244 8.7804521e-21)
(0.37497537 -0.015137189 0)
(0.55836837 -0.037852154 -1.6573689e-19)
(0.74674211 -0.055899382 2.0364893e-20)
(0.92136112 -0.067007797 1.0195288e-19)
(1.0683817 -0.070433975 0)
(1.184358 -0.059302252 1.3953324e-20)
(-0.0065250544 0.0059540879 -1.480606e-22)
(-0.019793699 0.018042918 7.7296071e-19)
(-0.034267296 0.031075542 -3.663226e-19)
(-0.049440957 0.04483044 -3.3403267e-19)
(-0.064323976 0.058965698 2.9679037e-19)
(-0.077132552 0.07298426 -2.6786307e-19)
(-0.084733915 0.086211707 2.273388e-19)
(-0.08172699 0.097645018 1.8455261e-19)
(-0.058994331 0.10523748 -1.7011672e-19)
(-0.00051348115 0.1038945 0)
(0.11325348 0.086968173 0)
(0.28258908 0.054724565 0)
(0.47684797 0.015667861 1.7532396e-20)
(0.67464926 -0.024729199 0)
(0.85785057 -0.059454922 8.8714323e-20)
(1.016991 -0.075102911 -1.5561682e-19)
(0.052429384 -0.057551629 -4.672708e-20)
(0.15736668 -0.17235278 -5.8896714e-22)
(0.26835129 -0.29350872 5.5372423e-20)
(0.38159497 -0.41582425 -5.0710677e-20)
(0.49183078 -0.53237074 -1.8532508e-21)
(0.59275251 -0.6349366 4.9878098e-22)
(0.67813689 -0.7150715 0)
(0.74352305 -0.76599985 -5.062202e-20)
(0.78799538 -0.78512722 9.6880294e-20)
(0.81486026 -0.77547992 -4.1301582e-20)
(0.83027632 -0.74431855 4.4164303e-20)
(0.84049328 -0.69964165 -3.6315554e-20)
(0.84983218 -0.64737873 -6.460592e-21)
(0.8606379 -0.59081082 9.3072445e-21)
(0.87333837 -0.53208765 2.3801362e-20)
(0.88406218 -0.4767564 0)
(0.036841565 -0.054661887 0)
(0.11105312 -0.16355263 1.880481e-21)
(0.19136269 -0.27794107 -2.2926169e-19)
(0.27542419 -0.39305881 2.0891618e-19)
(0.35953329 -0.50212091 3.777576e-21)
(0.43898471 -0.59669092 -1.6452536e-19)
(0.50895565 -0.66816576 -3.3438228e-21)
(0.56602778 -0.71031565 2.441542e-19)
(0.60966668 -0.72189883 -9.505418e-21)
(0.64251309 -0.70741522 -8.7241422e-20)
(0.66899708 -0.67483437 0)
(0.69323872 -0.63185064 9.371166e-21)
(0.71780193 -0.58354472 9.892351e-21)
(0.74381087 -0.53236797 7.1734353e-20)
(0.77132182 -0.47937024 -9.4007619e-20)
(0.79854999 -0.42615277 -1.3786415e-20)
(0.024250109 -0.048477819 5.3320993e-22)
(0.073329472 -0.14490648 8.3406542e-19)
(0.12722552 -0.24594898 -3.9240216e-19)
(0.18469841 -0.34724491 3.2187233e-21)
(0.24365487 -0.44264305 3.1394968e-19)
(0.30139905 -0.52457989 -2.6892332e-19)
(0.35512677 -0.58549156 4.2028386e-21)
(0.4028418 -0.62014711 -7.0551074e-21)
(0.44427209 -0.62789602 2.5642053e-21)
(0.48103427 -0.61307149 9.5771087e-21)
(0.51574454 -0.58276909 -1.0979286e-19)
(0.55072527 -0.54361995 7.9315356e-20)
(0.58732113 -0.49996851 1.4790699e-19)
(0.62608469 -0.45403083 -1.2492331e-19)
(0.66680572 -0.40706323 1.8192611e-20)
(0.70707439 -0.36078008 5.8106346e-20)
(0.013151486 -0.037672516 9.7416108e-22)
(0.040269255 -0.11262713 1.160425e-21)
(0.071406402 -0.19115574 2.5716493e-19)
(0.1063547 -0.26984659 -2.3977431e-19)
(0.1444102 -0.34386809 3.5059574e-21)
(0.18452205 -0.40726611 -1.8416481e-19)
(0.22544504 -0.45410216 1.432254e-19)
(0.2661608 -0.4803209 2.5731896e-19)
(0.30638644 -0.48551057 -2.4498566e-21)
(0.34674042 -0.47316523 -3.5257815e-19)
(0.38833687 -0.44889359 1.3894501e-19)
(0.43211869 -0.41788654 0)
(0.47852747 -0.3835161 -9.7117083e-21)
(0.52761113 -0.34751684 7.9075309e-20)
(0.5786192 -0.31097753 -3.7611437e-20)
(0.62839325 -0.27521007 8.8374496e-20)
(0.0048934896 -0.022613866 -9.7432507e-22)
(0.015664985 -0.06807417 3.1841189e-19)
(0.02983638 -0.11632154 -3.0105906e-19)
(0.047988658 -0.16545877 1.9851939e-21)
(0.070493833 -0.21259499 -5.4409035e-21)
(0.097564968 -0.25389763 1.6645061e-21)
(0.12914363 -0.28521447 1.8501617e-19)
(0.16495647 -0.30332615 3.2161841e-21)
(0.20474105 -0.30736345 -1.151896e-19)
(0.24842648 -0.2993342 9.7783532e-20)
(0.29606916 -0.28307309 -7.9598968e-20)
(0.34762501 -0.26235465 0)
(0.40289692 -0.23964899 -5.3176237e-20)
(0.46157158 -0.21607713 3.7444916e-20)
(0.52204166 -0.19215553 -1.3011493e-20)
(0.57842276 -0.16893093 0)
(0.064501983 -0.031900359 0)
(0.1973043 -0.097847762 4.7231229e-19)
(0.34386198 -0.17131977 -8.8404928e-19)
(0.50184256 -0.25124878 4.0563961e-19)
(0.66670581 -0.33536009 3.0972088e-21)
(0.83109993 -0.41980367 1.3590063e-21)
(0.98475887 -0.49889444 2.356552e-19)
(1.115478 -0.56522921 -2.0137955e-19)
(1.2122451 -0.61111359 -1.4122494e-19)
(1.2697913 -0.63148299 1.0420289e-19)
(1.2912184 -0.62638797 0)
(1.2871418 -0.60195479 -4.225744e-20)
(1.2705438 -0.56625458 3.3757644e-20)
(1.2502982 -0.52508791 0)
(1.2308764 -0.4818314 0)
(1.2137511 -0.43919064 0)
(0.00081848267 -0.007707617 1.3885509e-19)
(0.0034284478 -0.023698337 -8.3254526e-20)
(0.0088895427 -0.041397461 -1.5593478e-19)
(0.018212299 -0.060409416 1.4202833e-19)
(0.032469372 -0.079863325 1.7047219e-21)
(0.052812225 -0.098214194 -5.6180285e-20)
(0.080169947 -0.11325723 -4.8794578e-20)
(0.11491143 -0.12265197 3.2102208e-22)
(0.15664584 -0.12500683 3.910935e-22)
(0.20433715 -0.12079837 7.629748e-20)
(0.25670966 -0.11209099 -8.1400011e-20)
(0.31261952 -0.10119277 9.2995823e-22)
(0.37114737 -0.089556438 7.03847e-21)
(0.43147745 -0.077624383 1.9357807e-20)
(0.49261097 -0.065221752 1.3851134e-23)
(0.55282781 -0.052328994 -1.0190787e-20)
(0.00082039352 0.0076996351 6.892325e-20)
(0.0034381128 0.023677818 8.2630475e-20)
(0.0089193809 0.041367214 -2.3410615e-19)
(0.018277935 0.060373106 1.420817e-19)
(0.032588898 0.079824974 -6.4964414e-20)
(0.053005538 0.098177365 -6.6412321e-24)
(0.080456977 0.11322458 -9.4781218e-20)
(0.11530937 0.12262593 4.1290696e-20)
(0.15716544 0.12499058 4.2574194e-21)
(0.20497754 0.12079409 -2.4860747e-20)
(0.25745296 0.11209561 3.6152163e-20)
(0.31343024 0.10119724 -3.1528154e-20)
(0.37197745 0.08955279 7.0367853e-21)
(0.43224435 0.077622035 3.7855042e-20)
(0.49307868 0.065300244 -1.4606479e-20)
(0.55243223 0.052788287 -2.0559977e-20)
(0.0049209156 0.022747822 1.5071096e-21)
(0.015747978 0.068458119 -3.2066632e-19)
(0.029982667 0.11694559 3.0099367e-19)
(0.048204221 0.16629421 -2.7108616e-19)
(0.070781701 0.21359088 2.4439491e-19)
(0.097924983 0.25498173 0)
(0.12957265 0.28630131 -1.7931495e-19)
(0.16544857 0.30433101 1.4617209e-19)
(0.20528563 0.30821444 3.235255e-21)
(0.24900213 0.29997243 0)
(0.29663519 0.28344037 1.4238475e-20)
(0.34811986 0.26237966 -7.2970583e-21)
(0.40324344 0.23923828 5.2318938e-20)
(0.46163522 0.21509553 -1.001649e-19)
(0.52148114 0.19037142 6.9331285e-20)
(0.57673572 0.16600425 1.9963084e-20)
(0.013185844 0.03778714 -9.7323629e-22)
(0.040364084 0.11295506 1.1593293e-21)
(0.071544455 0.19169315 0)
(0.1065103 0.2705776 -5.1956396e-21)
(0.14455067 0.34476265 -2.8490219e-21)
(0.18460947 0.4082791 -1.8385525e-19)
(0.22543845 0.45517261 1.6167744e-19)
(0.26601693 0.4813718 0)
(0.30605631 0.48645135 -1.2180113e-21)
(0.34616024 0.47389851 9.5864582e-21)
(0.38741253 0.44932499 -9.209691e-21)
(0.43072115 0.41793091 -5.0787851e-21)
(0.47656174 0.38307508 -1.1307605e-20)
(0.52515662 0.34638642 -7.2564411e-20)
(0.57566851 0.30877668 8.5533522e-20)
(0.62340875 0.27190678 -4.725953e-20)
(0.024226074 0.048444245 0)
(0.073257366 0.14481532 -4.16972e-19)
(0.12708831 0.24581847 7.8127601e-19)
(0.1844767 0.34710338 -3.5244267e-19)
(0.24332782 0.44252546 2.8433064e-21)
(0.30094135 0.52451833 8.3351614e-21)
(0.35450256 0.58549713 -2.3805701e-19)
(0.4019968 0.62018824 1.9618815e-19)
(0.44312838 0.62788711 1.4993096e-19)
(0.47949107 0.61288648 -1.3737958e-19)
(0.51367855 0.5822809 0)
(0.54800224 0.54273942 9.9954568e-20)
(0.58393316 0.49861459 -5.5251246e-20)
(0.6224982 0.45200783 0)
(0.66368141 0.4043174 0)
(0.70215706 0.35912704 0)
(0.03675384 0.054537393 -4.1124427e-19)
(0.11080354 0.16319748 2.4617644e-19)
(0.19095276 0.27737117 0)
(0.27486305 0.39230875 1.0097673e-21)
(0.35883677 0.50124186 1.8476482e-19)
(0.43816891 0.59574087 -1.6671919e-19)
(0.50802534 0.66718947 -1.4024052e-19)
(0.56496416 0.70931822 -6.2811906e-21)
(0.60842492 0.720828 1.1100952e-19)
(0.6410405 0.7061731 -6.9855128e-21)
(0.66727231 0.67332516 0)
(0.69133409 0.63003796 1.2440173e-19)
(0.71600826 0.58147563 -1.399973e-20)
(0.74278156 0.53023676 -8.017044e-20)
(0.77186021 0.47794011 0)
(0.80159279 0.42685672 -1.0103659e-20)
(0.052356901 0.057471395 1.0183474e-21)
(0.15715055 0.17210898 -1.1349122e-19)
(0.26798707 0.29308989 5.4036513e-20)
(0.3810851 0.4152289 5.2511086e-20)
(0.49118677 0.53161058 -4.5900455e-20)
(0.59199415 0.63403631 5.2898657e-20)
(0.67728529 0.71406141 -4.7605421e-20)
(0.74258876 0.76490055 -4.7981497e-20)
(0.78697239 0.78393588 4.2566611e-20)
(0.8137392 0.77417341 0)
(0.82908292 0.74288819 0)
(0.83934103 0.69814792 0)
(0.84897974 0.64598929 -4.7117602e-21)
(0.86050606 0.5898196 0)
(0.87427359 0.53189808 -5.0215887e-20)
(0.88546252 0.4773265 9.4008035e-20)
(-0.0064944569 -0.0059299352 3.1792113e-19)
(-0.019732201 -0.017998503 1.5725843e-21)
(-0.034213786 -0.031051008 -3.6353829e-19)
(-0.04945261 -0.044884166 3.3431482e-19)
(-0.064481189 -0.059174953 4.8975194e-21)
(-0.077545532 -0.073441568 4.087995e-21)
(-0.08555408 -0.087015773 0)
(-0.083167254 -0.098896455 1.8933696e-19)
(-0.061391888 -0.10706452 -3.1736464e-19)
(-0.0045749899 -0.10653002 1.3124954e-19)
(0.10758836 -0.090264712 -1.0721078e-19)
(0.27655322 -0.058390363 8.7720545e-20)
(0.47094499 -0.019557729 7.3524598e-22)
(0.6687205 0.021092476 -1.4474964e-20)
(0.85177078 0.05573461 -4.4432038e-20)
(1.0128784 0.066064838 0)
(-0.0084261593 -0.0056367861 0)
(-0.024192867 -0.016372763 -3.311381e-21)
(-0.03917776 -0.027154047 3.9567933e-19)
(-0.051654605 -0.037344292 -3.6196354e-19)
(-0.058910266 -0.046069181 -7.4669671e-21)
(-0.056740785 -0.052117565 2.7824127e-19)
(-0.038583574 -0.053659698 -1.1103437e-21)
(0.0055536057 -0.048093903 -3.9568649e-19)
(0.086406204 -0.033682928 2.1953413e-20)
(0.20981749 -0.011930905 1.3254818e-19)
(0.36946007 0.011894802 0)
(0.55291438 0.03414224 -1.0874324e-20)
(0.74180067 0.051760206 -1.595836e-20)
(0.91730122 0.062323561 -8.5434392e-20)
(1.0654135 0.064872606 1.1503154e-19)
(1.1813389 0.05662778 1.397248e-20)
(-0.0051116476 -0.0026277877 -2.7832595e-22)
(-0.012423986 -0.0069536766 -9.4585585e-19)
(-0.015451217 -0.010650024 4.466146e-19)
(-0.011075305 -0.013029252 -3.4089121e-21)
(0.0052044616 -0.013137385 -3.5774699e-19)
(0.039496525 -0.009865764 3.079732e-19)
(0.098956544 -0.0022959149 -4.4324857e-21)
(0.18968578 0.0095907923 7.3665877e-21)
(0.31524471 0.024827118 -4.6760748e-21)
(0.47241767 0.040690133 -9.6472047e-21)
(0.64965584 0.053121926 1.1399949e-19)
(0.82976072 0.058470856 -8.0866459e-20)
(0.99530706 0.055280016 -1.4377561e-19)
(1.1334154 0.044833729 1.2031459e-19)
(1.2378638 0.030225479 -1.9010236e-20)
(1.3092958 0.014857551 -5.4529643e-20)
(0.002484132 0.00065179556 -9.4408867e-22)
(0.012414356 0.0029463549 -1.1269545e-21)
(0.030781916 0.0060544904 -2.5487452e-19)
(0.061475811 0.010295495 2.3820558e-19)
(0.10944198 0.016017369 -3.4181531e-21)
(0.18034592 0.02336665 1.8244761e-19)
(0.2794039 0.032035363 -1.4138055e-19)
(0.40913252 0.040865878 -2.5048372e-19)
(0.56643046 0.047646962 4.5563152e-21)
(0.740761 0.049591999 3.327348e-19)
(0.91570919 0.044493073 -1.2913409e-19)
(1.0739097 0.031899677 0)
(1.2023593 0.013569376 8.8704403e-21)
(1.2952556 -0.0070026245 -6.5248702e-20)
(1.3538325 -0.025855997 3.1276104e-20)
(1.3843193 -0.03986204 -6.7417001e-20)
(0.013872197 0.0025071282 9.439764e-22)
(0.048223854 0.0080320888 -3.0401771e-19)
(0.094864364 0.01362733 2.8754798e-19)
(0.1577309 0.019062302 -1.9266889e-21)
(0.24117904 0.023972359 5.2876635e-21)
(0.34911839 0.027626224 -1.6187147e-21)
(0.48331073 0.028857679 -1.7402404e-19)
(0.64105298 0.026115515 -1.5473399e-21)
(0.81334037 0.01784211 1.062584e-19)
(0.98531393 0.0032259286 -8.6224081e-20)
(1.139924 -0.017076537 6.9992899e-20)
(1.2632982 -0.040778786 0)
(1.3488015 -0.06451044 4.1384889e-20)
(1.3977773 -0.084756898 -2.9134057e-20)
(1.4173532 -0.098943226 9.8142053e-21)
(1.416852 -0.10570468 0)
(0.027602831 0.0015222589 -1.3899864e-19)
(0.090307229 0.0042223238 8.3267289e-20)
(0.16817579 0.0054501541 1.5579038e-19)
(0.26438455 0.0044859405 -1.4157502e-19)
(0.3816833 0.00048879506 -1.478399e-21)
(0.5211909 -0.0075908371 5.5516531e-20)
(0.68063581 -0.020789687 4.7320931e-20)
(0.85264386 -0.039726411 -9.2062727e-22)
(1.0243541 -0.064046681 -1.1148602e-21)
(1.179637 -0.091987394 -6.8772944e-20)
(1.3037557 -0.12048211 7.0769359e-20)
(1.3882914 -0.14594131 -2.2550172e-21)
(1.433506 -0.16534653 -6.752499e-21)
(1.4468111 -0.17695212 -1.4617205e-20)
(1.4388722 -0.18055871 -9.0278014e-24)
(1.4191875 -0.17660729 6.0881069e-21)
(0.041627988 -0.0030187372 -7.1154508e-20)
(0.1323355 -0.010337648 -8.5224008e-20)
(0.23965331 -0.021075419 2.4098137e-19)
(0.36537367 -0.036114814 -1.4577433e-19)
(0.51005198 -0.056240839 6.6421768e-20)
(0.67173965 -0.082030677 6.6283111e-24)
(0.84456298 -0.11341423 9.3751418e-20)
(1.0178997 -0.14916358 -4.156243e-20)
(1.1772817 -0.18655494 -5.0129976e-21)
(1.307715 -0.22158155 2.0908953e-20)
(1.3985704 -0.24994114 -3.2227497e-20)
(1.4475454 -0.26850229 2.4555313e-20)
(1.4610297 -0.27635555 -6.5646197e-21)
(1.4503185 -0.27450095 -2.6245226e-20)
(1.4268734 -0.26522691 9.6978472e-21)
(1.3982691 -0.25100236 1.0961122e-20)
(0.053703911 -0.010943502 -1.5767691e-21)
(0.16767104 -0.034814512 3.3157951e-19)
(0.2982218 -0.063966277 -3.1080496e-19)
(0.44550168 -0.098978674 2.7862815e-19)
(0.60783138 -0.13997295 -2.5073621e-19)
(0.78061252 -0.18634717 0)
(0.95542389 -0.23628293 1.7621515e-19)
(1.1200234 -0.28637198 -1.4332018e-19)
(1.260157 -0.33172547 -2.9555839e-21)
(1.3634688 -0.36695896 0)
(1.4241542 -0.38796878 -1.1669467e-20)
(1.4455931 -0.39372386 5.3780671e-21)
(1.4385502 -0.38650209 -3.4539928e-20)
(1.4155015 -0.3699057 6.2858072e-20)
(1.3863949 -0.3477441 -4.077655e-20)
(1.355853 -0.32295548 -9.8025614e-21)
(0.061851041 -0.02119184 1.0252428e-21)
(0.1906919 -0.065814798 -1.2215501e-21)
(0.33492932 -0.11709213 0)
(0.49321771 -0.17487964 -1.4467131e-21)
(0.66210105 -0.23818793 -3.0958867e-21)
(0.8351862 -0.30484146 1.8062672e-19)
(1.0026988 -0.37106815 -1.5893327e-19)
(1.1520673 -0.43138446 0)
(1.2703599 -0.47926067 1.2003387e-20)
(1.3485618 -0.50897004 8.1108006e-21)
(1.385603 -0.51796036 7.4848945e-21)
(1.3893353 -0.50848763 -1.3709965e-20)
(1.3727039 -0.48613041 7.5848785e-21)
(1.3469542 -0.45609343 3.8585968e-20)
(1.3194741 -0.42302726 -4.0942987e-20)
(1.2929885 -0.39042945 2.1062886e-20)
(0.061925782 -0.041393382 5.4675738e-19)
(0.18861854 -0.12621718 -3.2730333e-19)
(0.32732393 -0.21935012 0)
(0.47521169 -0.31878614 -1.6414246e-21)
(0.62723297 -0.42088279 -2.3493262e-19)
(0.77580089 -0.52000023 2.1255074e-19)
(0.91119351 -0.608492 1.5458194e-19)
(1.022034 -0.67663868 -8.5024205e-21)
(1.0998581 -0.71609443 -1.082827e-19)
(1.1433086 -0.72406044 5.5798194e-21)
(1.1590221 -0.70515576 0)
(1.1577763 -0.66856946 -5.2628156e-20)
(1.1490673 -0.62287146 1.8325869e-20)
(1.1388279 -0.57310488 2.4382921e-20)
(1.1302646 -0.52151851 0)
(1.1226598 -0.47158212 -1.179954e-21)
(0.056722489 -0.051584404 -9.9380843e-22)
(0.17151471 -0.15581737 3.3811973e-19)
(0.29629359 -0.26786873 -1.6006153e-19)
(0.42807226 -0.38474365 -1.4440004e-19)
(0.5619517 -0.50122245 1.2747788e-19)
(0.69110942 -0.60963163 -1.1091388e-19)
(0.80758231 -0.70060341 9.6216054e-20)
(0.90131223 -0.7630452 6.4088543e-20)
(0.96690601 -0.79097076 -5.6988805e-20)
(1.0053761 -0.78587194 0)
(1.023345 -0.7558605 0)
(1.029179 -0.71100736 0)
(1.0295048 -0.65891114 -2.6809703e-21)
(1.0286906 -0.60335213 0)
(1.02968 -0.54615428 -1.1623702e-20)
(1.0308612 -0.49238025 2.605652e-20)
(-0.0053650359 0.005763041 3.1805537e-19)
(-0.016913404 0.018343195 1.4992022e-21)
(-0.030216353 0.033311284 -3.6277563e-19)
(-0.045272963 0.050916419 3.336415e-19)
(-0.061846643 0.071300007 4.6642728e-21)
(-0.079245447 0.094294959 4.109824e-21)
(-0.09611835 0.11922378 0)
(-0.11011725 0.14456724 1.8840097e-19)
(-0.11750359 0.16762772 -3.1501749e-19)
(-0.11259041 0.18430987 1.3054765e-19)
(-0.086294442 0.1890253 -1.0495678e-19)
(-0.021439002 0.17388104 8.6268254e-20)
(0.11669873 0.1270324 7.1186672e-23)
(0.31887037 0.059587804 -1.427056e-20)
(0.53316523 -0.006700376 -4.5065857e-20)
(0.740611 -0.059098676 0)
(-0.0058382921 0.0088929109 0)
(-0.018235286 0.028189391 -2.968759e-21)
(-0.032171495 0.051078126 3.601777e-19)
(-0.047551906 0.077913425 -3.2932424e-19)
(-0.064060329 0.10878833 -6.8181192e-21)
(-0.080977935 0.14330268 2.5315497e-19)
(-0.097018612 0.18021455 -7.5770338e-22)
(-0.11018446 0.21709081 -3.6105611e-19)
(-0.11771394 0.2501439 1.9271634e-20)
(-0.11611755 0.27449091 1.2224853e-19)
(-0.10099969 0.28492785 0)
(-0.066048966 0.27680225 -1.0002502e-20)
(-0.00073728564 0.24540046 -1.5566723e-20)
(0.11572101 0.17975266 -9.160312e-20)
(0.30689401 0.078600911 1.2232145e-19)
(0.5106828 -0.012113367 1.6339547e-20)
(-0.006919878 0.014289117 -1.9626322e-22)
(-0.021200519 0.044339066 -7.4495013e-19)
(-0.036688178 0.07857456 3.5171029e-19)
(-0.053082784 0.11688119 -2.4023889e-21)
(-0.069881777 0.15863765 -2.8230152e-19)
(-0.086276459 0.2024891 2.4370273e-19)
(-0.10113655 0.24610741 -3.1606512e-21)
(-0.11305703 0.28609194 5.3114343e-21)
(-0.12049055 0.31818702 -4.8206622e-21)
(-0.12192135 0.3379578 -7.2874344e-21)
(-0.11588125 0.34177002 9.9042946e-20)
(-0.10059331 0.32751656 -7.0039359e-20)
(-0.073174285 0.29423531 -1.4039419e-19)
(-0.027440453 0.23997904 1.1839824e-19)
(0.054081839 0.15881245 -2.1126064e-20)
(0.23003521 0.048572883 -6.6796272e-20)
(-0.0063669686 0.018902218 -5.135909e-22)
(-0.019321066 0.057455182 -6.1478911e-22)
(-0.033352544 0.09956959 -1.6101446e-19)
(-0.048206115 0.14437279 1.5069784e-19)
(-0.063499698 0.19035403 -1.8928793e-21)
(-0.078718667 0.23524164 1.1761247e-19)
(-0.093265003 0.27597349 -9.1273942e-20)
(-0.10652809 0.30878387 -1.6698961e-19)
(-0.11799 0.32966958 -1.1249205e-21)
(-0.12736827 0.33548765 2.3343014e-19)
(-0.13448011 0.3248868 -9.2515866e-20)
(-0.13894562 0.29853554 0)
(-0.13991148 0.25803176 8.0297894e-21)
(-0.13446498 0.20448628 -6.4952399e-20)
(-0.11094798 0.13883321 3.1062984e-20)
(-0.045613335 0.060819419 -8.2181599e-20)
(-0.0036200744 0.017547425 5.135909e-22)
(-0.0112367 0.052831639 -1.4349323e-19)
(-0.020359534 0.090525499 1.3589344e-19)
(-0.031157631 0.12944215 -1.0616343e-21)
(-0.043744281 0.16775027 2.7098089e-21)
(-0.058227642 0.20290781 -7.1621631e-22)
(-0.074712015 0.23177734 -8.7449626e-20)
(-0.093329087 0.25104252 -3.0100595e-21)
(-0.11424023 0.2580154 5.4730623e-20)
(-0.13750366 0.25162831 -4.9845535e-20)
(-0.16279882 0.23292169 4.0586998e-20)
(-0.18920423 0.20439311 0)
(-0.21511497 0.16859842 3.2093403e-20)
(-0.23753337 0.12733647 -2.2823943e-20)
(-0.25026606 0.08235762 9.8402958e-21)
(-0.24581762 0.036586946 0)
(-0.00085193881 0.008792005 -5.2576325e-20)
(-0.0033215054 0.026635691 3.1262316e-20)
(-0.0081193285 0.045901429 5.9827596e-20)
(-0.016049746 0.066002047 -5.5017129e-20)
(-0.027973578 0.085873748 -1.0003656e-21)
(-0.044842162 0.10383134 2.2185988e-20)
(-0.067473479 0.11761817 1.9911237e-20)
(-0.096265326 0.12488881 2.4403356e-22)
(-0.1309227 0.12419175 2.6577745e-22)
(-0.17033018 0.11589008 -3.3790932e-20)
(-0.21270517 0.10205614 3.7571136e-20)
(-0.25595779 0.085235003 5.4482064e-22)
(-0.29793982 0.067216996 -2.9426652e-21)
(-0.33615021 0.048763455 -1.0523167e-20)
(-0.36660105 0.030223118 -8.4121808e-24)
(-0.38287568 0.012792409 6.6852936e-21)
(-0.00075527176 -0.0071600146 -2.5772983e-20)
(-0.0030505456 -0.021725753 -3.1461183e-20)
(-0.0077231275 -0.03749422 8.8660771e-20)
(-0.01560628 -0.054009215 -5.4425662e-20)
(-0.027592786 -0.070414271 2.508165e-20)
(-0.044667202 -0.085311593 2.6192372e-24)
(-0.067669247 -0.096790219 3.8214882e-20)
(-0.096988841 -0.10285337 -1.6321933e-20)
(-0.13227672 -0.10232595 -1.4533874e-21)
(-0.17231796 -0.095715291 1.1560759e-20)
(-0.21521624 -0.08509318 -1.5922257e-20)
(-0.25878331 -0.072895663 1.5816083e-20)
(-0.30077003 -0.060759359 -2.9128861e-21)
(-0.33864807 -0.049299505 -2.1168799e-20)
(-0.36908066 -0.038549565 8.4789409e-21)
(-0.38800855 -0.028166125 1.3694333e-20)
(-0.0034544543 -0.016641927 -7.1982834e-22)
(-0.010771002 -0.050063793 1.4193922e-19)
(-0.019672528 -0.085694736 -1.3327957e-19)
(-0.030371872 -0.12237845 1.2147101e-19)
(-0.04302803 -0.15834072 -1.0977071e-19)
(-0.057794672 -0.19113125 0)
(-0.074802714 -0.21775473 8.3504645e-20)
(-0.094172629 -0.23510697 -6.7833091e-20)
(-0.11600917 -0.24079064 -2.1659673e-21)
(-0.1402761 -0.2340827 0)
(-0.16654477 -0.21637677 -7.8104075e-21)
(-0.19374262 -0.19051508 4.4452889e-21)
(-0.21985575 -0.1594171 -3.219368e-20)
(-0.24124692 -0.12516528 6.2635998e-20)
(-0.25249049 -0.089150193 -4.6123049e-20)
(-0.25021565 -0.05224718 -1.4702614e-20)
(-0.0062990585 -0.018659351 5.0360877e-22)
(-0.019128102 -0.05664701 -6.0300522e-22)
(-0.033089514 -0.098029682 0)
(-0.047954299 -0.14190126 3.4091771e-21)
(-0.063370949 -0.18672775 2.104213e-21)
(-0.078852239 -0.23019525 1.1552648e-19)
(-0.093817057 -0.26918969 -1.0140002e-19)
(-0.10767964 -0.29999045 0)
(-0.1199712 -0.31882698 -4.4426325e-22)
(-0.1304092 -0.32282809 -7.2032103e-21)
(-0.13877928 -0.31097516 5.4040299e-21)
(-0.14464818 -0.28425453 5.2270916e-21)
(-0.1469121 -0.24458683 7.3649919e-21)
(-0.14160494 -0.19364499 5.6979579e-20)
(-0.11588336 -0.13339117 -7.1406833e-20)
(-0.05116808 -0.066071477 3.9789973e-20)
(-0.0070571637 -0.014552394 0)
(-0.021600316 -0.04505381 3.6960399e-19)
(-0.037375503 -0.079645852 -6.9387645e-19)
(-0.054075946 -0.11814203 3.14566e-19)
(-0.071190872 -0.15983671 -2.1021454e-21)
(-0.087909749 -0.20328792 -7.5241071e-21)
(-0.10311474 -0.24609701 2.1087514e-19)
(-0.11543785 -0.28484171 -1.7466984e-19)
(-0.12339714 -0.31533334 -1.3139722e-19)
(-0.12555693 -0.33330039 1.1881531e-19)
(-0.12052741 -0.33534174 0)
(-0.10661105 -0.31957614 -8.9976514e-20)
(-0.08100478 -0.28518824 4.8251102e-20)
(-0.037319418 -0.23049391 0)
(0.043083834 -0.15071615 0)
(0.21878539 -0.046101886 0)
(-0.0060943996 -0.0092809913 6.3690773e-19)
(-0.018986823 -0.029332905 -3.8157058e-19)
(-0.033421608 -0.052995298 0)
(-0.049277035 -0.080574695 -2.5538333e-21)
(-0.066203972 -0.11209379 -2.8526547e-19)
(-0.083448573 -0.14706184 2.5980512e-19)
(-0.099699213 -0.18413795 2.0705331e-19)
(-0.11295954 -0.2208088 4.866127e-21)
(-0.12051406 -0.25326646 -1.5767971e-19)
(-0.11897186 -0.27670325 7.5099168e-21)
(-0.10408612 -0.2860853 0)
(-0.069725741 -0.27696508 -1.5917542e-19)
(-0.0054736971 -0.24482122 1.4898235e-20)
(0.10916695 -0.1793888 1.0231154e-19)
(0.29875695 -0.079085886 0)
(0.50202223 0.0092662536 1.5059473e-20)
(-0.0054564949 -0.005875003 9.7781385e-23)
(-0.017199355 -0.018712916 7.6339296e-19)
(-0.030708789 -0.034013774 -3.6158268e-19)
(-0.045978382 -0.052034525 -3.2921176e-19)
(-0.062754592 -0.072905499 2.9258022e-19)
(-0.080322387 -0.096433636 -2.6327955e-19)
(-0.097299286 -0.12188946 2.2316504e-19)
(-0.11130409 -0.14767388 1.8158971e-19)
(-0.1185899 -0.17100623 -1.6727632e-19)
(-0.11353741 -0.18774619 0)
(-0.087331319 -0.19232527 0)
(-0.023551323 -0.17695862 0)