/*--------------------------------*- C++ -*----------------------------------*\
| =========                 |                                                 |
| \\      /  F ield         | foam-extend: Open Source CFD                    |
|  \\    /   O peration     | Version:     4.1                                |
|   \\  /    A nd           | Web:         http://www.foam-extend.org         |
|    \\/     M anipulation  |                                                 |
\*---------------------------------------------------------------------------*/
FoamFile
{
    version     2.0;
    format      ascii;
    class       volScalarField;
    location    "0.25";
    object      p;
}
// * * * * * * * * * * * * * * * * * * * * * * * * * * * * * * * * * * * * * //

dimensions      [0 2 -2 0 0 0 0];

internalField   nonuniform List<scalar> 
16796
(
-1.7359841
-3.855224
-6.0673994
-8.3027455
-10.575628
-12.895894
-15.273829
-17.719919
-20.244905
-22.859817
-25.576016
-28.405225
-31.359573
-34.451627
-37.694432
-41.101545
-44.687074
-48.46571
-52.452761
-56.664184
-61.116617
-65.827402
-70.814614
-76.097075
-81.694375
-87.626876
-93.915722
-100.58282
-107.65086
-115.14322
-123.08402
-131.49799
-140.41046
-149.84722
-159.83446
-170.39859
-181.56612
-193.36345
-205.81665
-218.9512
-232.79169
-247.36148
-262.6823
-278.77383
-295.65317
-313.33434
-331.82762
-351.13894
-371.26909
-392.21303
-413.95896
-436.48752
-459.77082
-483.77154
-508.4419
-533.72279
-559.54276
-585.81718
-612.44744
-639.32028
-666.30725
-693.2644
-720.0322
-746.43576
-772.28542
-797.37765
-821.49646
-844.4152
-865.89891
-885.70708
-903.59695
-919.32727
-932.66233
-943.37648
-951.2586
-956.11693
-957.78378
-956.12027
-951.01985
-942.41143
-930.26219
-914.57953
-895.41182
-872.84836
-847.01812
-818.08756
-786.25758
-751.75952
-714.85068
-675.80923
-634.92891
-592.51362
-548.87208
-504.31276
-459.13923
-413.6459
-368.11448
-322.811
-277.98345
-233.86013
-190.64853
-148.53484
-107.68391
-68.239659
-30.32588
5.9526971
40.509109
73.272695
104.18753
133.21081
160.31119
185.4672
208.66564
229.9002
249.17011
266.47881
281.83198
295.23583
306.69919
316.24208
323.89362
329.63542
333.31201
334.79768
-1.7325304
-3.8475302
-6.0553133
-8.2862299
-10.554621
-12.870317
-15.243586
-17.684899
-20.20498
-22.814842
-25.52583
-28.349651
-31.298417
-34.384679
-37.621466
-41.02232
-44.601333
-48.373182
-52.353162
-56.557216
-61.001973
-65.704764
-70.683655
-75.957462
-81.545773
-87.468951
-93.748142
-100.40527
-107.46301
-114.94479
-122.87475
-131.27763
-140.17883
-149.60418
-159.57992
-170.13255
-181.28866
-193.07476
-205.51702
-218.64108
-232.47167
-247.03233
-262.34498
-278.42953
-295.30334
-312.98066
-331.4721
-350.78388
-370.91717
-391.86725
-413.62274
-436.16465
-459.46551
-483.4884
-508.18597
-533.49948
-559.35785
-585.67679
-612.35795
-639.28827
-666.33942
-693.36745
-720.2127
-746.70004
-772.63934
-797.82646
-822.04461
-845.06614
-866.65487
-886.56887
-904.56382
-920.39669
-933.82994
-944.63595
-952.60166
-957.53332
-959.26142
-957.64562
-952.57829
-943.98726
-931.83896
-916.14031
-896.93968
-874.32672
-848.43116
-819.42061
-787.4974
-752.89462
-715.8715
-676.70829
-635.70089
-593.15535
-549.38247
-504.69269
-459.39135
-413.77446
-368.12509
-322.71035
-277.77909
-233.56022
-190.26162
-148.06964
-107.14908
-67.643703
-29.676951
6.6468792
41.241351
74.03639
104.9767
134.02012
161.13597
186.30341
209.50987
230.74961
250.02244
267.33228
282.68531
296.08813
307.54994
317.09105
324.74085
330.48119
334.15678
335.64203
-1.7257485
-3.8323219
-6.0313463
-8.2534292
-10.512863
-12.819448
-15.183418
-17.615212
-20.12552
-22.725324
-25.425935
-28.239028
-31.176682
-34.251418
-37.476232
-40.864636
-44.430694
-48.189051
-52.154979
-56.344395
-60.773905
-65.460822
-70.423197
-75.679836
-81.25032
-87.155013
-93.415071
-100.05243
-107.0898
-114.55065
-122.45915
-130.84013
-139.71906
-149.12188
-159.07496
-169.60493
-180.73856
-192.50257
-204.92338
-218.02687
-231.8381
-246.38096
-261.67777
-277.74886
-294.61207
-312.28221
-330.77046
-350.08367
-370.22368
-391.1865
-412.96149
-435.53047
-458.86675
-482.93423
-507.68636
-533.06516
-559.00029
-585.40808
-612.19074
-639.2356
-666.41455
-693.58364
-720.58298
-747.2369
-773.35443
-798.73022
-823.14587
-846.37176
-868.1693
-888.29382
-906.49783
-922.53485
-936.16362
-947.15266
-955.28495
-960.36282
-962.21295
-960.69187
-955.68945
-947.13136
-934.98241
-919.24874
-899.9787
-877.26278
-851.23234
-822.05735
-789.94321
-755.1266
-717.87078
-678.46027
-637.19539
-594.38658
-550.34886
-505.39666
-459.8389
-413.97475
-368.08995
-322.45379
-277.31675
-232.90891
-189.43881
-147.09306
-106.03634
-66.411935
-28.342579
8.0683817
42.735618
75.590282
106.57837
135.65906
162.80299
187.99064
211.21068
232.45858
251.73524
269.04563
284.39682
297.79625
309.25384
318.79052
326.43616
332.17305
335.84632
337.33058
-1.7155557
-3.8094984
-5.9953862
-8.2042197
-10.450219
-12.743134
-15.093152
-17.510661
-20.006304
-22.591011
-25.276046
-28.073034
-30.994007
-34.051435
-37.25827
-40.627976
-44.174571
-47.912661
-51.857475
-56.024894
-60.431489
-65.094545
-70.032091
-75.262914
-80.806589
-86.683478
-92.914751
-99.522369
-106.52909
-113.95841
-121.83461
-130.18261
-139.028
-148.39687
-158.31577
-168.81157
-179.91131
-191.64199
-204.03039
-217.10281
-230.88476
-245.40068
-260.67345
-276.72408
-293.57114
-311.23025
-329.71345
-349.02855
-369.17841
-390.16013
-411.96419
-434.57361
-457.96292
-482.09723
-506.93121
-532.40805
-558.45849
-584.99987
-611.93518
-639.15238
-666.5237
-693.90522
-721.1367
-748.04167
-774.42789
-800.08821
-824.80184
-848.33617
-870.44902
-890.89154
-909.4115
-925.75722
-939.68185
-950.94807
-959.33292
-964.63278
-966.66867
-965.29225
-960.38944
-951.88253
-939.73389
-923.94839
-904.57434
-881.70344
-855.46953
-826.0462
-793.64347
-758.5035
-720.89566
-681.11102
-639.4566
-596.24951
-551.81125
-506.46224
-460.51688
-414.27913
-368.03878
-322.06837
-276.6209
-231.92814
-188.19966
-145.62241
-104.36086
-64.557587
-26.334197
10.207409
44.983594
77.927375
108.98672
138.12282
165.30835
190.52574
213.76559
235.02515
254.307
271.61765
286.96558
300.35946
311.8103
321.33994
328.97901
334.71048
338.38007
339.86278
-1.7019676
-3.7791151
-5.9475311
-8.1387448
-10.366877
-12.641615
-14.97308
-17.371594
-19.847734
-22.412367
-25.076689
-27.85226
-30.751048
-33.785459
-36.968381
-40.313217
-43.833926
-47.545055
-51.46178
-55.599931
-59.976036
-64.607338
-69.511836
-74.708294
-80.216275
-86.056141
-92.249075
-98.81707
-105.78293
-113.17025
-121.00337
-129.30738
-138.108
-147.43155
-157.30481
-167.75495
-178.80933
-190.49539
-202.84037
-215.8711
-229.61372
-244.09334
-259.33366
-275.35655
-292.18155
-309.82534
-328.30115
-347.61805
-367.78026
-388.78632
-410.62826
-433.29065
-456.74969
-480.97211
-505.91423
-531.52082
-557.7241
-584.44273
-611.58086
-639.02727
-666.65469
-694.31929
-721.86039
-749.10053
-775.84578
-801.88661
-826.99908
-850.94658
-873.48217
-894.35138
-913.29563
-930.05621
-944.37876
-956.01804
-964.74307
-970.34219
-972.62877
-971.44774
-966.67959
-958.24201
-946.09406
-930.23884
-910.72464
-887.64483
-861.13659
-831.37846
-798.58674
-763.01107
-724.92912
-684.64083
-642.46235
-598.71984
-553.74351
-507.8619
-461.39678
-414.65854
-367.94238
-321.5252
-275.66328
-230.59064
-186.51814
-143.63314
-102.09977
-62.059573
-23.63259
13.08127
48.000684
81.061211
112.21349
141.42146
168.66049
193.9157
217.18022
238.45373
257.74105
275.05075
290.39317
303.77866
315.21965
324.73921
332.36898
338.0928
341.75722
343.23777
-1.6851307
-3.7413519
-5.8879745
-8.0572055
-10.263045
-12.515102
-14.823415
-17.198224
-19.650025
-22.189602
-24.828069
-27.576906
-30.447998
-33.453671
-36.606734
-39.920513
-43.408891
-47.086344
-50.967979
-55.069563
-59.407567
-63.999185
-68.862373
-74.015868
-79.479214
-85.272773
-91.417746
-97.936161
-104.85089
-112.1856
-119.96479
-128.21367
-136.95818
-146.22489
-156.04089
-166.4337
-177.43113
-189.06109
-201.35141
-214.32962
-228.0226
-242.45634
-257.65551
-273.64309
-290.43982
-308.06373
-326.5295
-345.8478
-366.02455
-387.06011
-408.94843
-431.6761
-455.22135
-479.55301
-504.62947
-530.39752
-556.79126
-583.73108
-611.12257
-638.85564
-666.80369
-694.82304
-722.75255
-750.41354
-777.61006
-804.12962
-829.74436
-854.21271
-877.28172
-898.68988
-918.17059
-935.45628
-950.28301
-962.39552
-971.55258
-977.53233
-980.13829
-979.20669
-974.61099
-966.26293
-954.11728
-938.17488
-918.48392
-895.13991
-868.2843
-838.10194
-804.81724
-768.68938
-730.0067
-689.08049
-646.23857
-601.81864
-556.16203
-509.60762
-462.48652
-415.11724
-367.80182
-320.82261
-274.43997
-228.8907
-184.3872
-141.11728
-99.244508
-58.909052
-20.228916
16.698582
51.795104
84.99946
116.26571
145.56125
172.86494
198.16524
221.45853
242.74751
262.03985
279.3467
294.68076
308.05443
319.48198
328.988
336.60538
342.31905
345.97664
347.45434
-1.6647775
-3.695928
-5.8164672
-7.9593943
-10.138559
-12.363475
-14.644081
-16.990522
-19.413192
-21.922778
-24.530296
-27.247126
-30.085056
-33.056316
-36.173618
-39.450194
-42.899838
-46.536938
-50.376516
-54.434264
-58.726582
-63.270604
-68.084233
-73.18617
-78.595936
-84.333888
-90.421243
-96.880074
-103.73332
-111.00476
-118.71902
-126.90151
-135.57841
-144.77657
-154.52344
-164.84697
-175.77549
-187.33749
-199.56151
-212.47586
-226.10834
-240.48599
-255.63463
-271.57855
-288.33996
-305.9385
-324.39058
-343.70881
-363.90115
-384.97017
-406.91214
-429.71607
-453.3627
-477.82341
-503.0591
-529.01905
-555.63971
-582.84357
-610.53807
-638.61453
-666.94727
-695.3929
-723.78977
-751.95786
-779.69886
-806.79681
-833.01916
-858.11842
-881.83439
-903.89704
-924.03008
-941.9551
-957.39649
-970.08672
-979.77196
-986.21779
-989.21562
-988.59082
-984.20803
-975.97164
-963.83105
-947.78425
-927.87927
-904.2142
-876.93581
-846.23672
-812.35133
-775.55065
-736.13616
-694.4332
-650.78391
-605.54025
-559.05716
-511.68618
-463.7698
-415.63644
-367.59637
-319.93851
-272.92808
-226.80514
-181.78384
-138.05237
-95.773519
-55.085667
-16.104212
21.076763
56.382625
89.756204
121.15576
150.55294
177.93082
203.28196
226.60667
247.91134
267.20705
284.50808
299.82995
313.18757
324.59739
334.08582
341.68726
347.38795
351.03682
352.5109
-1.6414117
-3.6434719
-5.733695
-7.8460397
-9.9941883
-12.187543
-14.435932
-16.74938
-19.138171
-21.612874
-24.18439
-26.863985
-29.663332
-32.594547
-35.67023
-38.903505
-42.308057
-45.89817
-49.688771
-53.69546
-57.934551
-62.423105
-67.178968
-72.220788
-77.568061
-83.241134
-89.26124
-95.650496
-102.43192
-109.62941
-117.26774
-125.37255
-133.97028
-143.08812
-152.75392
-162.99613
-173.84365
-185.32568
-197.47154
-210.31047
-223.87133
-238.18235
-253.27073
-269.16226
-285.88085
-303.44801
-321.88222
-341.1983
-361.40665
-382.51241
-404.51458
-427.40504
-451.16749
-475.77634
-501.19551
-527.37721
-554.26074
-581.77116
-609.81815
-638.29481
-667.07667
-696.02076
-724.96504
-753.728
-782.10869
-809.8872
-836.82557
-862.66941
-887.15004
-909.98742
-930.89374
-949.57779
-965.75002
-979.12822
-989.44347
-996.44625
-999.91336
-999.65687
-995.53076
-987.43044
-975.29875
-959.13019
-938.97251
-914.92691
-887.1465
-855.83332
-821.23385
-783.63335
-743.34923
-700.7237
-656.1162
-609.89577
-562.43367
-514.09658
-465.24051
-416.20562
-367.31188
-318.85588
-271.10848
-224.31342
-178.68673
-134.41689
-91.665581
-50.568894
-11.238994
26.234002
61.779958
95.346547
126.89706
156.40824
183.86817
209.27429
232.63153
253.95064
273.24672
290.53773
305.8425
319.17887
330.56585
340.03195
347.61335
353.29782
356.93583
358.40541
-1.6144165
-3.5832842
-5.6389709
-7.7164867
-9.829312
-11.986722
-14.198412
-16.474279
-18.824471
-21.259428
-23.789919
-26.427076
-29.182441
-32.068001
-35.096226
-38.280112
-41.633222
-45.16972
-48.90442
-52.852813
-57.031117
-61.456307
-66.146152
-71.119246
-76.395046
-81.993885
-87.937008
-94.246577
-100.94569
-108.05838
-115.60959
-123.62519
-132.13192
-141.15735
-150.72978
-160.87821
-171.6322
-183.02172
-195.07699
-207.82829
-221.30568
-235.53876
-250.55626
-266.38571
-283.05294
-300.58161
-318.99255
-338.30315
-358.52656
-379.67092
-401.73839
-424.72416
-448.61537
-473.38996
-499.01537
-525.44733
-552.62844
-580.48686
-608.93498
-637.86811
-667.16329
-696.67827
-726.25068
-755.69752
-784.81497
-813.3787
-841.14469
-867.85068
-893.21827
-916.95585
-938.76229
-958.33143
-975.3574
-989.54074
-1000.5947
-1008.252
-1012.272
-1012.4508
-1008.6296
-1000.6931
-988.57615
-972.269
-951.81904
-927.33104
-898.96567
-866.93612
-831.50325
-792.96928
-751.6705
-707.96919
-662.24526
-614.88792
-566.28767
-516.82893
-466.88357
-416.80531
-366.9254
-317.54916
-268.95382
-221.38719
-175.06725
-130.18257
-86.893285
-45.33262
-5.6087794
32.192902
68.007655
101.7889
133.50585
163.14121
190.68895
216.15215
239.54113
260.87166
280.16351
297.43885
312.72031
326.02912
337.38716
346.82542
354.38205
360.04657
363.67126
365.13534
-1.5846373
-3.5164219
-5.533451
-7.5719667
-9.6452342
-11.762388
-13.932975
-16.166745
-18.473698
-20.864126
-23.348646
-25.938245
-28.644314
-31.478692
-34.453703
-37.582201
-40.877606
-44.353947
-48.025906
-51.908854
-56.018895
-60.3729
-64.988555
-69.884385
-75.079796
-80.595101
-86.451553
-92.671357
-99.277696
-106.29473
-113.7476
-121.66241
-130.06625
-138.98707
-148.45369
-158.4957
-169.14339
-180.42758
-192.37949
-205.03055
-218.41216
-232.55543
-247.49082
-263.24778
-279.85434
-297.33653
-315.71784
-335.01854
-355.25496
-376.43858
-398.57516
-421.66369
-445.69526
-470.65184
-496.50498
-523.21444
-550.72673
-578.97366
-607.87085
-637.3163
-667.189
-697.34772
-727.62996
-757.85126
-787.80478
-817.2614
-845.97038
-873.66065
-900.04286
-924.81226
-947.65245
-968.24007
-986.25046
-1001.364
-1013.2734
-1021.6903
-1026.3537
-1027.0408
-1023.5775
-1015.8359
-1003.7413
-987.27884
-966.49524
-941.49951
-912.4611
-879.60635
-843.21301
-803.60327
-761.13562
-716.19588
-669.18795
-620.5246
-570.61871
-519.87528
-468.68442
-417.41547
-366.41242
-315.99049
-266.43393
-217.99491
-170.89335
-125.31759
-81.425704
-39.347323
0.81414334
38.979061
75.088997
109.10409
141.00047
170.76774
198.40662
223.9267
247.34445
268.68138
287.96253
305.21488
320.46535
333.73897
345.06091
354.46488
361.99127
367.63158
371.24016
372.69759
-1.5511995
-3.4418823
-5.416137
-7.4115132
-9.4410241
-11.513644
-13.638758
-15.82595
-18.085055
-20.426199
-22.859834
-25.396779
-28.048261
-30.825951
-33.742013
-36.809135
-40.040581
-43.450226
-47.052605
-50.862948
-54.897231
-59.172208
-63.705462
-68.515436
-73.621479
-79.04387
-84.803862
-90.923701
-97.42665
-104.33701
-111.68011
-119.48233
-127.77109
-136.57479
-145.92278
-155.84531
-166.37344
-177.53893
-189.37409
-201.91161
-215.18435
-229.22508
-244.06616
-259.7392
-276.2746
-293.70106
-312.04502
-331.32998
-351.57578
-372.79768
-395.0055
-418.2025
-442.38424
-467.53729
-493.6379
-520.65046
-548.52603
-577.20067
-606.59386
-636.60683
-667.12102
-697.99663
-729.07133
-760.15933
-791.05067
-821.51117
-851.28276
-880.08468
-907.61538
-933.55533
-957.57091
-979.31917
-998.45388
-1014.6324
-1027.5234
-1036.8143
-1042.2203
-1043.4963
-1040.4503
-1032.9392
-1020.8772
-1004.2432
-983.08319
-957.5108
-927.70577
-893.90974
-856.4202
-815.58268
-771.78157
-725.43012
-676.96008
-626.81153
-575.42315
-523.22358
-470.62374
-418.0107
-365.74278
-314.14615
-263.51271
-214.09921
-166.12735
-119.78482
-75.226946
-32.578918
8.061612
46.621756
83.050491
117.31576
149.40164
179.30566
207.03623
232.61034
256.0514
277.3874
296.64929
313.86944
329.07957
342.30892
353.58634
362.94857
370.43843
376.04965
379.63892
381.08842
-1.5151388
-3.3609629
-5.2884507
-7.2366427
-9.2182889
-11.242191
-13.317554
-15.453779
-17.660522
-19.947725
-22.325656
-24.804951
-27.396652
-30.11225
-32.963723
-35.963581
-39.124913
-42.46142
-45.987472
-49.718141
-53.669256
-57.857439
-62.300154
-67.015747
-72.023492
-77.343626
-82.997392
-89.007065
-95.395992
-102.1886
-109.41043
-117.08814
-125.24949
-133.92336
-143.13966
-152.92934
-163.32429
-174.35728
-186.06178
-198.47185
-211.62192
-225.5466
-240.28028
-255.85693
-272.30955
-289.66979
-307.96732
-327.2292
-347.47915
-368.73666
-391.01603
-414.32532
-438.66511
-464.02717
-490.39306
-517.7325
-546.00174
-575.1418
-605.07667
-635.71151
-666.93078
-698.59664
-730.54732
-762.59591
-794.52942
-826.10833
-857.06677
-887.11344
-915.93332
-943.1905
-968.532
-991.59281
-1012.0022
-1029.3911
-1043.4007
-1053.6906
-1059.9482
-1061.9022
-1059.3397
-1052.0999
-1040.0837
-1023.2625
-1001.6811
-975.45859
-944.78658
-909.92443
-871.19257
-828.96366
-783.65216
-735.70309
-685.58042
-633.7556
-580.69695
-526.86001
-472.67933
-418.56186
-364.88186
-311.97751
-260.14892
-209.65749
-160.72643
-113.54215
-68.256414
-24.988966
16.169428
55.153804
91.921753
126.45021
158.73234
188.77467
216.59433
242.21662
265.67272
286.99786
306.2296
323.40623
338.56479
351.7392
362.9623
372.27418
379.72034
385.2969
388.86326
390.30334
-1.4755084
-3.2725866
-5.1493301
-7.046339
-8.9760631
-10.947113
-12.968497
-15.049418
-17.199334
-19.427986
-21.745443
-24.162138
-26.688912
-29.337054
-32.118342
-35.045089
-38.130186
-41.387145
-44.83015
-48.474098
-52.334652
-56.42828
-60.772313
-65.384982
-70.285472
-75.49396
-81.031669
-86.920893
-93.185051
-99.848702
-106.93759
-114.47864
-122.5
-131.03102
-140.1022
-149.74524
-159.99291
-170.87902
-182.4383
-194.70627
-207.71907
-221.51321
-236.12535
-251.59196
-267.94889
-285.23098
-303.47141
-322.70117
-342.94823
-364.2367
-386.58589
-410.00916
-434.51268
-460.09407
-486.74086
-514.42881
-543.12012
-572.76153
-603.28235
-634.59235
-666.5798
-699.10939
-732.02045
-765.12534
-798.20815
-831.02395
-863.29866
-894.72961
-924.98716
-953.71729
-980.54554
-1005.0821
-1026.9287
-1045.6862
-1060.9642
-1072.3903
-1079.6201
-1082.3518
-1080.3476
-1073.4259
-1061.4722
-1044.4488
-1022.3991
-995.44818
-963.80118
-927.73805
-887.60584
-843.8086
-796.79561
-747.04857
-695.0685
-641.36287
-586.43376
-530.76723
-474.82443
-419.03447
-363.78923
-309.43986
-256.29512
-204.62103
-154.64183
-106.54189
-60.468344
-16.534317
25.177609
64.611739
101.73561
136.53646
169.0178
199.1963
227.09889
252.76012
276.21989
297.52137
316.70942
333.82889
348.9226
362.0296
373.1871
382.43878
389.83306
395.36868
398.90802
400.33702
-1.4333415
-3.1780551
-5.0002091
-6.8421382
-8.7159806
-10.630142
-12.593418
-14.614797
-16.703521
-18.869114
-21.121426
-23.470672
-25.927473
-28.502896
-31.208503
-34.056386
-37.059223
-40.230315
-43.583641
-47.133903
-50.896577
-54.887959
-59.125225
-63.626472
-68.410779
-73.498247
-78.910059
-84.668519
-90.797104
-97.320495
-104.26463
-111.65672
-119.52529
-127.90017
-136.81249
-146.29469
-156.38048
-167.10478
-178.50363
-190.6141
-203.4741
-217.12225
-231.59757
-246.93923
-263.18615
-280.37659
-298.54756
-317.73428
-337.96936
-359.282
-381.69697
-405.23349
-429.90394
-455.71243
-482.65321
-510.70882
-539.84826
-570.02485
-601.17403
-633.21114
-666.029
-699.49567
-733.45223
-767.7108
-802.05288
-836.22816
-869.95402
-902.91576
-934.76791
-965.1367
-993.62389
-1019.8121
-1043.2719
-1063.5704
-1080.2812
-1092.995
-1101.3309
-1104.9521
-1103.5909
-1097.0413
-1085.1709
-1067.9314
-1045.3639
-1017.6003
-984.86137
-947.45072
-905.74619
-860.18817
-811.26614
-759.50407
-705.44548
-649.63901
-592.62511
-534.92432
-477.02754
-419.3885
-362.41827
-306.48198
-251.8973
-198.93465
-147.81861
-98.730492
-51.811582
-7.1669468
35.130506
75.035869
112.52814
147.60626
180.28547
210.59383
238.56919
264.25642
287.70498
308.96685
328.09483
345.14092
360.15427
373.17946
384.25841
393.4387
400.77183
406.25942
409.76715
411.18321
-1.3877958
-3.0764322
-4.8401913
-6.6232123
-8.4372867
-10.290598
-12.191711
-14.149385
-16.172627
-18.270728
-20.453302
-22.730326
-25.112183
-27.609701
-30.234202
-32.997543
-35.912165
-38.99114
-42.24822
-45.697888
-49.355415
-53.236903
-57.359352
-61.740705
-66.399911
-71.356976
-76.633026
-82.250355
-88.232483
-94.604204
-101.39164
-108.62228
-116.32501
-124.53016
-133.2695
-142.57625
-152.48506
-163.03201
-174.25452
-186.19126
-198.88205
-212.36769
-226.68971
-241.89017
-258.01125
-275.09487
-293.18217
-312.31291
-332.52476
-353.85242
-376.32662
-399.97303
-424.81086
-450.85142
-478.09644
-506.5361
-536.14708
-566.89021
-598.70809
-631.52256
-665.23203
-699.70881
-734.79658
-770.30791
-806.02218
-841.6839
-877.00175
-911.64841
-945.2615
-977.44578
-1007.777
-1035.807
-1061.0718
-1083.1001
-1101.4248
-1115.5943
-1125.1858
-1129.8224
-1129.2005
-1123.0854
-1111.3244
-1093.8562
-1070.7187
-1042.0516
-1008.0935
-969.17525
-925.71039
-878.18127
-827.12374
-773.11039
-716.73346
-658.58853
-599.25954
-539.30582
-479.25148
-419.57733
-360.71532
-303.04533
-246.89413
-192.53602
-140.19503
-90.048132
-42.229236
3.1663039
46.076979
86.470394
124.33867
159.69407
192.56497
222.99222
251.0258
276.72193
300.1406
321.34339
340.39179
357.34552
372.26056
385.18742
396.17313
405.26938
412.53097
417.96258
421.43355
422.83458
-1.3397573
-2.9688493
-4.6705387
-6.3909283
-8.1414497
-9.9300501
-11.765047
-13.654954
-15.608527
-17.634806
-19.74315
-21.94328
-24.245323
-26.659849
-29.197921
-31.871138
-34.691686
-37.672382
-40.826733
-44.168983
-47.714169
-51.47818
-55.477814
-59.730838
-64.256047
-69.073332
-74.203737
-79.669524
-85.49424
-91.702768
-98.321403
-105.37789
-112.90149
-120.92303
-129.47489
-138.5911
-148.30729
-158.66072
-169.69022
-181.43615
-193.9403
-207.24575
-221.39671
-236.43824
-252.41599
-269.3758
-287.36319
-306.42281
-326.59775
-347.92866
-370.45277
-394.20275
-419.20532
-445.47975
-473.03603
-501.87293
-531.97575
-563.31391
-595.83824
-629.47824
-664.13901
-699.69825
-736.00324
-772.8679
-810.07015
-847.34973
-884.40666
-920.90054
-956.45107
-990.63991
-1023.0143
-1053.0925
-1080.3715
-1104.3371
-1124.4759
-1140.2883
-1151.3029
-1157.0966
-1157.3234
-1151.7159
-1140.0966
-1122.3885
-1098.626
-1068.957
-1033.6404
-993.039
-947.60723
-897.87602
-844.43473
-787.91183
-728.95537
-668.21437
-606.32198
-543.88103
-481.45251
-419.54694
-358.61874
-299.06325
-241.21619
-185.35506
-131.70207
-80.428254
-31.658348
14.523959
58.070543
98.963468
137.20984
172.83698
205.88804
236.41803
264.49035
290.17375
313.53967
334.66016
353.60606
370.44544
385.2416
398.0514
408.92725
417.92526
425.10369
430.47045
433.89894
435.28262
-1.2885911
-2.8546341
-4.4906485
-6.1447757
-7.8280556
-9.5481821
-11.31321
-13.131388
-15.011205
-16.961432
-18.991157
-21.109827
-23.327291
-25.653842
-28.100265
-30.677879
-33.398593
-36.27495
-39.320186
-42.54828
-45.974018
-49.613044
-53.481934
-57.598249
-61.980609
-66.648757
-71.623635
-76.927446
-82.583739
-88.617464
-95.055066
-101.92453
-109.25548
-117.07921
-125.42874
-134.33888
-143.84627
-153.98935
-164.80843
-176.34558
-188.64463
-201.75106
-215.71182
-230.57518
-246.39042
-263.20749
-281.07659
-300.04758
-320.16936
-341.48896
-364.05063
-387.89467
-413.05598
-439.56254
-467.43354
-496.67727
-527.28874
-559.24708
-592.51262
-627.02376
-662.69365
-699.40665
-737.01488
-775.33472
-814.14357
-853.17703
-892.12669
-930.63884
-968.31437
-1004.7103
-1039.3428
-1071.6933
-1101.2155
-1127.3471
-1149.5222
-1167.1866
-1179.8132
-1186.9244
-1188.1255
-1183.1103
-1171.6723
-1153.7156
-1129.2695
-1098.4914
-1061.6636
-1019.1853
-971.55857
-919.37045
-863.27204
-803.9561
-742.13456
-678.51724
-613.79284
-548.61292
-483.57927
-419.23481
-356.05795
-294.45998
-234.78519
-177.31319
-122.26277
-69.797113
-20.029552
26.970145
71.169509
112.56726
151.18757
187.07473
220.28836
250.89922
278.98547
304.62951
327.91529
348.92615
367.743
384.44282
399.09672
411.76831
422.51571
431.39963
438.48197
443.77406
447.15373
448.51748
-1.2349773
-2.7346781
-4.3015405
-5.8858838
-7.4983407
-9.146337
-10.837649
-12.580244
-14.382327
-16.252383
-18.199208
-20.231958
-22.360187
-24.593888
-26.943548
-29.420187
-32.035412
-34.801468
-37.731299
-40.838593
-44.137857
-47.644468
-51.374747
-55.346026
-59.576717
-64.08639
-68.895852
-74.027221
-79.504014
-85.351225
-91.595417
-98.264797
-105.38932
-113.00073
-121.13267
-129.82074
-139.10256
-149.0178
-159.60822
-170.91767
-182.99208
-195.87938
-209.62939
-224.29369
-239.92537
-256.57872
-274.30884
-293.17115
-313.22068
-334.51135
-357.09495
-381.01997
-406.33027
-433.06334
-461.24849
-490.90456
-522.03746
-554.63728
-588.67522
-624.10004
-660.8344
-698.77088
-737.76792
-777.64575
-818.18243
-859.11033
-900.11314
-940.82381
-980.82378
-1019.6438
-1056.7669
-1091.6337
-1123.6504
-1152.2006
-1176.6594
-1196.4099
-1210.8613
-1219.473
-1221.7925
-1217.4688
-1206.2604
-1188.049
-1162.8573
-1130.8529
-1092.3451
-1047.7754
-997.7008
-942.77342
-883.71568
-821.29431
-756.29436
-689.4948
-621.64703
-553.45701
-485.57154
-418.56868
-352.95221
-289.14959
-227.51297
-168.32254
-111.79168
-58.073269
-7.2667004
40.574837
85.437127
127.33803
166.32105
202.44955
235.80151
266.46506
294.53453
320.1072
343.28054
364.15002
382.80734
399.33897
413.82428
426.33397
436.93219
445.68446
452.65642
457.86301
461.18688
462.52789
-1.1785087
-2.6085948
-4.1029251
-5.6140756
-7.1522443
-8.7245722
-10.338541
-12.001819
-13.722312
-15.508199
-17.36797
-19.310467
-21.34493
-23.481034
-25.728946
-28.099362
-30.603568
-33.253487
-36.061742
-39.041708
-42.207583
-45.57445
-49.158347
-52.976342
-57.046612
-61.388519
-66.022703
-70.97116
-76.257345
-81.906259
-87.944552
-94.400616
-101.3047
-108.689
-116.58773
-125.03727
-134.0762
-143.74541
-154.08815
-165.15004
-176.97916
-189.62594
-203.14316
-217.58582
-233.01097
-249.47744
-267.04548
-285.77632
-305.73157
-326.97241
-349.55872
-373.54786
-398.9933
-425.94297
-454.43723
-484.50662
-516.16916
-549.42735
-584.2647
-620.64202
-658.49317
-697.72071
-738.19117
-779.73029
-822.11834
-865.08571
-908.30901
-951.40816
-993.94468
-1035.4218
-1075.2869
-1112.9363
-1147.7237
-1178.9722
-1205.9905
-1228.0903
-1244.6077
-1254.9286
-1258.5326
-1255.0163
-1244.0966
-1225.6278
-1199.6244
-1166.2652
-1125.8906
-1078.9906
-1026.1865
-968.20571
-905.85315
-839.9808
-771.45746
-701.14075
-629.85272
-558.35999
-487.35881
-417.46513
-349.20929
-283.0348
-219.30047
-158.28509
-100.19406
-45.167058
6.7135135
55.414104
100.94171
143.33609
182.66266
219.00611
252.46478
283.14591
311.16149
336.62493
359.64825
380.33989
398.80305
415.13421
429.42144
441.74291
452.16901
460.77025
467.61612
472.72533
475.98576
477.30094
-1.1196698
-2.4770521
-3.8955999
-5.3302669
-6.7907984
-8.2840365
-9.8171513
-11.397498
-13.032664
-14.730506
-16.499188
-18.347221
-20.283511
-22.317394
-24.458694
-26.717764
-29.105543
-31.633606
-34.314231
-37.160452
-40.186131
-43.406023
-46.835853
-50.492395
-54.393552
-58.558445
-63.007507
-67.762578
-72.84701
-78.285768
-84.105552
-90.3349
-97.004324
-104.1464
-111.79592
-119.98998
-128.76813
-138.17244
-148.24762
-159.04112
-170.60313
-182.98666
-196.2475
-210.44417
-225.63781
-241.89193
-259.27219
-277.84592
-297.68162
-318.84822
-341.41418
-365.44637
-391.00866
-418.16026
-446.95365
-477.43223
-509.6275
-543.55583
-579.21479
-616.57897
-655.59544
-696.17875
-738.20557
-781.50921
-825.87405
-871.0301
-916.64816
-962.33575
-1007.6344
-1052.0187
-1094.898
-1135.6208
-1173.4829
-1207.7404
-1237.6265
-1262.3723
-1281.2293
-1293.4986
-1298.5793
-1296.0064
-1285.447
-1266.7228
-1239.8373
-1204.9818
-1162.5321
-1113.0351
-1057.1864
-995.8011
-929.77987
-860.07297
-787.6452
-713.44363
-638.3699
-563.25808
-488.85859
-415.82794
-344.72396
-276.00562
-210.0366
-147.09172
-87.365189
-30.980048
22.001916
71.570316
117.75671
160.62588
200.26792
236.79132
270.31696
300.97299
328.89063
354.20067
377.03073
397.50307
415.73302
431.82762
445.88401
457.98814
468.21688
476.64585
483.34846
488.34734
491.53601
492.82199
-1.0582469
-2.3399054
-3.6795398
-5.0345618
-6.4142397
-7.8251005
-9.2739873
-10.767925
-12.314166
-13.920226
-15.593927
-17.343429
-19.177283
-21.104467
-23.13444
-25.277187
-27.543276
-29.943911
-32.490996
-35.197195
-38.076002
-41.141816
-44.410015
-47.89704
-51.620486
-55.599191
-59.853343
-64.404579
-69.276106
-74.492808
-80.081386
-86.070476
-92.490801
-99.37529
-106.75923
-114.68043
-123.17933
-132.29918
-142.08613
-152.58939
-163.86133
-175.95752
-188.93681
-202.86131
-217.79634
-233.81028
-250.97436
-269.3623
-289.04981
-310.11399
-332.63242
-356.68211
-382.3381
-409.67178
-438.74885
-469.62681
-502.35209
-536.95657
-573.45367
-611.83385
-652.05955
-694.05961
-737.72329
-782.89389
-829.36217
-876.85992
-925.05381
-973.5401
-1021.8406
-1069.4005
-1115.589
-1159.7031
-1200.9752
-1238.5868
-1271.6864
-1299.4131
-1320.9215
-1335.4138
-1342.1941
-1340.7244
-1330.6126
-1311.6406
-1283.7979
-1247.2894
-1202.532
-1150.1383
-1090.8912
-1025.7077
-955.59962
-881.63091
-804.87655
-726.38537
-647.14856
-568.07512
-489.97448
-413.54628
-339.37632
-267.93783
-199.59697
-134.62119
-73.189629
-15.404503
38.697199
89.132316
135.96077
179.27579
219.19526
255.85413
289.39808
319.97812
347.74626
372.85199
395.43952
415.64578
433.59885
449.41678
463.20616
475.06097
485.06471
493.29826
499.83895
504.71343
507.82132
509.07446
-0.99457811
-2.1976591
-3.4553855
-4.7277308
-6.0234676
-7.3487938
-8.7102095
-10.114393
-11.568245
-13.078925
-14.65389
-16.300934
-18.028232
-19.844381
-21.758455
-23.780047
-25.919329
-28.187106
-30.594882
-33.15492
-35.880318
-38.78508
-41.884202
-45.193757
-48.730989
-52.514412
-56.563923
-60.90091
-65.548382
-70.531091
-75.875687
-81.610845
-87.767444
-94.378704
-101.48036
-109.11086
-117.31151
-126.12664
-135.60384
-145.79405
-156.75176
-168.53513
-181.20606
-194.83032
-209.47749
-225.22092
-242.1376
-260.30785
-279.81495
-300.74455
-323.18386
-347.22065
-372.94192
-400.43219
-429.77147
-461.03271
-494.27877
-529.55882
-566.90414
-606.32327
-647.79648
-691.26958
-736.64719
-783.78543
-832.48429
-882.47996
-933.43724
-984.94279
-1036.4995
-1087.5229
-1137.3403
-1185.1933
-1230.2455
-1271.5955
-1308.2967
-1339.3834
-1363.899
-1380.9306
-1389.67
-1389.4922
-1379.9339
-1360.729
-1331.8491
-1293.5137
-1246.1871
-1190.5593
-1127.5144
-1058.0893
-983.42497
-904.717
-823.16698
-739.93957
-656.1267
-572.7203
-490.59389
-410.49249
-333.02979
-258.69137
-187.84251
-120.73907
-57.540368
1.677172
56.90625
108.19557
155.63769
199.35814
239.50588
276.24525
309.74912