/*--------------------------------*- C++ -*----------------------------------*\
| =========                 |                                                 |
| \\      /  F ield         | foam-extend: Open Source CFD                    |
|  \\    /   O peration     | Version:     4.1                                |
|   \\  /    A nd           | Web:         http://www.foam-extend.org         |
|    \\/     M anipulation  |                                                 |
\*---------------------------------------------------------------------------*/
FoamFile
{
    version     2.0;
    format      ascii;
    class       surfaceScalarField;
    location    "0.25";
    object      phi;
}
// * * * * * * * * * * * * * * * * * * * * * * * * * * * * * * * * * * * * * //

dimensions      [0 3 -1 0 0 0 0];

internalField   nonuniform List<scalar> 
32976
(
-0.24552728
2.3153628e-05
-0.24555052
2.3236179e-05
-0.24557393
2.3419412e-05
-0.24559764
2.3707372e-05
-0.24562174
2.4100545e-05
-0.24564634
2.4600779e-05
-0.24567155
2.5209523e-05
-0.24569748
2.5929422e-05
-0.24572425
2.6762689e-05
-0.24575196
2.7712771e-05
-0.24578074
2.8782636e-05
-0.24581072
2.9976541e-05
-0.24584202
3.1298195e-05
-0.24587477
3.2752662e-05
-0.24590911
3.4344375e-05
-0.24594519
3.6079196e-05
-0.24598315
3.7962243e-05
-0.24602315
4.0000151e-05
-0.24606535
4.2198665e-05
-0.24610992
4.4565137e-05
-0.24615702
4.7105851e-05
-0.24620685
4.9828787e-05
-0.24625959
5.2740635e-05
-0.24631544
5.5849867e-05
-0.24637461
5.9163382e-05
-0.2464373
6.268994e-05
-0.24650373
6.6436384e-05
-0.24657414
7.0411472e-05
-0.24664877
7.4621624e-05
-0.24672784
7.9075199e-05
-0.24681162
8.3777699e-05
-0.24690035
8.873619e-05
-0.24699431
9.3956081e-05
-0.24709375
9.9440567e-05
-0.24719895
0.00010519432
-0.24731016
0.00011121733
-0.24742767
0.00011751123
-0.24755175
0.00012407198
-0.24768264
0.00013089691
-0.24782062
0.00013797659
-0.24796592
0.00014530254
-0.24811878
0.00015285843
-0.24827941
0.00016062736
-0.24844799
0.00016858567
-0.2486247
0.00017670531
-0.24880965
0.00018495239
-0.24900294
0.0001932867
-0.2492046
0.00020166153
-0.24941462
0.00021002233
-0.24963293
0.00021830699
-0.24985937
0.00022644495
-0.25009373
0.00023435689
-0.25033569
0.00024195434
-0.25058483
0.00024913989
-0.25084063
0.00025580627
-0.25110247
0.00026183739
-0.25136958
0.00026710827
-0.25164106
0.00027148573
-0.25191589
0.00027482924
-0.25219288
0.00027699275
-0.25247071
0.00027782518
-0.25274788
0.00027717365
-0.25302277
0.00027488537
-0.25329358
0.00027081063
-0.25355839
0.00026480619
-0.25381512
0.00025673884
-0.25406161
0.00024649005
-0.25429557
0.00023395922
-0.25451464
0.00021906925
-0.25471641
0.00020177056
-0.25489846
0.00018204559
-0.25505837
0.00015991283
-0.2551938
0.00013543067
-0.2553025
0.00010869955
-0.25538237
7.986432e-05
-0.25543148
4.9114665e-05
-0.25544817
1.6685145e-05
-0.25543102
-1.714555e-05
-0.25537896
-5.2063348e-05
-0.25529124
-8.7722299e-05
-0.25516749
-0.00012374965
-0.25500773
-0.00015975392
-0.2548124
-0.00019533388
-0.25458231
-0.00023008795
-0.25431869
-0.00026362385
-0.25402312
-0.00029556805
-0.25369754
-0.00032557458
-0.25334421
-0.00035333283
-0.25296564
-0.00037857411
-0.25256456
-0.0004010765
-0.25214389
-0.00042066894
-0.25170666
-0.00043723116
-0.25125596
-0.00045069515
-0.25079492
-0.00046104265
-0.25032662
-0.00046830223
-0.24985407
-0.00047254501
-0.2493802
-0.00047387941
-0.24890775
-0.00047244639
-0.24843934
-0.00046841151
-0.24797738
-0.0004619608
-0.24752408
-0.00045329386
-0.24708146
-0.00044261847
-0.24665132
-0.00043014529
-0.24623523
-0.0004160842
-0.2458346
-0.00040063862
-0.24545059
-0.00038400399
-0.24508423
-0.00036636432
-0.24473634
-0.00034789035
-0.2444076
-0.00032873797
-0.24409855
-0.00030904811
-0.24380961
-0.00028894483
-0.24354107
-0.00026853676
-0.24329315
-0.00024791669
-0.24306599
-0.00022716225
-0.24285965
-0.00020633665
-0.24267416
-0.00018549007
-0.2425095
-0.00016465982
-0.24236563
-0.0001438724
-0.24224249
-0.00012314426
-0.24214
-0.00010248315
-0.24205812
-8.1889498e-05
-0.24199676
-6.1357769e-05
-0.24195588
-4.0876765e-05
-2.0430566e-05
-0.24553733
4.6260352e-05
-0.24556052
4.6426054e-05
-0.24558389
4.6792305e-05
-0.24560755
4.7367772e-05
-0.24563161
4.8153466e-05
-0.24565616
4.9153106e-05
-0.24568132
5.0369589e-05
-0.2457072
5.1808208e-05
-0.24573391
5.3473388e-05
-0.24576157
5.5372026e-05
-0.2457903
5.7510056e-05
-0.24582021
5.9895992e-05
-0.24585145
6.2537253e-05
-0.24588415
6.5443973e-05
-0.24591843
6.8625017e-05
-0.24595444
7.2092115e-05
-0.24599233
7.5855508e-05
-0.24603226
7.9928471e-05
-0.24607438
8.4322504e-05
-0.24611887
8.9052322e-05
-0.2461659
9.4130507e-05
-0.24621564
9.9573037e-05
-0.24626829
0.00010539331
-0.24632405
0.00011160829
-0.24638312
0.00011823181
-0.24644571
0.00012528142
-0.24651205
0.00013277084
-0.24658235
0.00014071765
-0.24665687
0.00014913472
-0.24673583
0.00015803885
-0.24681949
0.0001674411
-0.24690811
0.00017735568
-0.24700195
0.0001877935
-0.24710127
0.00019876106
-0.24720634
0.00021026781
-0.24731744
0.00022231386
-0.24743483
0.0002349026
-0.24755879
0.00024802614
-0.24768957
0.0002616793
-0.24782743
0.00027584335
-0.24797263
0.00029050161
-0.2481254
0.00030562157
-0.24828594
0.00032116969
-0.24845445
0.00033709888
-0.2486311
0.00035335326
-0.24881601
0.00036986533
-0.24900928
0.0003865549
-0.24921095
0.0004033288
-0.249421
0.00042007816
-0.24963938
0.00043667896
-0.24986592
0.00045299029
-0.25010042
0.00046885364
-0.25034256
0.00048409211
-0.25059193
0.00049851096
-0.25084802
0.00051189554
-0.25111019
0.00052401353
-0.2513777
0.00053461466
-0.25164965
0.00054343215
-0.251925
0.00055018437
-0.25220259
0.00055457847
-0.25248107
0.00055631138
-0.25275898
0.00055507623
-0.25303466
0.00055056611
-0.25330633
0.00054248015
-0.25357205
0.00053053018
-0.25382976
0.00051444798
-0.25407726
0.00049399457
-0.25431227
0.00046896673
-0.25453241
0.00043920829
-0.25473526
0.00040461815
-0.25491837
0.00036515941
-0.25507933
0.00032086749
-0.25521575
0.00027185804
-0.25532538
0.00021833115
-0.2554061
0.00016057638
-0.25545596
9.8973615e-05
-0.25547326
3.3993143e-05
-0.2554566
-3.3807256e-05
-0.25540487
-0.00010379688
-0.25531731
-0.00017528066
-0.25519355
-0.00024750957
-0.25503361
-0.00031969681
-0.25483791
-0.00039103576
-0.25460727
-0.0004607191
-0.25434294
-0.00052795807
-0.25404651
-0.00059200176
-0.25371993
-0.00065215474
-0.25336547
-0.0007077929
-0.25298566
-0.00075837659
-0.25258328
-0.00080346047
-0.25216125
-0.00084270165
-0.25172262
-0.00087585957
-0.25127051
-0.00090279888
-0.25080807
-0.00092348436
-0.2503384
-0.00093797493
-0.24986453
-0.00094641503
-0.24938939
-0.00094902394
-0.24891575
-0.00094608622
-0.24844622
-0.00093793564
-0.24798324
-0.00092494687
-0.24752901
-0.00090752158
-0.24708555
-0.0008860776
-0.24665466
-0.00086103829
-0.24623791
-0.0008328252
-0.24583671
-0.0008018466
-0.24545222
-0.00076849461
-0.24508544
-0.00073313815
-0.24473721
-0.00069611934
-0.2444082
-0.00065775046
-0.24409894
-0.00061831352
-0.24380982
-0.00057805673
-0.24354116
-0.00053719726
-0.24329316
-0.00049592041
-0.24306594
-0.00045438116
-0.24285957
-0.00041270551
-0.24267407
-0.00037099336
-0.24250941
-0.00032931882
-0.24236555
-0.00028773438
-0.24224242
-0.00024627238
-0.24213995
-0.0002049478
-0.24205808
-0.00016376091
-0.24199674
-0.00012270006
-0.24195588
-8.1742413e-05
-4.0855784e-05
-0.24555674
6.9276309e-05
-0.24557984
6.9524729e-05
-0.24560312
7.0073362e-05
-0.24562669
7.0935396e-05
-0.24565064
7.2112334e-05
-0.2456751
7.3609755e-05
-0.24570016
7.5432012e-05
-0.24572594
7.7587043e-05
-0.24575255
8.0081488e-05
-0.2457801
8.292569e-05
-0.24580872
8.6128554e-05
-0.24583853
8.9702851e-05
-0.24586965
9.3659716e-05
-0.24590222
9.8014352e-05
-0.24593638
0.00010278007
-0.24597226
0.00010797446
-0.24601002
0.00011361292
-0.2460498
0.00011971536
-0.24609178
0.00012629907
-0.24613611
0.00013338613
-0.24618298
0.00014099546
-0.24623256
0.00014915107
-0.24628504
0.0001578731
-0.24634062
0.00016718707
-0.2463995
0.00017711378
-0.2464619
0.00018767966
-0.24652803
0.00019890538
-0.24659813
0.00021081741
-0.24667243
0.00022343521
-0.24675118
0.0002367841
-0.24683462
0.00025088088
-0.24692301
0.00026574706
-0.24701661
0.00028139921
-0.2471157
0.00029784734
-0.24722054
0.0003151059
-0.2473314
0.00033317538
-0.24744856
0.00035206122
-0.24757228
0.00037175194
-0.24770284
0.00039224022
-0.2478405
0.00041349843
-0.2479855
0.000435502
-0.24813808
0.00045820271
-0.24829846
0.00048155083
-0.24846684
0.00050547626
-0.24864338
0.00052989582
-0.24882823
0.00055470886
-0.24902147
0.00057979573
-0.24922315
0.00060501725
-0.24943329
0.0006302107
-0.2496518
0.00065519057
-0.24987855
0.00067974592
-0.25011334
0.00070363936
-0.25035585
0.00072660575
-0.2506057
0.000748353
-0.25086236
0.00076855899
-0.25112522
0.00078687479
-0.25139353
0.0008029243
-0.2516664
0.00081630633
-0.25194282
0.00082659698
-0.25222159
0.00083335514
-0.25250141
0.00083612394
-0.25278077
0.00083444031
-0.25305804
0.00082784067
-0.25333143
0.00081587001
-0.253599
0.00079809194
-0.25385865
0.00077409964
-0.25410818
0.00074352982
-0.25434529
0.00070607268
-0.25456757
0.00066148894
-0.25477257
0.0006096221
-0.25495783
0.0005504123
-0.25512087
0.00048390876
-0.25525929
0.00041028185
-0.25537079
0.00032982969
-0.2554532
0.00024298596
-0.25550455
0.00015032136
-0.2555231
5.254359e-05
-0.2555074
-4.9507791e-05
-0.25545631
-0.00015488031
-0.25536907
-0.00026252355
-0.25524528
-0.00037130513
-0.25508494
-0.00048003505
-0.25488848
-0.00058749292
-0.25465674
-0.00069245709
-0.25439097
-0.00079373396
-0.25409278
-0.00089018739
-0.25376417
-0.00098076551
-0.25340744
-0.0010645249
-0.25302516
-0.0011406505
-0.25262015
-0.0012084705
-0.25219539
-0.0012674689
-0.25175396
-0.001317285
-0.25129904
-0.0013577174
-0.25083381
-0.0013887169
-0.25036141
-0.0014103763
-0.24988491
-0.001422918
-0.24940725
-0.0014266772
-0.24893125
-0.0014220874
-0.24845953
-0.001409656
-0.24799453
-0.0013899515
-0.24753847
-0.0013635826
-0.24709336
-0.0013311819
-0.24666101
-0.0012933894
-0.24624299
-0.0012508419
-0.24584068
-0.0012041553
-0.24545526
-0.0011539209
-0.2450877
-0.0011006942
-0.24473883
-0.0010449901
-0.2444093
-0.00098727799
-0.24409964
-0.00092798136
-0.24381022
-0.00086747262
-0.24354134
-0.00080607719
-0.24329319
-0.00074407244
-0.24306588
-0.00068168996
-0.24285947
-0.00061911773
-0.24267396
-0.0005565044
-0.24250932
-0.00049395987
-0.24236549
-0.00043156154
-0.2422424
-0.00036935654
-0.24213999
-0.00030736594
-0.24205816
-0.00024558873
-0.24199685
-0.00018400601
-0.24195601
-0.00012258232
-6.126789e-05
-0.245585
9.2156238e-05
-0.24560796
9.2486976e-05
-0.2456311
9.3217091e-05
-0.24565453
9.4364276e-05
-0.24567835
9.5930525e-05
-0.24570267
9.7923282e-05
-0.24572758
0.00010034836
-0.24575321
0.00010321633
-0.24577967
0.00010653606
-0.24580706
0.00011032133
-0.24583552
0.00011458402
-0.24586515
0.00011934117
-0.2458961
0.00012460762
-0.24592849
0.00013040366
-0.24596246
0.00013674704
-0.24599815
0.00014366126
-0.2460357
0.00015116684
-0.24607527
0.00015929038
-0.24611703
0.00016805497
-0.24616113
0.00017749011
-0.24620776
0.00018762109
-0.24625709
0.00019847998
-0.24630931
0.00021009374
-0.24636462
0.00022249651
-0.24642322
0.00023571617
-0.24648533
0.00024978808
-0.24655116
0.00026474003
-0.24662095
0.00028060748
-0.24669494
0.00029741666
-0.24677335
0.0003152016
-0.24685646
0.00033398503
-0.24694451
0.00035379597
-0.24703776
0.00037465696
-0.2471365
0.00039658182
-0.24724098
0.00041959033
-0.24735149
0.00044368375
-0.2474683
0.00046886996
-0.24759168
0.00049513439
-0.24772191
0.00052246806
-0.24785925
0.00055083497
-0.24800395
0.00058020329
-0.24815626
0.00061050973
-0.24831639
0.00064168898
-0.24848457
0.00067364871
-0.24866095
0.00070627912
-0.24884569
0.00073944716
-0.24903889
0.00077299446
-0.24924061
0.00080673657
-0.24945085
0.00084045762
-0.24966957
0.00087391123
-0.24989664
0.000906817
-0.25013186
0.00093885906
-0.25037494
0.00096968427
-0.25062549
0.00099890331
-0.25088302
0.0010260863
-0.25114691
0.0010507674
-0.25141643
0.0010724436
-0.2516907
0.0010905783
-0.25196871
0.0011046034
-0.25224928
0.0011139275
-0.2525311
0.0011179371
-0.25281267
0.0011160096
-0.25309235
0.001107521
-0.25336833
0.0010918575
-0.25363867
0.0010684297
-0.25390126
0.0010366866
-0.25415386
0.00099613478
-0.25439414
0.00094635187
-0.25461966
0.00088700939
-0.25482793
0.00081788952
-0.25501642
0.00073890394
-0.25518262
0.00065011087
-0.25532407
0.00055173166
-0.2554384
0.00044415991
-0.25552339
0.00032797252
-0.255577
0.00020393186
-0.25559744
7.2985567e-05
-0.25558321
-6.3740314e-05
-0.25553313
-0.0002049642
-0.25544638
-0.00034927143
-0.25532255
-0.00049513562
-0.25516163
-0.00064095164
-0.25496405
-0.00078507258
-0.25473066
-0.00092584942
-0.25446272
-0.001061671
-0.25416191
-0.0011910038
-0.25383024
-0.0013124291
-0.25347009
-0.0014246751
-0.2530841
-0.0015266447
-0.25267513
-0.0016174351
-0.25224625
-0.001696355
-0.25180061
-0.0017629234
-0.25134145
-0.0018168758
-0.25087202
-0.0018581526
-0.2503955
-0.0018868866
-0.24991504
-0.0019033848
-0.24943361
-0.0019081062
-0.24895406
-0.0019016411
-0.24847903
-0.0018846789
-0.24801099
-0.00185799
-0.24755218
-0.0018223977
-0.2471046
-0.0017787561
-0.24667007
-0.001727928
-0.24625014
-0.0016707707
-0.24584618
-0.0016081124
-0.24545935
-0.0015407468
-0.24509063
-0.0014694189
-0.2447408
-0.001394818
-0.24441051
-0.0013175719
-0.24410024
-0.0012382463
-0.24381038
-0.0011573377
-0.24354118
-0.0010752794
-0.24329281
-0.0009924401
-0.24306537
-0.0009091269
-0.2428589
-0.00082558851
-0.24267338
-0.0007420209
-0.24250878
-0.00065856821
-0.24236501
-0.00057533112
-0.24224199
-0.00049236991
-0.24213965
-0.00040971006
-0.24205789
-0.00032734754
-0.24199664
-0.00024525465
-0.24195584
-0.00016338159
-8.1659151e-05
-0.2456226
0.0001148551
-0.24564538
0.00011526805
-0.24566834
0.00011617853
-0.24569159
0.00011760899
-0.24571522
0.00011956199
-0.24573934
0.00012204684
-0.24576407
0.00012507081
-0.2457895
0.00012864712
-0.24581575
0.00013278685
-0.24584293
0.00013750722
-0.24587117
0.0001428231
-0.24590059
0.00014875577
-0.2459313
0.00015532382
-0.24596345
0.00016255261
-0.24599717
0.00017046435
-0.2460326
0.00017908845
-0.24606988
0.0001884506
-0.24610918
0.0001985841
-0.24615064
0.00020951788
-0.24619444
0.00022128889
-0.24624074
0.00023392885
-0.24628974
0.00024747797
-0.24634162
0.00026197013
-0.24639657
0.00027744812
-0.2464548
0.00029394704
-0.24651652
0.00031151134
-0.24658196
0.00033017605
-0.24665134
0.00034998582
-0.2467249
0.00037097386
-0.24680288
0.00039318312
-0.24688554
0.00041664256
-0.24697313
0.00044138905
-0.24706592
0.00046745143
-0.24716419
0.00049484771
-0.2472682
0.00052360347
-0.24737824
0.00055372125
-0.24749458
0.00058521191
-0.24761751
0.00061805842
-0.24774729
0.00065225079
-0.2478842
0.00068774541
-0.2480285
0.00072450396
-0.24818044
0.00076244891
-0.24834025
0.00080150031
-0.24850815
0.0008415445
-0.24868431
0.00088244606
-0.24886891
0.00092404055
-0.24906204
0.00096613184
-0.2492638
0.0010084912
-0.24947419
0.0010508506
-0.24969318
0.0010929037
-0.24992067
0.0011343012
-0.25015646
0.0011746496
-0.25040028
0.0012135079
-0.25065177
0.0012503898
-0.25091044
0.0012847575
-0.2511757
0.0013160274
-0.25144682
0.0013435689
-0.25172295
0.0013667078
-0.25200308
0.0013847301
-0.25228604
0.001396891
-0.25257052
0.0014024167
-0.25285504
0.0014005208
-0.25313793
0.0013904134
-0.25341739
0.0013713163
-0.25369144
0.0013424801
-0.25395795
0.0013032025
-0.25421467
0.001252852
-0.2544592
0.0011908855
-0.25468907
0.0011168769
-0.25490172
0.0010305392
-0.25509456
0.00093174787
-0.25526502
0.00082056372
-0.25541054
0.00069725369
-0.25552868
0.00056230343
-0.25561714
0.00041643164
-0.2556738
0.00026059334
-0.2556968
9.5979731e-05
-0.25568455
-7.59902e-05
-0.25563582
-0.00025369591
-0.25554974
-0.00043534656
-0.25542587
-0.00061900731
-0.25526418
-0.00080264176
-0.25506509
-0.00098415916
-0.25482948
-0.0011614654
-0.25455863
-0.0013325142
-0.25425428
-0.0014953587
-0.25391851
-0.0016481986
-0.25355376
-0.0017894219
-0.25316277
-0.00191764
-0.25274849
-0.0020317135
-0.25231407
-0.0021307725
-0.25186278
-0.0022142167
-0.25139793
-0.002281721
-0.25092286
-0.0023332217
-0.25044085
-0.0023688992
-0.24995508
-0.0023891549
-0.24946861
-0.0023945816
-0.24898431
-0.002385938
-0.24850488
-0.0023641063
-0.2480328
-0.0023300696
-0.24757032
-0.0022848762
-0.24711947
-0.0022296107
-0.24668203
-0.0021653673
-0.24625957
-0.0020932306
-0.24585344
-0.0020142469
-0.24546477
-0.0019294171
-0.2450945
-0.0018396791
-0.24474342
-0.0017458992
-0.24441213
-0.0016488652
-0.24410109
-0.0015492854
-0.24381065
-0.0014477807
-0.24354104
-0.0013448915
-0.2432924
-0.0012410767
-0.24306481
-0.0011367176
-0.24285828
-0.0010321219
-0.24267277
-0.00092753079
-0.24250821
-0.00082312069
-0.24236453
-0.00071901334
-0.24224162
-0.00061527993
-0.24213938
-0.00051194807
-0.24205772
-0.00040900852
-0.24199655
-0.00030642251
-0.24195581
-0.00020412374
-0.00010202112
-0.24566935
0.00013733024
-0.24569191
0.00013782371
-0.24571464
0.00013891284
-0.24573766
0.00014062419
-0.24576106
0.00014296072
-0.24578494
0.00014593361
-0.24580942
0.00014955157
-0.24583461
0.00015383046
-0.2458606
0.00015878358
-0.24588753
0.00016443159
-0.2459155
0.00017079235
-0.24594463
0.0001778914
-0.24597506
0.00018575105
-0.24600691
0.00019440176
-0.24604032
0.00020387023
-0.24607542
0.00021419177
-0.24611237
0.00022539729
-0.24615131
0.0002375268
-0.24619241
0.00025061513
-0.24623582
0.00026470674
-0.24628173
0.00027983983
-0.24633032
0.00029606283
-0.24638177
0.00031341662
-0.24643627
0.0003319528
-0.24649404
0.00035171382
-0.24655528
0.00037275336
-0.24662022
0.00039511389
-0.24668908
0.00041884948
-0.24676211
0.00044400057
-0.24683954
0.00047061935
-0.24692164
0.00049874133
-0.24700866
0.00052841162
-0.24710088
0.0005596658
-0.24719856
0.0005925266
-0.24730198
0.00062702594
-0.24741143
0.00066316826
-0.24752718
0.0007009681
-0.24764953
0.00074040674
-0.24777876
0.00078147399
-0.24791513
0.0008241196
-0.24805893
0.00086829971
-0.2482104
0.00091392363
-0.2483698
0.00096089787
-0.24853734
0.0010090887
-0.24871323
0.0010583361
-0.24889764
0.0011084458
-0.24909069
0.001159185
-0.24929248
0.001210282
-0.24950305
0.0012614178
-0.24972237
0.001312227
-0.24995036
0.0013622929
-0.25018686
0.0014111445
-0.2504316
0.0014582541
-0.25068425
0.0015030382
-0.25094435
0.0015448509
-0.25121131
0.0015829902
-0.25148444
0.0016166966
-0.25176289
0.0016451565
-0.25204566
0.001667507
-0.25233162
0.0016828463
-0.25261944
0.001690236
-0.25290764
0.0016887202
-0.25319456
0.0016773368
-0.25347838
0.0016551356
-0.2537571
0.0016211988
-0.25402856
0.0015746633
-0.25429046
0.0015147498
-0.25454035
0.0014407838
-0.25477571
0.0013522314
-0.2549939
0.0012487255
-0.25519224
0.0011300962
-0.25536808
0.0009963979
-0.25551876
0.00084793642
-0.25564174
0.00068528468
-0.25573461
0.00050930121
-0.25579515
0.00032113472
-0.2558214
0.00012222438
-0.25581168
-8.5709606e-05
-0.25576468
-0.00030069521
-0.25567948
-0.00052055032
-0.25555557
-0.00074291335
-0.25539291
-0.00096529583
-0.25519193
-0.001185141
-0.25495351
-0.0013998867
-0.254679
-0.0016070295
-0.25437017
-0.0018041881
-0.2540292
-0.0019891621
-0.25365864
-0.0021599838
-0.25326132
-0.0023149615
-0.25284032
-0.0024527113
-0.25239891
-0.0025721818
-0.25194048
-0.0026726534
-0.25146845
-0.0027537452
-0.25098628
-0.0028153968
-0.25049733
-0.0028578466
-0.25000488
-0.0028816023
-0.24951206
-0.0028874044
-0.2490218
-0.002876194
-0.24853685
-0.0028490604
-0.24805971
-0.0028072133
-0.24759264
-0.0027519387
-0.24713769
-0.0026845638
-0.24669663
-0.0026064242
-0.24627102
-0.002518841
-0.24586218
-0.0024230858
-0.24547123
-0.0023203724
-0.24509907
-0.002211836
-0.24474645
-0.002098523
-0.24441393
-0.0019813827
-0.24410195
-0.0018612672
-0.24381081
-0.0017389212
-0.24354071
-0.0016149918
-0.24329176
-0.0014900267
-0.243064
-0.0013644791
-0.2428574
-0.0012387137
-0.24267192
-0.0011130144
-0.24250745
-0.0009875872
-0.24236389
-0.00086257214
-0.24224113
-0.00073804852
-0.24213903
-0.00061404323
-0.2420575
-0.00049053899
-0.24199644
-0.00036748324
-0.24195577
-0.00024479036
-0.0001223444
-0.24572542
0.00015953457
-0.2457477
0.00016010928
-0.24577017
0.00016137555
-0.24579291
0.00016336499
-0.24581603
0.00016608123
-0.24583963
0.00016953728
-0.24586382
0.00017374335
-0.24588871
0.00017871792
-0.2459144
0.00018447651
-0.24594101
0.00019104323
-0.24596866
0.0001984389
-0.24599746
0.00020669333
-0.24602754
0.0002158326
-0.24605904
0.00022589223
-0.24609207
0.00023690346
-0.24612678
0.00024890749
-0.24616333
0.00026194051
-0.24620185
0.00027604927
-0.24624251
0.00029127454
-0.24628547
0.00030766834
-0.24633091
0.00032527546
-0.246379
0.00034415263
-0.24642993
0.00036434784
-0.2464839
0.00038592164
-0.24654111
0.000408924
-0.24660177
0.00043341799
-0.24666611
0.00045945379
-0.24673436
0.00048709515
-0.24680675
0.00051639002
-0.24688353
0.00054740019
-0.24696495
0.00058016817
-0.24705129
0.00061474771
-0.24714281
0.00065118169
-0.24723978
0.00068949816
-0.24734249
0.00072973602
-0.24745122
0.00077190239
-0.24756627
0.0008160163
-0.24768792
0.00086205826
-0.24781647
0.00091001892
-0.24795219
0.00095984244
-0.24809537
0.0010114806
-0.24824628
0.0010648309
-0.24840517
0.0011197876
-0.24857228
0.0011761983
-0.24874782
0.0012338802
-0.24893198
0.0012926102
-0.24912492
0.0013521208
-0.24932674
0.0014120987
-0.24953749
0.0014721753
-0.2497572
0.001531928
-0.24998578
0.0015908732
-0.2502231
0.0016484641
-0.25046893
0.0017040864
-0.25072295
0.0017570601
-0.25098473
0.001806631
-0.25125372
0.001851978
-0.25152923
0.0018922107
-0.25181045
0.0019263744
-0.2520964
0.0019534539
-0.25238594
0.0019723861
-0.25267776
0.0019820626
-0.25297039
0.0019813516
-0.25326217
0.0019691109
-0.25355124
0.0019442091
-0.25383559
0.0019055499
-0.25411303
0.0018520981
-0.25438119
0.0017829144
-0.25463759
0.00169718
-0.2548796
0.0015942401
-0.25510451
0.0014736349
-0.25530955
0.0013351367
-0.25549193
0.0011787829
-0.25564891
0.0010049094
-0.25577779
0.00081417033
-0.25587605
0.00060756119
-0.25594134
0.00038642542
-0.25597157
0.00015245532
-0.25596497
-9.2317767e-05
-0.25592011
-0.00034555518
-0.25583599
-0.00060466507
-0.25571207
-0.00086683636
-0.25554826
-0.001129103
-0.25534499
-0.0013884145
-0.25510316
-0.0016417127
-0.25482418
-0.0018860089
-0.25450991
-0.0021184616
-0.25416262
-0.0023364472
-0.25378498
-0.0025376235
-0.25337996
-0.0027199813
-0.25295079
-0.0028818828
-0.25250088
-0.003022091
-0.25203377
-0.0031397681
-0.25155303
-0.0032344831
-0.25106224
-0.0033061885
-0.25056489
-0.0033551935
-0.25006437
-0.0033821275
-0.24956387
-0.0033878958
-0.24906643
-0.0033736392
-0.24857482
-0.0033406718
-0.24809158
-0.0032904469
-0.24761902
-0.0032245039
-0.24715916
-0.003144427
-0.24671377
-0.0030518059
-0.24628441
-0.0029482087
-0.24587235
-0.002835141
-0.24547869
-0.0027140366
-0.24510429
-0.0025862329
-0.24474985
-0.0024529601
-0.24441591
-0.0023153309
-0.24410283
-0.002174342
-0.24381089
-0.0020308618
-0.24354024
-0.0018856426
-0.24329095
-0.0017393191
-0.24306301
-0.0015924144
-0.24285638
-0.0014453468
-0.24267095
-0.0012984405
-0.24250661
-0.0011519274
-0.24236322
-0.0010059626
-0.24224064
-0.0008606301
-0.24213873
-0.0007159526
-0.24205737
-0.00057190141
-0.24199644
-0.00042840685
-0.24195587
-0.00028536063
-0.00014261838
-0.2457903
0.00018142916
-0.24581227
0.00018208195
-0.24583442
0.0001835228
-0.24585684
0.00018578696
-0.24587963
0.00018887839
-0.24590291
0.00019281195
-0.24592676
0.00019759927
-0.24595131
0.00020326147
-0.24597665
0.0002098163
-0.2460029
0.00021729128
-0.24603017
0.00022571026
-0.24605858
0.00023510726
-0.24608826
0.00024551216
-0.24611933
0.00025696555
-0.24615193
0.00026950321
-0.2461862
0.00028317229
-0.24622227
0.00029801426
-0.24626031
0.00031408267
-0.24630046
0.00033142429
-0.24634289
0.00035009875
-0.24638777
0.00037015754
-0.24643528
0.00039166577
-0.24648561
0.00041467871
-0.24653896
0.00043926598
-0.24659552
0.00046548526
-0.24665551
0.00049340926
-0.24671915
0.00052309611
-0.24678668
0.00055461952
-0.24685832
0.00058803534
-0.24693434
0.00062341537
-0.24701498
0.00066080955
-0.24710051
0.00070028085
-0.24719121
0.00074188002
-0.24728735
0.00078564115
-0.24738923
0.00083161088
-0.24749712
0.00087979987
-0.24761134
0.00093023262
-0.24773217
0.00098288993
-0.24785992
0.0010377644
-0.24799487
0.001094796
-0.24813732
0.0011539336
-0.24828756
0.0012150641
-0.24844584
0.0012780714
-0.24861243
0.001342786
-0.24878755
0.0014090039
-0.24897142
0.0014764754
-0.2491642
0.0015448997
-0.24936602
0.0016139242
-0.24957698
0.0016831323
-0.2497971
0.0017520455
-0.25002634
0.0018201154
-0.2502646
0.0018867203
-0.25051167
0.0019511604
-0.25076727
0.0020126594
-0.25103099
0.002070355
-0.25130232
0.0021233057
-0.2515806
0.0021704896
-0.25186503
0.0022108073
-0.25215467
0.0022430882
-0.25244838
0.002266103
-0.25274489
0.0022785671
-0.2530427
0.0022791651
-0.25334016
0.0022665654
-0.25363539
0.0022394451
-0.25392636
0.0021965171
-0.25421082
0.0021365608
-0.25448637
0.0020584621
-0.25475043
0.0019612429
-0.2550003
0.0018441115
-0.25523317
0.0017064999
-0.25544614
0.0015481078
-0.2556363
0.0013689426
-0.25580075
0.0011693589
-0.25593666
0.00095008451
-0.25604135
0.00071224805
-0.25611231
0.00045738844
-0.25614732
0.00018745702
-0.25614444
-9.5192239e-05
-0.25610216
-0.00038783589
-0.25601937
-0.0006874503
-0.25589546
-0.00099074765
-0.25573031
-0.0012942532
-0.25552434
-0.0015943897
-0.25527848
-0.0018875684
-0.25499421
-0.0021702818
-0.25467347
-0.0024391966
-0.25431868
-0.0026912383
-0.25393264
-0.002923667
-0.25351848
-0.003134139
-0.25307961
-0.0033207513
-0.25261963
-0.003482077
-0.25214223
-0.0036171618
-0.25165119
-0.0037255315
-0.25115021
-0.0038071636
-0.25064295
-0.0038624543
-0.2501329
-0.0038921735
-0.24962339
-0.0038974113
-0.2491175
-0.00387953
-0.24861808
-0.0038400897
-0.24812772
-0.0037808074
-0.24764873
-0.0037034952
-0.24718314
-0.003610011
-0.24673274
-0.0035022134
-0.24629901
-0.00338193
-0.24588324
-0.0032509109
-0.24548646
-0.0031108176
-0.2451095
-0.0029631957
-0.244753
-0.0028094625
-0.24441743
-0.0026508971
-0.24410313
-0.0024886409
-0.24381031
-0.0023236857
-0.24353906
-0.0021568875
-0.24328942
-0.0019889655
-0.24306132
-0.0018205098
-0.24285468
-0.0016519894
-0.24266936
-0.0014837643
-0.2425052
-0.0013160889
-0.24236203
-0.0011491293
-0.24223969
-0.00098297001
-0.24213802
-0.0008176257
-0.24205686
-0.0006530522
-0.24199611
-0.00048915881
-0.24195566
-0.00032581073
-0.00016283098
-0.24586444
0.00020296495
-0.24588606
0.00020369733
-0.24590784
0.00020531086
-0.2459299
0.00020784603
-0.24595233
0.00021130756
-0.24597523
0.00021571214
-0.24599871
0.00022107289
-0.24602286
0.00022741352
-0.2460478
0.00023475403
-0.24607363
0.00024312535
-0.24610047
0.00025255433
-0.24612845
0.00026307926
-0.24615767
0.00027473376
-0.24618827
0.00028756356
-0.24622037
0.00030160897
-0.24625412
0.00031692311
-0.24628966
0.00033355277
-0.24632714
0.00035155834
-0.2463667
0.00037099267
-0.24640853
0.00039192307
-0.24645278
0.00041440783
-0.24649963
0.00043852054
-0.24654928
0.0004643239
-0.24660191
0.00049189678
-0.24665773
0.00052130479
-0.24671695
0.0005526305
-0.2467798
0.00058594031
-0.24684649
0.0006213182
-0.24691729
0.00065882836
-0.24699242
0.000698553
-0.24707217
0.00074055006
-0.24715678
0.00078489233
-0.24724654
0.00083163911
-0.24734173
0.0008808313
-0.24744264
0.00093252417
-0.24754957
0.00098673291
-0.24766283
0.0010434886
-0.24778271
0.0011027735
-0.24790953
0.0011645836
-0.24804359
0.001228856
-0.2481852
0.0012955382
-0.24833464
0.0013645085
-0.24849221
0.0014356421
-0.24865818
0.0015087544
-0.2488328
0.0015836223
-0.24901629
0.0016599714
-0.24920886
0.0017374701
-0.24941067
0.0018157282
-0.24962182
0.0018942836
-0.24984238
0.0019726039
-0.25007234
0.0020500775
-0.25031163
0.0021260094
-0.25056008
0.0021996155
-0.25081745
0.002270024
-0.25108336
0.0023362641
-0.25135733
0.002397274
-0.25163873
0.0024518977
-0.25192682
0.0024988891
-0.25222064
0.0025369177
-0.25251912
0.0025645829
-0.25282097
0.0025804167
-0.25312472
0.0025829113
-0.25342869
0.0025705358
-0.25373101
0.002541763
-0.25402959
0.0024951012
-0.25432216
0.0024291288
-0.25460624
0.0023425399
-0.25487917
0.002234179
-0.25513816
0.0021030988
-0.25538027
0.0019486046
-0.25560246
0.0017703057
-0.25580169
0.0015681631
-0.25597486
0.0013425373
-0.256119
0.0010942195
-0.25623122
0.00082446636
-0.25630884
0.00053501272
-0.25634946
0.00022807527
-0.256351
-9.3656357e-05
-0.25631178
-0.0004270529
-0.2562306
-0.00076863295
-0.25610674
-0.0011145995
-0.25594006
-0.0014609323
-0.25573097
-0.0018034874
-0.25548043
-0.0021381045
-0.25519
-0.002460717
-0.25486173
-0.0027674622
-0.25449819
-0.0030547815
-0.25410234
-0.0033195099
-0.25367753
-0.0035589485
-0.25322737
-0.0037709172
-0.25275565
-0.0039537934
-0.25226631
-0.0041065089
-0.25176328
-0.0042285555
-0.25125049
-0.0043199508
-0.25073175
-0.0043811971
-0.2502107
-0.0044132275
-0.24969077
-0.0044173419
-0.24917515
-0.0043951493
-0.24866676
-0.0043484808
-0.24816822
-0.0042793415
-0.24768188
-0.0041898378
-0.24720977
-0.0040821216
-0.24675364
-0.0039583374
-0.24631499
-0.0038205869
-0.24589502
-0.003670876
-0.24549474
-0.0035111028
-0.24511491
-0.0033430275
-0.24475611
-0.0031682592
-0.24441876
-0.0029882449
-0.24410313
-0.0028042716
-0.24380936
-0.0026174535
-0.2435375
-0.0024287484
-0.24328751
-0.0022389572
-0.24305929
-0.0020487333
-0.24285268
-0.001858592
-0.24266752
-0.0016689253
-0.24250361
-0.0014800054
-0.24236073
-0.0012920046
-0.2422387
-0.0011050034
-0.24213732
-0.00091900357
-0.24205643
-0.00073394105
-0.24199589
-0.00054969961
-0.24195559
-0.00036611352
-0.00018296844
-0.24594765
0.00022410661
-0.24596887
0.00022491428
-0.24599026
0.00022669713
-0.24601191
0.00022949898
-0.24603393
0.00023332483
-0.24605641
0.00023819314
-0.24607945
0.00024411851
-0.24610317
0.00025112725
-0.24612765
0.00025924157
-0.24615302
0.00026849583
-0.24617939
0.00027891987
-0.24620687
0.00029055623
-0.24623558
0.00030344232
-0.24626564
0.00031762898
-0.24629719
0.00033316109
-0.24633037
0.00035009776
-0.24636531
0.00036849115
-0.24640216
0.00038840851