/*--------------------------------*- C++ -*----------------------------------*\
| =========                 |                                                 |
| \\      /  F ield         | foam-extend: Open Source CFD                    |
|  \\    /   O peration     | Version:     4.1                                |
|   \\  /    A nd           | Web:         http://www.foam-extend.org         |
|    \\/     M anipulation  |                                                 |
\*---------------------------------------------------------------------------*/
FoamFile
{
    version     2.0;
    format      ascii;
    class       volVectorField;
    location    "0.25";
    object      U;
}
// * * * * * * * * * * * * * * * * * * * * * * * * * * * * * * * * * * * * * //

dimensions      [0 1 -1 0 0 0 0];

internalField   nonuniform List<vector> 
16796
(
(152.21595 -0.0047373291 0)
(152.23432 -0.0047543477 0)
(152.24854 -0.0047922527 0)
(152.26315 -0.0048517897 0)
(152.27795 -0.0049331386 0)
(152.29303 -0.0050366 0)
(152.30845 -0.0051625574 0)
(152.32429 -0.0053114732 0)
(152.3406 -0.0054838931 0)
(152.35747 -0.0056804408 0)
(152.37497 -0.0059018239 0)
(152.39316 -0.0061488266 0)
(152.41214 -0.0064223173 0)
(152.43197 -0.0067232393 0)
(152.45275 -0.0070526192 0)
(152.47456 -0.0074115552 0)
(152.49749 -0.0078012265 0)
(152.52163 -0.0082228785 0)
(152.54708 -0.0086778328 0)
(152.57395 -0.0091674688 0)
(152.60234 -0.0096932339 0)
(152.63236 -0.010256621 0)
(152.66413 -0.010859177 0)
(152.69776 -0.011502476 0)
(152.73338 -0.012188129 0)
(152.77112 -0.012917746 0)
(152.81111 -0.013692946 0)
(152.8535 -0.014515315 0)
(152.89842 -0.015386406 0)
(152.94603 -0.016307691 0)
(152.99647 -0.017280561 0)
(153.04991 -0.018306262 0)
(153.10651 -0.019385886 0)
(153.16642 -0.020520316 0)
(153.22981 -0.021710168 0)
(153.29686 -0.022955768 0)
(153.36772 -0.024257054 0)
(153.44257 -0.025613555 0)
(153.52157 -0.027024273 0)
(153.60489 -0.028487647 0)
(153.69267 -0.03000143 0)
(153.78507 -0.031562635 0)
(153.88222 -0.033167394 0)
(153.98425 -0.034810897 0)
(154.09127 -0.036487252 0)
(154.20337 -0.038189386 0)
(154.32062 -0.039908928 0)
(154.44306 -0.041636096 0)
(154.5707 -0.043359581 0)
(154.70351 -0.045066446 0)
(154.84142 -0.046742025 0)
(154.98432 -0.048369843 0)
(155.13204 -0.049931555 0)
(155.28437 -0.051406903 0)
(155.441 -0.052773719 0)
(155.6016 -0.054007948 0)
(155.76572 -0.055083737 0)
(155.93285 -0.055973564 0)
(156.10239 -0.056648439 0)
(156.27367 -0.05707817 0)
(156.4459 -0.057231706 0)
(156.61821 -0.057077567 0)
(156.78963 -0.056584357 0)
(156.9591 -0.055721361 0)
(157.12547 -0.05445924 0)
(157.28749 -0.052770786 0)
(157.44385 -0.050631766 0)
(157.59316 -0.0480218 0)
(157.73398 -0.044925285 0)
(157.86481 -0.041332308 0)
(157.98417 -0.037239542 0)
(158.09053 -0.032651057 0)
(158.18243 -0.027579035 0)
(158.25843 -0.022044295 0)
(158.31718 -0.016076634 0)
(158.35741 -0.0097149334 0)
(158.37801 -0.0030071249 0)
(158.37802 0.0039902779 0)
(158.35666 0.011213651 0)
(158.31337 0.018591425 0)
(158.24779 0.026046253 0)
(158.15982 0.033496868 0)
(158.0496 0.040859921 0)
(157.91751 0.048051956 0)
(157.7642 0.054991422 0)
(157.59053 0.061600639 0)
(157.39762 0.067807643 0)
(157.18676 0.073547833 0)
(156.95944 0.07876533 0)
(156.71729 0.083414028 0)
(156.46207 0.087458287 0)
(156.19564 0.090873263 0)
(155.91991 0.09364487 0)
(155.63679 0.095769435 0)
(155.34823 0.097253039 0)
(155.05613 0.098110639 0)
(154.76231 0.098364993 0)
(154.46856 0.09804547 0)
(154.17653 0.097186794 0)
(153.88778 0.09582777 0)
(153.60375 0.094010047 0)
(153.32575 0.091776953 0)
(153.05495 0.089172423 0)
(152.79241 0.086240056 0)
(152.53905 0.083022294 0)
(152.29567 0.079559748 0)
(152.06293 0.07589066 0)
(151.84141 0.072050484 0)
(151.63158 0.068071603 0)
(151.4338 0.063983147 0)
(151.24838 0.059810901 0)
(151.07553 0.055577317 0)
(150.91542 0.051301571 0)
(150.76813 0.046999686 0)
(150.63374 0.042684702 0)
(150.51228 0.038366876 0)
(150.40374 0.034053902 0)
(150.30811 0.029751152 0)
(150.22537 0.02546193 0)
(150.15543 0.021187735 0)
(150.09817 0.016928548 0)
(150.05355 0.012683068 0)
(150.02216 0.0084488598 0)
(150.00495 0.0042224934 0)
(152.2222 -0.014403512 0)
(152.24053 -0.014454858 0)
(152.25473 -0.014568604 0)
(152.26931 -0.01474713 0)
(152.28408 -0.014990987 0)
(152.29913 -0.01530108 0)
(152.31452 -0.015678556 0)
(152.33033 -0.0161248 0)
(152.34661 -0.016641447 0)
(152.36345 -0.017230363 0)
(152.38091 -0.017893668 0)
(152.39907 -0.018633711 0)
(152.41801 -0.019453094 0)
(152.43781 -0.020354643 0)
(152.45854 -0.021341434 0)
(152.48031 -0.022416758 0)
(152.5032 -0.023584152 0)
(152.5273 -0.024847349 0)
(152.55271 -0.026210314 0)
(152.57953 -0.027677184 0)
(152.60787 -0.029252304 0)
(152.63784 -0.030940153 0)
(152.66955 -0.032745381 0)
(152.70313 -0.034672717 0)
(152.73869 -0.036727001 0)
(152.77637 -0.038913082 0)
(152.8163 -0.041235833 0)
(152.85862 -0.043700031 0)
(152.90348 -0.046310367 0)
(152.95102 -0.049071292 0)
(153.00139 -0.051987019 0)
(153.05476 -0.055061335 0)
(153.11128 -0.058297573 0)
(153.17112 -0.061698455 0)
(153.23444 -0.065265906 0)
(153.30141 -0.069000998 0)
(153.3722 -0.072903655 0)
(153.44697 -0.07697258 0)
(153.5259 -0.081204916 0)
(153.60914 -0.085596143 0)
(153.69686 -0.090139686 0)
(153.7892 -0.094826779 0)
(153.88629 -0.099646033 0)
(153.98827 -0.10458324 0)
(154.09526 -0.10962098 0)
(154.20733 -0.11473831 0)
(154.32456 -0.11991038 0)
(154.44699 -0.12510814 0)
(154.57464 -0.13029799 0)
(154.70748 -0.13544139 0)
(154.84544 -0.14049467 0)
(154.98841 -0.14540868 0)
(155.13624 -0.15012865 0)
(155.28869 -0.15459405 0)
(155.44549 -0.15873855 0)
(155.60627 -0.16249012 0)
(155.77062 -0.16577125 0)
(155.93801 -0.16849933 0)
(156.10787 -0.17058724 0)
(156.27949 -0.17194413 0)
(156.45211 -0.17247643 0)
(156.62485 -0.17208917 0)
(156.79675 -0.17068744 0)
(156.96673 -0.16817825 0)
(157.13365 -0.16447259 0)
(157.29626 -0.15948773 0)
(157.45324 -0.15314975 0)
(157.60319 -0.14539625 0)
(157.74466 -0.13617916 0)
(157.87616 -0.12546754 0)
(157.99619 -0.11325034 0)
(158.10321 -0.099538939 0)
(158.19575 -0.084369379 0)
(158.27235 -0.06780404 0)
(158.33164 -0.049932784 0)
(158.37237 -0.030873407 0)
(158.3934 -0.010771619 0)
(158.39375 0.010200217 0)
(158.37265 0.031847369 0)
(158.32951 0.053955122 0)
(158.26398 0.076292556 0)
(158.17595 0.098617162 0)
(158.06555 0.12068033 0)
(157.93318 0.14223321 0)
(157.77948 0.16303264 0)
(157.60532 0.18284705 0)
(157.41183 0.20146189 0)
(157.2003 0.2186845 0)
(156.97224 0.23434817 0)
(156.72931 0.24831526 0)
(156.47326 0.26047918 0)
(156.20597 0.27076547 0)
(155.92936 0.27913163 0)
(155.64538 0.28556611 0)
(155.35596 0.29008638 0)
(155.06301 0.29273632 0)
(154.76839 0.29358307 0)
(154.47387 0.29271346 0)
(154.18113 0.29023034 0)
(153.89172 0.28624877 0)
(153.60708 0.28089238 0)
(153.32852 0.27428989 0)
(153.05724 0.26657195 0)
(152.79427 0.25786829 0)
(152.54053 0.24830531 0)
(152.29681 0.23800406 0)
(152.0638 0.22707863 0)
(151.84205 0.21563487 0)
(151.63203 0.20376955 0)
(151.4341 0.19156981 0)
(151.24856 0.17911287 0)
(151.07562 0.16646605 0)
(150.91544 0.15368692 0)
(150.76811 0.14082367 0)
(150.6337 0.12791562 0)
(150.51222 0.11499376 0)
(150.40368 0.10208148 0)
(150.30805 0.089195204 0)
(150.22532 0.076345216 0)
(150.1554 0.063536406 0)
(150.09814 0.050769133 0)
(150.05353 0.038039969 0)
(150.02215 0.025342151 0)
(150.00495 0.012665959 0)
(152.23419 -0.02383815 0)
(152.25244 -0.023923562 0)
(152.26658 -0.024112702 0)
(152.2811 -0.024409693 0)
(152.29582 -0.024815458 0)
(152.31081 -0.025331509 0)
(152.32614 -0.02595976 0)
(152.34189 -0.026702519 0)
(152.35811 -0.027562509 0)
(152.37488 -0.028542842 0)
(152.39227 -0.029647048 0)
(152.41037 -0.030879042 0)
(152.42923 -0.03224316 0)
(152.44896 -0.03374411 0)
(152.46962 -0.03538702 0)
(152.49131 -0.037177377 0)
(152.51411 -0.039121071 0)
(152.53812 -0.041224327 0)
(152.56345 -0.043493752 0)
(152.59017 -0.045936245 0)
(152.61842 -0.048559048 0)
(152.64829 -0.051369632 0)
(152.67989 -0.054375746 0)
(152.71336 -0.057585281 0)
(152.74881 -0.061006309 0)
(152.78637 -0.064646918 0)
(152.82618 -0.068515241 0)
(152.86838 -0.07261925 0)
(152.9131 -0.076966779 0)
(152.96051 -0.081565261 0)
(153.01074 -0.086421738 0)
(153.06397 -0.091542543 0)
(153.12035 -0.096933257 0)
(153.18004 -0.10259845 0)
(153.24321 -0.10854136 0)
(153.31004 -0.11476381 0)
(153.38068 -0.12126572 0)
(153.45532 -0.12804498 0)
(153.5341 -0.13509687 0)
(153.61721 -0.14241393 0)
(153.7048 -0.14998526 0)
(153.79702 -0.15779631 0)
(153.89401 -0.16582819 0)
(153.9959 -0.17405729 0)
(154.1028 -0.18245467 0)
(154.21482 -0.19098548 0)
(154.33202 -0.19960844 0)
(154.45445 -0.20827519 0)
(154.58213 -0.2169298 0)
(154.71503 -0.22550815 0)
(154.8531 -0.2339375 0)
(154.99623 -0.24213599 0)
(155.14426 -0.25001239 0)
(155.29697 -0.25746579 0)
(155.45409 -0.26438564 0)
(155.61526 -0.27065181 0)
(155.78007 -0.27613498 0)
(155.948 -0.28069731 0)
(156.11847 -0.28419333 0)
(156.29079 -0.2864713 0)
(156.46419 -0.28737486 0)
(156.63779 -0.28674518 0)
(156.81064 -0.28442347 0)
(156.98165 -0.28025402 0)
(157.14967 -0.27408763 0)
(157.31346 -0.26578545 0)
(157.47167 -0.25522327 0)
(157.6229 -0.24229598 0)
(157.76569 -0.22692228 0)
(157.89854 -0.20904943 0)
(158.0199 -0.18865786 0)
(158.12824 -0.16576547 0)
(158.22204 -0.14043137 0)
(158.29985 -0.11275879 0)
(158.36026 -0.082897073 0)
(158.40198 -0.051042484 0)
(158.42386 -0.01743818 0)
(158.4249 0.01762776 0)
(158.4043 0.053828943 0)
(158.36146 0.090805215 0)
(158.29602 0.1281685 0)
(158.20785 0.16551115 0)
(158.0971 0.20241519 0)
(157.96415 0.23846225 0)
(157.80965 0.27324361 0)
(157.6345 0.30637013 0)
(157.43983 0.33748148 0)
(157.22696 0.36625436 0)
(156.99743 0.39240933 0)
(156.7529 0.41571604 0)
(156.49519 0.43599662 0)
(156.22618 0.45312733 0)
(155.94782 0.46703833 0)
(155.66209 0.47771185 0)
(155.37096 0.48517895 0)
(155.07634 0.48951498 0)
(154.78013 0.49083423 0)
(154.4841 0.48928399 0)
(154.18994 0.48503817 0)
(153.89922 0.47829099 0)
(153.61338 0.46925079 0)
(153.33375 0.45813419 0)
(153.06151 0.44516076 0)
(152.79769 0.43054832 0)
(152.54321 0.41450882 0)
(152.29887 0.39724508 0)
(152.06533 0.37894797 0)
(151.84314 0.35979447 0)
(151.63276 0.33994617 0)
(151.43455 0.31954843 0)
(151.2488 0.2987299 0)
(151.0757 0.27760258 0)
(150.9154 0.25626213 0)
(150.768 0.23478846 0)
(150.63355 0.21324662 0)
(150.51206 0.19168778 0)
(150.40352 0.1701503 0)
(150.30791 0.148661 0)
(150.2252 0.12723639 0)
(150.15531 0.10588401 0)
(150.09808 0.0846038 0)
(150.0535 0.063389439 0)
(150.02214 0.04222908 0)
(150.00495 0.021105886 0)
(152.25187 -0.033430438 0)
(152.27001 -0.033550299 0)
(152.28407 -0.033815098 0)
(152.29851 -0.034230652 0)
(152.31313 -0.034798246 0)
(152.32804 -0.035520001 0)
(152.34328 -0.036398599 0)
(152.35893 -0.037437275 0)
(152.37506 -0.038639843 0)
(152.39174 -0.040010664 0)
(152.40903 -0.041554682 0)
(152.42702 -0.043277386 0)
(152.44578 -0.045184848 0)
(152.4654 -0.047283672 0)
(152.48594 -0.049581043 0)
(152.50751 -0.052084654 0)
(152.53019 -0.054802768 0)
(152.55408 -0.057744117 0)
(152.57927 -0.06091797 0)
(152.60585 -0.064334012 0)
(152.63395 -0.06800241 0)
(152.66367 -0.071933659 0)
(152.69512 -0.076138649 0)
(152.72842 -0.080628475 0)
(152.7637 -0.085414495 0)
(152.80109 -0.090508095 0)
(152.84071 -0.095920737 0)
(152.88272 -0.10166367 0)
(152.92725 -0.10774795 0)
(152.97445 -0.11418411 0)
(153.02449 -0.12098212 0)
(153.0775 -0.12815099 0)
(153.13367 -0.1356987 0)
(153.19314 -0.14363181 0)
(153.2561 -0.15195506 0)
(153.3227 -0.16067122 0)
(153.39313 -0.16978041 0)
(153.46754 -0.17927994 0)
(153.54612 -0.18916348 0)
(153.62903 -0.19942088 0)
(153.71642 -0.21003721 0)
(153.80846 -0.22099246 0)
(153.90529 -0.23226052 0)
(154.00704 -0.24380871 0)
(154.11383 -0.2555969 0)
(154.22576 -0.26757669 0)
(154.34292 -0.27969065 0)
(154.46534 -0.29187146 0)
(154.59306 -0.30404114 0)
(154.72606 -0.31611025 0)
(154.86429 -0.32797716 0)
(155.00765 -0.33952748 0)
(155.15599 -0.35063354 0)
(155.3091 -0.36115406 0)
(155.4667 -0.3709341 0)
(155.62846 -0.37980514 0)
(155.79396 -0.38758565 0)
(155.9627 -0.3940819 0)
(156.13409 -0.39908931 0)
(156.30746 -0.40239423 0)
(156.48204 -0.40377628 0)
(156.65695 -0.40301135 0)
(156.83123 -0.3998751 0)
(157.00379 -0.39414725 0)
(157.17349 -0.38561636 0)
(157.33904 -0.37408532 0)
(157.49912 -0.35937733 0)
(157.6523 -0.34134223 0)
(157.79708 -0.31986325 0)
(157.93195 -0.29486372 0)
(158.05533 -0.2663136 0)
(158.16567 -0.2342357 0)
(158.2614 -0.198711 0)
(158.34103 -0.15988289 0)
(158.40313 -0.11796004 0)
(158.44636 -0.073217604 0)
(158.46953 -0.025997052 0)
(158.47162 0.023296597 0)
(158.45179 0.074202708 0)
(158.40942 0.1262126 0)
(158.34412 0.17877819 0)
(158.25577 0.23132339 0)
(158.14448 0.28325723 0)
(158.01067 0.33398795 0)
(157.85498 0.3829374 0)
(157.67834 0.42955514 0)
(157.48189 0.4733316 0)
(157.26701 0.51380984 0)
(157.03525 0.55059521 0)
(156.78834 0.58336282 0)
(156.52811 0.61186232 0)
(156.2565 0.6359202 0)
(155.97552 0.6554394 0)
(155.68716 0.67039663 0)
(155.39344 0.68083767 0)
(155.09632 0.68687092 0)
(154.7977 0.6886597 0)
(154.4994 0.68641372 0)
(154.20311 0.68038008 0)
(153.91042 0.67083425 0)
(153.62279 0.6580713 0)
(153.34154 0.64239762 0)
(153.06785 0.6241234 0)
(152.80277 0.60355605 0)
(152.54719 0.58099437 0)
(152.3019 0.55672395 0)
(152.06757 0.53101336 0)
(151.84472 0.5041113 0)
(151.63381 0.47624467 0)
(151.43519 0.44761732 0)
(151.24911 0.41840949 0)
(151.07577 0.38877792 0)
(150.91531 0.35885628 0)
(150.76781 0.3287561 0)
(150.6333 0.29856795 0)
(150.51179 0.26836292 0)
(150.40326 0.23819413 0)
(150.30768 0.20809847 0)
(150.22502 0.17809841 0)
(150.15517 0.1482038 0)
(150.09799 0.11841387 0)
(150.05344 0.088719081 0)
(150.02212 0.059102183 0)
(150.00494 0.029538783 0)
(152.27527 -0.042752754 0)
(152.29327 -0.042906116 0)
(152.30722 -0.043245248 0)
(152.32154 -0.043777744 0)
(152.33605 -0.044505266 0)
(152.35084 -0.045430545 0)
(152.36596 -0.046557026 0)
(152.38149 -0.047888867 0)
(152.3975 -0.049430967 0)
(152.41405 -0.051188929 0)
(152.43121 -0.05316911 0)
(152.44906 -0.05537856 0)
(152.46768 -0.05782509 0)
(152.48715 -0.060517186 0)
(152.50754 -0.06346409 0)
(152.52896 -0.066675697 0)
(152.55147 -0.070162636 0)
(152.57519 -0.073936144 0)
(152.60019 -0.078008153 0)
(152.6266 -0.082391134 0)
(152.6545 -0.087098182 0)
(152.68402 -0.092142822 0)
(152.71526 -0.097539095 0)
(152.74834 -0.10330131 0)
(152.7834 -0.10944413 0)
(152.82055 -0.11598227 0)
(152.85993 -0.12293054 0)
(152.90169 -0.13030351 0)
(152.94596 -0.13811551 0)
(152.9929 -0.1463802 0)
(153.04265 -0.15511056 0)
(153.09539 -0.16431837 0)
(153.15127 -0.17401408 0)
(153.21045 -0.18420635 0)
(153.27312 -0.19490155 0)
(153.33943 -0.20610352 0)
(153.40956 -0.21781276 0)
(153.48369 -0.23002614 0)
(153.56199 -0.24273596 0)
(153.64463 -0.2559296 0)
(153.73176 -0.26958832 0)
(153.82356 -0.28368692 0)
(153.92017 -0.29819236 0)
(154.02173 -0.31306322 0)
(154.12837 -0.32824848 0)
(154.24019 -0.34368655 0)
(154.35728 -0.35930421 0)
(154.47969 -0.37501551 0)
(154.60747 -0.39072081 0)
(154.7406 -0.40630563 0)
(154.87904 -0.42163982 0)
(155.0227 -0.43657669 0)
(155.17144 -0.45095237 0)
(155.32506 -0.46458532 0)
(155.48331 -0.47727622 0)
(155.64585 -0.48880811 0)
(155.81226 -0.49894696 0)
(155.98208 -0.50744275 0)
(156.1547 -0.51403113 0)
(156.32947 -0.51843567 0)
(156.50562 -0.52037089 0)
(156.68227 -0.51954596 0)
(156.85845 -0.51566936 0)
(157.03309 -0.50845424 0)
(157.20502 -0.49762473 0)
(157.37295 -0.48292294 0)
(157.53553 -0.4641168 0)
(157.6913 -0.44100833 0)
(157.83877 -0.41344239 0)
(157.97635 -0.38131554 0)
(158.10245 -0.34458466 0)
(158.21547 -0.30327515 0)
(158.31379 -0.25748806 0)
(158.39588 -0.20740577 0)
(158.46024 -0.15329592 0)
(158.50551 -0.095513162 0)
(158.53043 -0.034498894 0)
(158.53393 0.029222164 0)
(158.51515 0.095051943 0)
(158.47341 0.16232942 0)
(158.40831 0.23034103 0)
(158.3197 0.29833619 0)
(158.2077 0.36554456 0)
(158.07273 0.43119456 0)
(157.91544 0.49453237 0)
(157.73679 0.5548405 0)
(157.53796 0.61145513 0)
(157.32037 0.66378157 0)
(157.08562 0.711307 0)
(156.83549 0.75361013 0)
(156.57189 0.79036753 0)
(156.2968 0.82135644 0)
(156.01229 0.84645413 0)
(155.72041 0.86563431 0)
(155.42323 0.87896074 0)
(155.12275 0.88657863 0)
(154.82092 0.88870447 0)
(154.51957 0.88561471 0)
(154.22044 0.87763394 0)
(153.92513 0.86512302 0)
(153.63512 0.84846762 0)
(153.35172 0.82806741 0)
(153.07611 0.80432632 0)
(152.80934 0.77764392 0)
(152.55231 0.74840804 0)
(152.30578 0.71698873 0)
(152.0704 0.68373347 0)
(151.8467 0.64896354 0)
(151.63509 0.61297158 0)
(151.43592 0.5760201 0)
(151.24943 0.53834081 0)
(151.07579 0.5001348 0)
(150.91513 0.46157322 0)
(150.7675 0.42279851 0)
(150.63292 0.38392601 0)
(150.5114 0.34504583 0)
(150.40289 0.30622491 0)
(150.30736 0.2675093 0)
(150.22475 0.22892642 0)
(150.15497 0.19048748 0)
(150.09786 0.15219007 0)
(150.05337 0.11402049 0)
(150.02208 0.075955213 0)
(150.00494 0.037961343 0)
(152.30436 -0.052193322 0)
(152.32218 -0.052380888 0)
(152.33599 -0.052794938 0)
(152.35017 -0.053444719 0)
(152.36454 -0.054332249 0)
(152.37918 -0.05546087 0)
(152.39416 -0.056834798 0)
(152.40954 -0.058459112 0)
(152.42539 -0.060339808 0)
(152.44178 -0.062483735 0)
(152.45877 -0.064898671 0)
(152.47646 -0.067593238 0)
(152.4949 -0.070576992 0)
(152.51419 -0.073860319 0)
(152.53439 -0.077454531 0)
(152.55561 -0.081371741 0)
(152.57792 -0.085624967 0)
(152.60142 -0.090227975 0)
(152.62621 -0.095195389 0)
(152.65238 -0.1005425 0)
(152.68004 -0.10628537 0)
(152.70931 -0.1124406 0)
(152.74029 -0.11902543 0)
(152.7731 -0.12605745 0)
(152.80787 -0.13355471 0)
(152.84473 -0.14153531 0)
(152.88381 -0.15001751 0)
(152.92525 -0.15901931 0)
(152.9692 -0.16855842 0)
(153.0158 -0.17865178 0)
(153.06521 -0.18931554 0)
(153.1176 -0.20056438 0)
(153.17312 -0.21241141 0)
(153.23194 -0.22486765 0)
(153.29424 -0.23794128 0)
(153.36019 -0.25163749 0)
(153.42996 -0.26595741 0)
(153.50373 -0.28089783 0)
(153.58167 -0.29644995 0)
(153.66396 -0.31259904 0)
(153.75078 -0.32932297 0)
(153.84227 -0.3465917 0)
(153.93861 -0.36436571 0)
(154.03993 -0.38259526 0)
(154.14637 -0.40121889 0)
(154.25804 -0.42016225 0)
(154.37504 -0.43933678 0)
(154.49744 -0.45863836 0)
(154.62528 -0.47794603 0)
(154.75856 -0.49712067 0)
(154.89726 -0.51600389 0)
(155.04129 -0.53441689 0)
(155.19053 -0.55215971 0)
(155.3448 -0.56901053 0)
(155.50385 -0.58472547 0)
(155.66735 -0.5990387 0)
(155.83491 -0.61166311 0)
(156.00606 -0.62229153 0)
(156.18023 -0.63059869 0)
(156.35675 -0.63624391 0)
(156.53485 -0.63887478 0)
(156.71368 -0.63813163 0)
(156.89226 -0.63365319 0)
(157.06951 -0.62508319 0)
(157.24424 -0.61207808 0)
(157.41516 -0.5943157 0)
(157.58088 -0.57150495 0)
(157.73994 -0.54339609 0)
(157.89078 -0.5097917 0)
(158.03179 -0.47055767 0)
(158.16133 -0.42563421 0)
(158.27773 -0.37504608 0)
(158.37934 -0.31891178 0)
(158.46455 -0.25745084 0)
(158.53179 -0.19098902 0)
(158.57964 -0.11996067 0)
(158.60679 -0.044908526 0)
(158.6121 0.033520151 0)
(158.59464 0.11458475 0)
(158.55371 0.19746554 0)
(158.48888 0.28127678 0)
(158.39996 0.36508582 0)
(158.28707 0.44793478 0)
(158.15063 0.52886384 0)
(157.99133 0.60693522 0)
(157.81014 0.68125655 0)
(157.60829 0.75100279 0)
(157.38727 0.81543564 0)
(157.14874 0.87391953 0)
(156.89455 0.92593375 0)
(156.62668 0.97108019 0)
(156.34719 1.0090868 0)
(156.05822 1.0398064 0)
(155.7619 1.0632124 0)
(155.46035 1.0793898 0)
(155.15564 1.0885251 0)
(154.84976 1.0908926 0)
(154.5446 1.0868406 0)
(154.2419 1.0767763 0)
(153.94331 1.061151 0)
(153.6503 1.0404455 0)
(153.36421 1.0151573 0)
(153.08622 0.98578778 0)
(152.81735 0.952832 0)
(152.55851 0.91676957 0)
(152.31044 0.87805724 0)
(152.07377 0.83712308 0)
(151.849 0.79436221 0)
(151.63655 0.75013379 0)
(151.43671 0.7047594 0)
(151.24971 0.6585223 0)
(151.07571 0.61166776 0)
(150.91481 0.56440402 0)
(150.76703 0.51690385 0)
(150.63239 0.46930662 0)
(150.51086 0.42172069 0)
(150.40239 0.37422591 0)
(150.30693 0.32687657 0)
(150.2244 0.27970408 0)
(150.15471 0.23272005 0)
(150.09769 0.18591938 0)
(150.05327 0.1392833 0)
(150.02204 0.092780967 0)
(150.00493 0.04636988 0)
(152.33915 -0.061335125 0)
(152.35676 -0.061555492 0)
(152.37041 -0.062042479 0)
(152.38442 -0.062807097 0)
(152.39862 -0.063851745 0)
(152.41309 -0.06518037 0)
(152.42789 -0.066797953 0)
(152.44308 -0.068710493 0)
(152.45874 -0.070925072 0)
(152.47494 -0.073449784 0)
(152.49174 -0.076293816 0)
(152.50922 -0.079467362 0)
(152.52746 -0.082981716 0)
(152.54652 -0.086849161 0)
(152.5665 -0.091083077 0)
(152.58748 -0.095697796 0)
(152.60955 -0.10070873 0)
(152.63279 -0.10613217 0)
(152.65731 -0.11198545 0)
(152.68321 -0.1182867 0)
(152.71058 -0.12505495 0)
(152.73955 -0.13230992 0)
(152.77021 -0.14007209 0)
(152.8027 -0.14836235 0)
(152.83713 -0.15720218 0)
(152.87364 -0.16661315 0)
(152.91236 -0.17661706 0)
(152.95342 -0.18723538 0)
(152.99698 -0.19848935 0)
(153.04318 -0.21039931 0)
(153.09218 -0.22298469 0)
(153.14415 -0.23626326 0)
(153.19924 -0.25025102 0)
(153.25763 -0.26496149 0)
(153.31948 -0.28040496 0)
(153.38499 -0.29658824 0)
(153.45431 -0.31351341 0)
(153.52764 -0.33117751 0)
(153.60516 -0.34957104 0)
(153.68704 -0.36867759 0)
(153.77346 -0.38847205 0)
(153.86459 -0.40892009 0)
(153.96059 -0.42997623 0)
(154.06162 -0.45158296 0)
(154.16781 -0.47366897 0)
(154.2793 -0.49614777 0)
(154.39618 -0.51891607 0)
(154.51855 -0.54185216 0)
(154.64645 -0.56481441 0)
(154.77991 -0.58763961 0)
(154.9189 -0.61014161 0)
(155.06337 -0.63210997 0)
(155.2132 -0.65330891 0)
(155.36822 -0.6734765 0)
(155.52821 -0.69232429 0)
(155.69286 -0.70953736 0)
(155.86179 -0.72477499 0)
(156.03453 -0.73767205 0)
(156.21054 -0.74784119 0)
(156.38915 -0.75487594 0)
(156.56961 -0.75835497 0)
(156.75106 -0.75784735 0)
(156.93252 -0.75291916 0)
(157.1129 -0.74314137 0)
(157.29101 -0.72809894 0)
(157.46554 -0.70740127 0)
(157.63506 -0.68069373 0)
(157.79809 -0.64767009 0)
(157.95302 -0.60808584 0)
(158.0982 -0.56177155 0)
(158.23191 -0.50864633 0)
(158.35244 -0.44873044 0)
(158.45805 -0.38215674 0)
(158.54705 -0.30917981 0)
(158.61782 -0.23018266 0)
(158.66883 -0.14567988 0)
(158.6987 -0.056317646 0)
(158.70622 0.037130479 0)
(158.69041 0.13377627 0)
(158.65049 0.23263518 0)
(158.58599 0.3326409 0)
(158.49671 0.43266926 0)
(158.38275 0.53156466 0)
(158.24453 0.62816869 0)
(158.08277 0.72134938 0)
(157.8985 0.81003 0)
(157.69299 0.89321585 0)
(157.46779 0.97001805 0)
(157.22466 1.0396731 0)
(156.96552 1.1015573 0)
(156.69246 1.1551967 0)
(156.40763 1.2002702 0)
(156.11324 1.2366085 0)
(155.81153 1.264188 0)
(155.5047 1.2831201 0)
(155.19487 1.2936381 0)
(154.88409 1.2960806 0)
(154.57431 1.2908742 0)
(154.26732 1.2785153 0)
(153.96478 1.2595519 0)
(153.66817 1.2345661 0)
(153.37886 1.2041583 0)
(153.098 1.1689322 0)
(152.82664 1.1294823 0)
(152.56564 1.0863833 0)
(152.31574 1.0401812 0)
(152.07754 0.99138653 0)
(151.85152 0.94046952 0)
(151.63807 0.88785662 0)
(151.43746 0.83392872 0)
(151.24988 0.77902048 0)
(151.07547 0.72342089 0)
(150.91429 0.66737452 0)
(150.76636 0.61108353 0)
(150.63166 0.55471023 0)
(150.51014 0.49838002 0)
(150.40173 0.44218442 0)
(150.30636 0.3861846 0)
(150.22395 0.33041468 0)
(150.15438 0.27488532 0)
(150.09746 0.21958746 0)
(150.05315 0.16449594 0)
(150.02199 0.10957137 0)
(150.00491 0.054760267 0)
(152.37962 -0.07054475 0)
(152.39698 -0.070798622 0)
(152.41044 -0.071359018 0)
(152.42425 -0.072238575 0)
(152.43825 -0.073440045 0)
(152.45252 -0.074967984 0)
(152.46711 -0.076828135 0)
(152.4821 -0.079027425 0)
(152.49754 -0.081574022 0)
(152.51352 -0.08447727 0)
(152.53009 -0.087747771 0)
(152.54733 -0.091397295 0)
(152.56532 -0.095438886 0)
(152.58413 -0.09988673 0)
(152.60385 -0.10475629 0)
(152.62456 -0.11006413 0)
(152.64634 -0.11582807 0)
(152.66929 -0.12206696 0)
(152.6935 -0.12880087 0)
(152.71907 -0.13605078 0)
(152.74611 -0.14383877 0)
(152.77472 -0.15218768 0)
(152.80502 -0.1611213 0)
(152.83713 -0.17066392 0)
(152.87117 -0.18084049 0)
(152.90726 -0.19167615 0)
(152.94555 -0.20319634 0)
(152.98618 -0.21542615 0)
(153.02928 -0.22839045 0)
(153.07502 -0.24211314 0)
(153.12354 -0.25661715 0)
(153.17501 -0.27192354 0)
(153.2296 -0.28805138 0)
(153.28748 -0.30501703 0)
(153.34881 -0.32283313 0)
(153.4138 -0.34150847 0)
(153.48261 -0.36104642 0)
(153.55543 -0.38144467 0)
(153.63244 -0.40269349 0)
(153.71383 -0.42477523 0)
(153.79978 -0.44766235 0)
(153.89048 -0.47131679 0)
(153.98608 -0.49568765 0)
(154.08675 -0.52071031 0)
(154.19265 -0.54630426 0)
(154.30391 -0.57237152 0)
(154.42065 -0.59879474 0)
(154.54297 -0.62543531 0)
(154.67093 -0.65213154 0)
(154.80457 -0.67869674 0)
(154.94389 -0.70491751 0)
(155.08885 -0.7305522 0)
(155.23935 -0.7553295 0)
(155.39525 -0.77894749 0)
(155.55633 -0.80107304 0)
(155.7223 -0.82134176 0)
(155.89281 -0.83935867 0)
(156.0674 -0.85469961 0)
(156.24554 -0.86691371 0)
(156.42659 -0.87552677 0)
(156.6098 -0.88004612 0)
(156.7943 -0.87996657 0)
(156.97913 -0.87477804 0)
(157.16319 -0.86397459 0)
(157.34527 -0.84706508 0)
(157.52403 -0.82358528 0)
(157.69804 -0.79311147 0)
(157.86575 -0.75527511 0)
(158.02551 -0.70977857 0)
(158.17561 -0.65641121 0)
(158.31427 -0.59506543 0)
(158.43969 -0.52575201 0)
(158.55005 -0.44861404 0)
(158.64357 -0.36393827 0)
(158.71854 -0.2721636 0)
(158.77332 -0.17388521 0)
(158.80645 -0.069855035 0)
(158.81662 0.039022557 0)
(158.80278 0.1517044 0)
(158.76408 0.26703204 0)
(158.7 0.38374828 0)
(158.6103 0.5005257 0)
(158.49508 0.61599842 0)
(158.35477 0.72879646 0)
(158.19011 0.83758099 0)
(158.00217 0.94107902 0)
(157.7923 1.0381157 0)
(157.56215 1.1276428 0)
(157.31355 1.2087622 0)
(157.04855 1.2807434 0)
(156.76933 1.3430343 0)
(156.47816 1.3952654 0)
(156.17737 1.4372478 0)
(155.86928 1.4689656 0)
(155.5562 1.4905623 0)
(155.24033 1.5023249 0)
(154.92379 1.5046641 0)
(154.60859 1.4980928 0)
(154.29655 1.4832047 0)
(153.98938 1.4606521 0)
(153.68857 1.4311258 0)
(153.39549 1.3953353 0)
(153.11131 1.3539925 0)
(152.83704 1.3077962 0)
(152.57355 1.25742 0)
(152.32154 1.2035023 0)
(152.08158 1.1466386 0)
(151.85414 1.0873756 0)
(151.63955 1.026208 0)
(151.43807 0.96357642 0)
(151.24985 0.89986678 0)
(151.07498 0.83541127 0)
(150.91352 0.77048999 0)
(150.76543 0.70533342 0)
(150.63069 0.64012559 0)
(150.5092 0.57500753 0)
(150.40088 0.51008101 0)
(150.30564 0.44541259 0)
(150.22338 0.38103755 0)
(150.15396 0.31696406 0)
(150.09719 0.2531776 0)
(150.05299 0.18964515 0)
(150.02192 0.12631723 0)
(150.0049 0.063127819 0)
(152.42576 -0.079440148 0)
(152.44284 -0.079726092 0)
(152.45607 -0.080357792 0)
(152.46966 -0.081349594 0)
(152.48344 -0.082704627 0)
(152.49747 -0.084428051 0)
(152.51183 -0.086526372 0)
(152.52658 -0.089007435 0)
(152.54178 -0.091880494 0)
(152.5575 -0.095156137 0)
(152.57381 -0.098846381 0)
(152.59079 -0.10296457 0)
(152.6085 -0.1075255 0)
(152.62702 -0.11254525 0)
(152.64644 -0.11804139 0)
(152.66683 -0.1240327 0)
(152.68829 -0.13053945 0)
(152.7109 -0.13758305 0)
(152.73476 -0.14518631 0)
(152.75996 -0.15337312 0)
(152.78662 -0.16216862 0)
(152.81483 -0.17159885 0)
(152.84471 -0.18169092 0)
(152.87639 -0.19247261 0)
(152.90997 -0.20397243 0)
(152.9456 -0.21621919 0)
(152.98341 -0.22924206 0)
(153.02353 -0.2430699 0)
(153.06611 -0.25773138 0)
(153.11131 -0.27325413 0)
(153.15928 -0.28966478 0)
(153.21018 -0.30698792 0)
(153.26419 -0.32524601 0)
(153.32148 -0.34445848 0)
(153.38223 -0.36464076 0)
(153.44661 -0.38580393 0)
(153.51483 -0.40795313 0)
(153.58705 -0.43108719 0)
(153.66348 -0.45519664 0)
(153.74431 -0.48026322 0)
(153.82972 -0.50625758 0)
(153.9199 -0.53313856 0)
(154.01503 -0.56085065 0)
(154.11529 -0.58932282 0)
(154.22084 -0.6184662 0)
(154.33182 -0.64817214 0)
(154.44838 -0.67831009 0)
(154.57062 -0.70872536 0)
(154.69863 -0.73923704 0)
(154.83246 -0.76963571 0)
(154.97214 -0.79968147 0)
(155.11764 -0.829102 0)
(155.26888 -0.85759095 0)
(155.42575 -0.88480663 0)
(155.58804 -0.91037124 0)
(155.75551 -0.93387065 0)
(155.9278 -0.95485492 0)
(156.10449 -0.97283983 0)
(156.28506 -0.98730936 0)
(156.46888 -0.99771955 0)
(156.65522 -1.0035036 0)
(156.84322 -1.0040788 0)
(157.03192 -0.99885485 0)
(157.2202 -0.98724423 0)
(157.40684 -0.96867433 0)
(157.59049 -0.94260135 0)
(157.76967 -0.908526 0)
(157.94278 -0.86601058 0)
(158.10814 -0.81469736 0)
(158.26395 -0.75432746 0)
(158.40836 -0.68475993 0)
(158.53948 -0.60599006 0)
(158.65538 -0.51816619 0)
(158.75419 -0.42160367 0)
(158.83406 -0.31679541 0)
(158.89327 -0.20441743 0)
(158.93023 -0.085329862 0)
(158.94353 0.039427088 0)
(158.93202 0.16864771 0)
(158.89478 0.30099031 0)
(158.83122 0.43499452 0)
(158.74107 0.56911577 0)
(158.6244 0.7017629 0)
(158.48165 0.83133887 0)
(158.31361 0.95628283 0)
(158.1214 1.0751113 0)
(157.90646 1.1864567 0)
(157.67053 1.2891011 0)
(157.41556 1.3820042 0)
(157.14372 1.4643235 0)
(156.85733 1.5354268 0)
(156.55879 1.5948972 0)
(156.25055 1.6425294 0)
(155.93507 1.6783205 0)
(155.61474 1.7024537 0)
(155.29188 1.7152781 0)
(154.96869 1.7172856 0)
(154.64723 1.7090853 0)
(154.32939 1.6913775 0)
(154.01689 1.664928 0)
(153.71128 1.6305445 0)
(153.4139 1.5890537 0)
(153.12593 1.5412818 0)
(152.84836 1.4880376 0)
(152.58205 1.4300981 0)
(152.32766 1.3681977 0)
(152.08574 1.303019 0)
(151.8567 1.2351871 0)
(151.64086 1.1652659 0)
(151.43842 1.0937558 0)
(151.2495 1.0210938 0)
(151.07417 0.94765448 0)
(150.91241 0.87375239 0)
(150.76419 0.79964501 0)
(150.62942 0.7255365 0)
(150.508 0.65158191 0)
(150.39982 0.57789146 0)
(150.30475 0.50453532 0)
(150.22267 0.43154813 0)
(150.15344 0.35893377 0)
(150.09684 0.28667048 0)
(150.0528 0.21471566 0)
(150.02184 0.14300805 0)
(150.00488 0.071467204 0)
(152.47754 -0.088341287 0)
(152.49431 -0.088659611 0)
(152.50729 -0.089362476 0)
(152.52063 -0.090465841 0)
(152.53415 -0.091973191 0)
(152.54793 -0.093890289 0)
(152.56203 -0.096224401 0)
(152.57651 -0.098984291 0)
(152.59143 -0.1021803 0)
(152.60687 -0.10582425 0)
(152.62289 -0.10992959 0)
(152.63957 -0.11451123 0)
(152.65696 -0.11958571 0)
(152.67516 -0.12517104 0)
(152.69424 -0.13128686 0)
(152.71429 -0.13795423 0)
(152.73538 -0.14519583 0)
(152.75761 -0.15303568 0)