/*--------------------------------*- C++ -*----------------------------------*\
| =========                 |                                                 |
| \\      /  F ield         | foam-extend: Open Source CFD                    |
|  \\    /   O peration     | Version:     4.1                                |
|   \\  /    A nd           | Web:         http://www.foam-extend.org         |
|    \\/     M anipulation  |                                                 |
\*---------------------------------------------------------------------------*/
FoamFile
{
    version     2.0;
    format      ascii;
    class       volScalarField;
    location    "2";
    object      p;
}
// * * * * * * * * * * * * * * * * * * * * * * * * * * * * * * * * * * * * * //

dimensions      [0 2 -2 0 0 0 0];

internalField   nonuniform List<scalar> 
16126
(
-0.00010762577
-0.0001140343
-0.00042764181
-0.00044226269
-0.00077203679
-0.00085527777
-0.0011831497
-0.0013499732
-0.0016881486
-0.0019376853
-0.0023051953
-0.0026348983
-0.0030491827
-0.0034586055
-0.0039335911
-0.0044242715
-0.0049703853
-0.0055446703
-0.006169112
-0.0068289002
-0.0075357459
-0.0082814278
-0.0090714847
-0.0099007718
-0.010770653
-0.011677879
-0.012620542
-0.013597145
-0.014603177
-0.015635596
-0.016689731
-0.017765298
-0.018860967
-0.019966887
-0.02108581
-0.022214655
-0.023349494
-0.024486119
-0.025621458
-0.026751309
-0.027872153
-0.028979893
-0.030070749
-0.031140631
-0.032185524
-0.033201169
-0.034183198
-0.035126965
-0.036027559
-0.03687971
-0.037677758
-0.038415601
-0.03908667
-0.039683915
-0.040199805
-0.040626369
-0.040955237
-0.041177735
-0.041284979
-0.041268021
-0.041117991
-0.040826287
-0.040384743
-0.039785842
-0.039022886
-0.038090197
-0.036983258
-0.035698867
-0.034235221
-0.032592008
-0.030770402
-0.028773094
-0.0266042
-0.024269243
-0.021774989
-0.019129411
-0.016341466
-0.013421073
-0.010378841
-0.0072260884
-0.0039745327
-0.00063634137
0.0027762038
0.006250626
0.0097746083
0.013335896
0.016922642
0.020523317
0.024126997
0.027723327
0.031302659
0.034856191
0.038375767
0.041854426
0.045285524
0.048664188
0.051985038
0.055245609
0.058441155
0.061572317
0.064633778
0.067631161
0.070556508
0.073425391
0.076223866
0.078990064
0.081698399
0.084439871
0.087165384
0.090087172
0.0930984
0.096677702
0.10054566
0.10574739
0.11145677
0.11995106
0.12873118
0.14309349
0.1555471
0.18034707
0.19393681
0.24426873
0.24043864
0.40946928
-0.00010980296
-0.0001150096
-0.00043937069
-0.00045048529
-0.00078560467
-0.00086884988
-0.0011993228
-0.0013677184
-0.0017075583
-0.0019590645
-0.0023279874
-0.0026596015
-0.0030752119
-0.003486327
-0.0039625376
-0.004454649
-0.0050018585
-0.0055773353
-0.0062027281
-0.0068633537
-0.0075706872
-0.0083163792
-0.0091059047
-0.0099341698
-0.010803038
-0.011709387
-0.012650594
-0.013624137
-0.014624162
-0.015652497
-0.016708206
-0.017776379
-0.018854427
-0.019953199
-0.021068213
-0.022187988
-0.023314179
-0.024441562
-0.025567511
-0.026687655
-0.027798549
-0.028896133
-0.029976706
-0.03103626
-0.032070868
-0.033076365
-0.034048476
-0.034982647
-0.035874055
-0.036717513
-0.037507439
-0.038237797
-0.038902076
-0.039493267
-0.040003875
-0.040425946
-0.040751118
-0.040970712
-0.041075832
-0.041057505
-0.040906834
-0.040615186
-0.040174364
-0.039576821
-0.03881583
-0.037885693
-0.03678187
-0.03550114
-0.034041681
-0.032403154
-0.030586698
-0.028594957
-0.026431981
-0.024103211
-0.021615308
-0.018976122
-0.016194466
-0.013280105
-0.010243481
-0.0070957389
-0.0038484192
-0.00051351674
0.0028968608
0.0063704004
0.0098949444
0.013458386
0.017049028
0.020655482
0.024266974
0.0278733
0.031464992
0.035033437
0.038570716
0.042070129
0.045525379
0.048931972
0.052285068
0.055582765
0.058821187
0.062001815
0.065120714
0.068184675
0.071187897
0.074147325
0.077052217
0.079941626
0.082794423
0.085700106
0.088615553
0.091744513
0.094989257
0.098804003
0.10292944
0.1083531
0.11430687
0.12293394
0.13191086
0.1461581
0.1587766
0.18240171
0.19662582
0.23682726
0.24481328
0.30475461
-0.00013081016
-9.3602726e-05
-0.00045173384
-0.00044006877
-0.00078709177
-0.00086197997
-0.0011943071
-0.0013600657
-0.0016983915
-0.0019489277
-0.0023155804
-0.0026464793
-0.0030599056
-0.0034701972
-0.0039444857
-0.0044355831
-0.0049809972
-0.0055551225
-0.0061785223
-0.0068374807
-0.007542837
-0.0082872815
-0.0090760246
-0.0099040513
-0.010771833
-0.011675721
-0.012613525
-0.01358629
-0.014592224
-0.015621835
-0.016658202
-0.017721457
-0.018820012
-0.01992536
-0.021039505
-0.02216139
-0.023288537
-0.024417278
-0.025544405
-0.026665899
-0.027778231
-0.028877442
-0.029959843
-0.031021483
-0.032058473
-0.0330667
-0.034041936
-0.034979676
-0.035875139
-0.036723178
-0.037518236
-0.038254292
-0.038924837
-0.039522848
-0.040040792
-0.040470664
-0.040804029
-0.041032115
-0.041145916
-0.041136335
-0.040994335
-0.040711137
-0.040278392
-0.039688399
-0.038934285
-0.03801021
-0.036911511
-0.035634855
-0.034178331
-0.032541529
-0.030725539
-0.028732976
-0.026567883
-0.024235704
-0.021743127
-0.019098039
-0.016309299
-0.013386733
-0.010340847
-0.0071828647
-0.003924406
-0.00057756115
0.0028454656
0.0063322485
0.0098705318
0.013448096
0.017053151
0.020674197
0.02430038
0.027921384
0.031527664
0.035110488
0.038661865
0.042174956
0.045643409
0.049062553
0.052427542
0.055736227
0.058984851
0.062174559
0.065301944
0.068373445
0.07138491
0.074353129
0.077271715
0.080180031
0.083066962
0.086022069
0.089022318
0.092265684
0.095689252
0.099715219
0.10413824
0.10983423
0.11612903
0.12485894
0.13395931
0.14756328
0.15976768
0.18086111
0.19475083
0.22790895
0.24097345
0.28469278
-0.00019567572
-6.810709e-05
-0.00048953978
-0.00043925881
-0.00080880321
-0.00087050309
-0.0012088369
-0.001370977
-0.0017096108
-0.0019593699
-0.0023245647
-0.0026550186
-0.003066383
-0.0034756944
-0.0039475188
-0.0044368912
-0.0049795216
-0.0055514691
-0.0061723274
-0.0068289535
-0.0075316068
-0.0082723297
-0.0090558365
-0.0098767491
-0.010738186
-0.011639046
-0.01257604
-0.013543845
-0.01452404
-0.015533431
-0.0165942
-0.017670644
-0.018751154
-0.01984743
-0.020955599
-0.022070998
-0.023192082
-0.024314582
-0.02543572
-0.026551454
-0.027658419
-0.028752736
-0.029830834
-0.030888864
-0.03192305
-0.032929381
-0.033903729
-0.034841677
-0.035738523
-0.036589176
-0.037388122
-0.03812936
-0.038806375
-0.039412114
-0.039938989
-0.040378912
-0.040723341
-0.040963371
-0.041089844
-0.041093493
-0.040965095
-0.040695676
-0.040276683
-0.039700215
-0.038959193
-0.038047579
-0.036960516
-0.035694489
-0.034247404
-0.032618687
-0.030809263
-0.028821596
-0.026659581
-0.024328532
-0.021835007
-0.019186787
-0.016392631
-0.013462294
-0.01040622
-0.0072356067
-0.0039620512
-0.00059767124
0.0028453268
0.0063544652
0.009917443
0.013521953
0.017156147
0.020808433
0.024467924
0.028124254
0.031767929
0.035390262
0.038983459
0.042540886
0.046056618
0.049526376
0.052946084
0.056314283
0.059628585
0.062891222
0.066101108
0.069266182
0.072386088
0.075479189
0.078545002
0.081623095
0.084710923
0.087892729
0.091157095
0.094681316
0.098418714
0.10273523
0.10745637
0.11332669
0.11975959
0.12829382
0.13715397
0.14971138
0.16106485
0.17903539
0.19136494
0.21503415
0.2260895
0.24415699
-0.00031613341
-2.7869742e-05
-0.00054312062
-0.00043020093
-0.0008309758
-0.00086944518
-0.0012147644
-0.0013678745
-0.0017049376
-0.0019500681
-0.0023109579
-0.0026377009
-0.003043997
-0.0034494262
-0.0039159804
-0.0044009416
-0.0049379398
-0.0055042883
-0.0061178221
-0.0067668373
-0.0074600571
-0.0081924057
-0.0089693245
-0.0097864191
-0.010642191
-0.011529962
-0.012442743
-0.013391593
-0.014396286
-0.015427096
-0.016464415
-0.017524483
-0.018606647
-0.019701607
-0.020807891
-0.021922342
-0.023042583
-0.024165245
-0.025287298
-0.026405108
-0.027515329
-0.028614275
-0.02969845
-0.03076411
-0.031807543
-0.032824793
-0.033811763
-0.034764048
-0.035676927
-0.03654527
-0.037363493
-0.038125495
-0.038824635
-0.039453706
-0.040004936
-0.040470031
-0.04084022
-0.041106347
-0.041258989
-0.041288599
-0.041185664
-0.040940915
-0.040545498
-0.039991209
-0.03927067
-0.038377547
-0.037306691
-0.036054303
-0.034618022
-0.032997018
-0.031191981
-0.02920517
-0.027040303
-0.024702558
-0.022198395
-0.019535553
-0.016722788
-0.013769922
-0.010687491
-0.0074868732
-0.0041798534
-0.00077881394
0.0027037423
0.0062549717
0.0098622476
0.013512881
0.017194709
0.020895772
0.024604904
0.028311404
0.032005552
0.035678371
0.039321914
0.042929309
0.046494595
0.050013381
0.053481799
0.056898368
0.060261229
0.063572693
0.066832856
0.070049852
0.07322576
0.07637917
0.079514335
0.082670378
0.08585327
0.089143316
0.092542957
0.096213578
0.10012935
0.10460771
0.1095088
0.11545332
0.12194041
0.13022163
0.1388097
0.15039062
0.16106162
0.17676915
0.18848288
0.20778693
0.2190928
0.23140298
-0.00049334453
1.820442e-05
-0.00062152556
-0.00042800991
-0.00086952496
-0.00087873529
-0.0012347368
-0.0013765913
-0.0017136315
-0.001953085
-0.0023100145
-0.0026320054
-0.0030324573
-0.0034322205
-0.0038913444
-0.0043689185
-0.004896772
-0.0054544115
-0.0060593911
-0.0067002454
-0.0073862943
-0.008109375
-0.0088725358
-0.0096666585
-0.010498722
-0.011376744
-0.012303169
-0.013259887
-0.014233343
-0.015235178
-0.016268312
-0.017322115
-0.018390554
-0.019474674
-0.020571232
-0.021677298
-0.022790551
-0.023907576
-0.025025615
-0.02614117
-0.027251112
-0.028351912
-0.02944023
-0.03051244
-0.031564921
-0.032593776
-0.033594932
-0.034563967
-0.035496108
-0.036386135
-0.037228333
-0.038016437
-0.038743605
-0.0394024
-0.039984789
-0.040482195
-0.040885542
-0.041185353
-0.041371871
-0.041435205
-0.041365491
-0.041153101
-0.040788821
-0.040264085
-0.039571144
-0.038703297
-0.037655023
-0.036422155
-0.035001963
-0.033393263
-0.031596399
-0.029613315
-0.027447435
-0.025103699
-0.022588364
-0.019909043
-0.01707441
-0.014094305
-0.010979325
-0.0077410223
-0.0043913742
-0.00094311327
0.0025910021
0.0061977505
0.0098641235
0.013576953
0.017323652
0.021091756
0.024869712
0.028646375
0.03241176
0.036156605
0.039872916
0.043553803
0.04719357
0.050787971
0.054333697
0.057829711
0.061275253
0.064673385
0.068025959
0.071341988
0.074626176
0.077897472
0.08116369
0.084462073
0.087802903
0.09125836
0.094835728
0.098673838
0.10275393
0.10734098
0.11231511
0.11818415
0.12451981
0.13232542
0.14036212
0.15070416
0.16024545
0.17325034
0.18312869
0.19706089
0.20563845
0.21180756
-0.00071021489
7.3560653e-05
-0.00070938826
-0.00041811526
-0.00090623166
-0.00087824051
-0.001245315
-0.0013708029
-0.0017059973
-0.0019356613
-0.0022859688
-0.0025996739
-0.0029916136
-0.0033829693
-0.0038328369
-0.0043015865
-0.0048199599
-0.0053673614
-0.0059588497
-0.0065846535
-0.0072488247
-0.0079507501
-0.0086992235
-0.0094935028
-0.010329054
-0.011193557
-0.012088993
-0.013018108
-0.013985213
-0.014980171
-0.015995967
-0.01703465
-0.018093837
-0.019169514
-0.020259481
-0.021360849
-0.022471246
-0.023587752
-0.024707641
-0.025827779
-0.026945163
-0.028056479
-0.029158492
-0.030247673
-0.031320433
-0.032372868
-0.033400844
-0.034399836
-0.035364915
-0.03629066
-0.037171116
-0.037999735
-0.038769359
-0.039472201
-0.040099855
-0.040643346
-0.041093184
-0.041439466
-0.041671996
-0.04178044
-0.041754482
-0.041584044
-0.041259453
-0.040771686
-0.040112534
-0.039274838
-0.038252619
-0.037041265
-0.035637607
-0.034040056
-0.032248571
-0.030264768
-0.028091787
-0.025734368
-0.023198628
-0.020492154
-0.01762366
-0.014603164
-0.011441482
-0.0081505616
-0.0047427699
-0.0012313442
0.0023703201
0.0060482186
0.0097886791
0.013577753
0.01740222
0.021248875
0.025105601
0.028960593
0.032803403
0.036624201
0.040414633
0.044167319
0.047876311
0.051537178
0.05514679
0.058704099
0.062208776
0.065664009
0.06907264
0.07244385
0.075784107
0.079112295
0.082439123
0.085800487
0.089211088
0.092737623
0.096393677
0.10030174
0.10445274
0.10907046
0.11405677
0.11982588
0.12601906
0.13343333
0.14106218
0.15050029
0.15934981
0.17068857
0.17979381
0.19118803
0.19898581
0.20313591
-0.00094570634
0.00013464645
-0.00080633936
-0.00040929367
-0.00094747486
-0.00087882615
-0.001259058
-0.0013666816
-0.0017012926
-0.0019204049
-0.0022645771
-0.0025691379
-0.0029519437
-0.0033329982
-0.0037708971
-0.0042263854
-0.0047280623
-0.0052587405
-0.0058357013
-0.0064479084
-0.0071071746
-0.0078036418
-0.0085358337
-0.0093029401
-0.010108304
-0.010952315
-0.011835647
-0.012751093
-0.013694134
-0.014666098
-0.015665709
-0.016689006
-0.017732459
-0.018794762
-0.019873289
-0.020965728
-0.022069822
-0.02318287
-0.024302393
-0.025425478
-0.026549338
-0.027670836
-0.028786873
-0.029894007
-0.030988683
-0.032066981
-0.033124687
-0.034157145
-0.035159243
-0.036125324
-0.037049147
-0.037923834
-0.03874186
-0.039495033
-0.040174515
-0.040770873
-0.041274137
-0.04167391
-0.041959487
-0.042120017
-0.042144659
-0.042022803
-0.041744243
-0.041299417
-0.040679577
-0.03987703
-0.038885263
-0.03769915
-0.036315019
-0.034730815
-0.032946064
-0.030962012
-0.028781477
-0.026408982
-0.023850487
-0.021113556
-0.018206948
-0.015140882
-0.011926442
-0.0085760121
-0.0051024093
-0.0015197011
0.002158265
0.005916846
0.0097416547
0.01361788
0.017531537
0.021468511
0.025415984
0.029361324
0.03329354
0.037202199
0.041078688
0.044915505
0.048706961
0.052448493
0.056137266
0.059772397
0.063354375
0.066886805
0.070373592
0.073824276
0.077246713
0.080659339
0.08407435
0.087524937
0.091026983
0.094639231
0.09837602
0.10234099
0.10652733
0.11111855
0.11602976
0.1215918
0.12750103
0.13437541
0.14139276
0.14973514
0.15754472
0.16693883
0.17456899
0.18311696
0.18916368
0.19173354
-0.0011745819
0.00020244606
-0.00089776725
-0.00039103526
-0.00098167648
-0.00086883925
-0.0012610547
-0.00134711
-0.0016787457
-0.001883578
-0.0022187668
-0.0025107588
-0.0028818792
-0.0032503262
-0.0036756336
-0.004119052
-0.0046111233
-0.0051310785
-0.0056920045
-0.0062861162
-0.0069199581
-0.0075908559
-0.0083031891
-0.0090549289
-0.009845302
-0.010669329
-0.011527547
-0.012419173
-0.013344488
-0.014299388
-0.015280814
-0.016287794
-0.017318144
-0.018369539
-0.019439964
-0.020527194
-0.021629167
-0.022743533
-0.023867982
-0.024999901
-0.026136667
-0.027275332
-0.028412893
-0.029545975
-0.030671015
-0.031784034
-0.032880698
-0.033956171
-0.035005104
-0.036021546
-0.036998914
-0.037929941
-0.038806665
-0.039620425
-0.040361875
-0.041021046
-0.041587408
-0.042049985
-0.042397474
-0.042618413
-0.042701344
-0.04263503
-0.042408634
-0.04201197
-0.041435664
-0.040671414
-0.039712107
-0.038552057
-0.037187051
-0.035614558
-0.03383367
-0.031845295
-0.029651975
-0.027258087
-0.02466952
-0.021893932
-0.018940242
-0.015819038
-0.012541766
-0.0091214953
-0.0055716125
-0.0019067118
0.0018583383
0.005707584
0.009625738
0.013596869
0.017606184
0.021638553
0.025680471
0.029718431
0.033740934
0.037736829
0.041697134
0.045613586
0.049479893
0.053291379
0.057045534
0.060741544
0.064380136
0.067965025
0.07150092
0.074997385
0.078463381
0.08191703
0.085371954
0.088859616
0.092397663
0.096039397
0.099801386
0.10377342
0.10795307
0.11249251
0.11732153
0.1227044
0.12839007
0.13485569
0.1414451
0.1490312
0.15620602
0.16441435
0.17130567
0.17837483
0.18364529
0.18542245
-0.001383837
0.00026500936
-0.00098229227
-0.00037017299
-0.0010096996
-0.00085296001
-0.001257947
-0.0013226803
-0.0016528239
-0.0018439386
-0.0021715026
-0.002451431
-0.0028114821
-0.0031668318
-0.0035779037
-0.0040052807
-0.0044781164
-0.0049786688
-0.0055218918
-0.0060986773
-0.0067170006
-0.0073709581
-0.0080623731
-0.0087895004
-0.0095541604
-0.010355175
-0.01119278
-0.012063694
-0.012966209
-0.013899459
-0.014861948
-0.015851702
-0.016866549
-0.017905073
-0.018965362
-0.020045658
-0.021144124
-0.022258699
-0.023387322
-0.024527618
-0.025677168
-0.026833192
-0.027992803
-0.029152694
-0.030309308
-0.031458618
-0.032596175
-0.033716974
-0.034815428
-0.035885298
-0.036919651
-0.037910819
-0.038850388
-0.039729199
-0.040537364
-0.041264339
-0.041898981
-0.042429674
-0.042844449
-0.043131164
-0.04327766
-0.043271996
-0.043102621
-0.042758644
-0.042229988
-0.041507672
-0.040583921
-0.039452433
-0.038108412
-0.03654882
-0.03477229
-0.032779387
-0.030572367
-0.028155479
-0.025534545
-0.022717348
-0.019712986
-0.016532426
-0.013187591
-0.0096921238
-0.0060600099
-0.0023075602
0.0015499967
0.0054962147
0.0095148054
0.013588672
0.017702034
0.021838513
0.025983718
0.030122982
0.034244063
0.03833487
0.042385902
0.04638894
0.050338516
0.054229405
0.058059013
0.061826337
0.065532962
0.069182797
0.072781025
0.076337308
0.079861208
0.083369965
0.086877545
0.090412561
0.09399229
0.097663111
0.10144055
0.10539958
0.10953795
0.1139781
0.11865883
0.12378554
0.12914751
0.13510172
0.14112077
0.14782522
0.15414762
0.16103303
0.16686071
0.17240147
0.17664445
0.17796227
-0.0015596598
0.00032568385
-0.001053736
-0.00034416206
-0.0010285819
-0.00082840965
-0.0012432974
-0.0012846737
-0.001610611
-0.0017852048
-0.0021024985
-0.0023676476
-0.0027145085
-0.0030550446
-0.0034514827
-0.0038636934
-0.0043213789
-0.0048054588
-0.005329724
-0.005886004
-0.0064811503
-0.0071117705
-0.0077812688
-0.0084876198
-0.0092314253
-0.010010273
-0.010824497
-0.011672935
-0.012555272
-0.013469572
-0.014414325
-0.015388423
-0.016390365
-0.017418728
-0.018472037
-0.019548754
-0.020647312
-0.021765951
-0.022902835
-0.024055851
-0.02522276
-0.026400957
-0.027587659
-0.028779625
-0.029973298
-0.031164596
-0.032348953
-0.033521182
-0.034675456
-0.035805233
-0.036903214
-0.037961308
-0.03897062
-0.039921456
-0.040803345
-0.04160511
-0.042314936
-0.042920499
-0.043409088
-0.043767797
-0.043983681
-0.044044008
-0.043936428
-0.043649261
-0.04317165
-0.042493872
-0.041607431
-0.040505371
-0.039182282
-0.037634613
-0.035860542
-0.033860314
-0.031635938
-0.029191588
-0.026533084
-0.023668417
-0.02060695
-0.017360209
-0.013940485
-0.010362607
-0.0066413178
-0.0027925693
0.0011668424
0.0052180443
0.0093438161
0.013525663
0.017746976
0.021990127
0.026240038
0.030481004
0.034700398
0.038885381
0.043026502
0.047114287
0.05114144
0.055102932
0.058997171
0.062823496
0.06658314
0.070279996
0.073920162
0.077513
0.081068718
0.084604105
0.088133561
0.091683891
0.095272653
0.098941322
0.10270568
0.1066296
0.1107127
0.11505446
0.11960381
0.12452041
0.12963132
0.13520199
0.14081615
0.14690892
0.15268179
0.15872828
0.16393732
0.16859029
0.1722446
0.17320184
-0.0017025221
0.00037964327
-0.0011121212
-0.00031609381
-0.001039291
-0.00079870696
-0.0012222957
-0.0012413401
-0.0015633103
-0.001721886
-0.0020293438
-0.0022798134
-0.002613396
-0.0029383388
-0.0033186573
-0.0037132258
-0.0041519726
-0.0046165978
-0.0051215031
-0.0056582104
-0.0062337458
-0.0068437383
-0.0074910007
-0.0081737883
-0.0088936384
-0.0096494163
-0.010441509
-0.011268331
-0.012129313
-0.013023596
-0.013950295
-0.014908387
-0.015896663
-0.016914181
-0.017959743
-0.019032194
-0.020130245
-0.021252437
-0.022397194
-0.023562651
-0.024746779
-0.025947153
-0.02716112
-0.028385524
-0.029616839
-0.030850956
-0.032083219
-0.033308291
-0.034520128
-0.035711902
-0.036875966
-0.03800381
-0.039086057
-0.040112467
-0.041071961
-0.041952699
-0.042742148
-0.043427221
-0.0439944
-0.044429946
-0.04472005
-0.044851107
-0.044809883
-0.044583831
-0.044161232
-0.043531548
-0.042685495
-0.041615408
-0.040315211
-0.038780808
-0.037009884
-0.035002358
-0.032759967
-0.030286835
-0.027588758
-0.024673997
-0.021552151
-0.018235249
-0.014736391
-0.011070607
-0.0072529332
-0.0033037645
0.00076035566
0.0049215657
0.0091610738
0.013458761
0.017796853
0.022156088
0.026520398
0.030872522
0.035198917
0.039485165
0.04372024
0.047895357
0.052006482
0.056047041
0.060014144
0.063906108
0.067726003
0.071477933
0.075167545
0.078804412
0.082398959
0.085966752
0.089522112
0.09308909
0.09668426
0.10034337
0.10408055
0.10794841
0.111946
0.1161516
0.12052054
0.12517281
0.12996441
0.13508535
0.14020544
0.14561686
0.15072538
0.15588232
0.16034891
0.16414402
0.1671857
0.16798158
-0.0018113595
0.00042844635
-0.001154559
-0.00028382146
-0.001038856
-0.00076051206
-0.0011895805
-0.0011858318
-0.0015016723
-0.0016428157
-0.0019387404
-0.0021731293
-0.0024923355
-0.0028009753
-0.0031651601
-0.0035425954
-0.0039637493
-0.0044096512
-0.0048945128
-0.0054101338
-0.0059634219
-0.0065509117
-0.0071759185
-0.007836737
-0.0085346346
-0.009268339
-0.010038423
-0.010844143
-0.011685484
-0.012561604
-0.013471911
-0.01441582
-0.015392572
-0.016401471
-0.017441689
-0.018512353
-0.019612473
-0.020740889
-0.021896281
-0.023077046
-0.024281369
-0.025507019
-0.026751483
-0.02801171
-0.029284216
-0.030564885
-0.031848988
-0.033131055
-0.034404836
-0.035663229
-0.036898238
-0.038100934
-0.039261445
-0.040368962
-0.041411768
-0.042377317
-0.043252306
-0.044022823
-0.044674474
-0.045192607
-0.045562464
-0.045769484
-0.045799458
-0.045638887
-0.045275111
-0.044696703
-0.043893521
-0.042857146
-0.041580786
-0.04005978
-0.038291299
-0.036274946
-0.034012189
-0.031507124
-0.028765582
-0.025796079
-0.022608592
-0.019215889
-0.015630928
-0.011871516
-0.0079544022
-0.0038952036
0.00028411425
0.0045620349
0.0089201789
0.013337132
0.01779449
0.022271463
0.026751362
0.031215591
0.035650382
0.040040605
0.044376583
0.048644512
0.052836675
0.056947628
0.060978263
0.064928392
0.068798487
0.072592105
0.076317114
0.079982023
0.083597531
0.087179027
0.090740473
0.094304361
0.097886816
0.10151945
0.10521588
0.10902019
0.11293226
0.11701413
0.12122824
0.12566445
0.13020495
0.13498336
0.13974074
0.14466518
0.14931704
0.15387676
0.15785762
0.16109752
0.16372232
0.16433039
-0.0018915305
0.00047033274
-0.0011836488
-0.00025029451
-0.0010301242
-0.00071798728
-0.0011503483
-0.0011251397
-0.0014343179
-0.0015584667
-0.0018427237
-0.0020609781
-0.0023654545
-0.0026571618
-0.0030042401
-0.0033632543
-0.0037653195
-0.0041914687
-0.0046562518
-0.0051513604
-0.0056837468
-0.0062496996
-0.0068524697
-0.0074905828
-0.0081657243
-0.0088771711
-0.0096256723
-0.010410601
-0.011232098
-0.012089836
-0.012983626
-0.013913173
-0.014878066
-0.01587798
-0.016912416
-0.01798085
-0.019082604
-0.020216829
-0.021382493
-0.022578268
-0.023802579
-0.025053415
-0.026328437
-0.02762473
-0.028938891
-0.030266836
-0.0316038
-0.032944211
-0.03428165
-0.035608766
-0.036917237
-0.038197723
-0.03943986
-0.040632264
-0.041762557
-0.042817457
-0.043782844
-0.044643927
-0.045385367
-0.045991525
-0.046446607
-0.046735006
-0.046841445
-0.046751381
-0.046451113
-0.045928246
-0.045171692
-0.044172204
-0.042922208
-0.041416427
-0.039651465
-0.037626584
-0.035342946
-0.032804651
-0.030017486
-0.026990445
-0.023733632
-0.020260399
-0.016585974
-0.012725684
-0.0086989266
-0.0045277561
-0.00022902266
0.00417391
0.0086607757
0.013207711
0.017795051
0.022399828
0.027004406
0.031588245
0.03613692
0.040633707
0.045068482
0.049430213
0.05371338
0.057909347
0.062013073
0.066023165
0.06994638
0.073787565
0.077551073
0.081246635
0.084885508
0.088481032
0.09204751
0.095604788
0.099167971
0.10276421
0.10640545
0.11012763
0.11392995
0.11786
0.12188497
0.12606938
0.13031575
0.13471329
0.13905867
0.14346446
0.14760925
0.15156466
0.15502779
0.15775822
0.16000109
0.16053724
-0.0019460357
0.00050704152
-0.0011984155
-0.00021346933
-0.0010106875
-0.00066801259
-0.0011003789
-0.0010540418
-0.0013546927
-0.0014612074
-0.0017325618
-0.0019339402
-0.0022229771
-0.002497375
-0.0028272525
-0.0031679835
-0.0035513015
-0.0039577773
-0.0044020955
-0.0048760153
-0.0053866022
-0.005930507
-0.00651122
-0.0071274004
-0.0077807709
-0.0084707454
-0.0091982855
-0.0099632112
-0.010766011
-0.01160661
-0.012485147
-0.013401675
-0.014356156
-0.015348575
-0.016378786
-0.017446583
-0.018551609
-0.019693335
-0.020871024
-0.022083643
-0.023329876
-0.024607956
-0.025915739
-0.027250476
-0.028608877
-0.029986912
-0.031379813
-0.032781937
-0.034186712
-0.035586562
-0.036972846
-0.038335823
-0.039664626
-0.040947284
-0.042170728
-0.043320902
-0.044382815
-0.045340736
-0.046178304
-0.046878808
-0.047425327
-0.047801114
-0.047989718
-0.047975458
-0.047743492
-0.047280368
-0.046573966
-0.045614149
-0.044392488
-0.042903057
-0.041141845
-0.039107773
-0.036801673
-0.034227649
-0.031391546
-0.028302508
-0.024971421
-0.021412472
-0.017640282
-0.013675284
-0.0095339431
-0.0052386389
-0.00081055827
0.0037250912
0.0083472132
0.013029853
0.017752567
0.022490187
0.027224452
0.031932784
0.0366004
0.04120877
0.045747441
0.050202373
0.054567638
0.058836757
0.063009987
0.067083265
0.071055541
0.07493154
0.078724115
0.082439781
0.086088881
0.08968632
0.093244799
0.096783291
0.10031623
0.10386742
0.10744826
0.11108838
0.11478749
0.11858218
0.12244474
0.12642075
0.13043043
0.1345303
0.13856134
0.14258162
0.14635624
0.1498807
0.15297309
0.15534104
0.1572922
0.15771988
-0.0019804756
0.00053816066
-0.0012020214
-0.00017565471
-0.000983649
-0.00061416823
-0.0010440424
-0.00097785314
-0.0012690352
-0.0013582464
-0.0016162345
-0.0018006034
-0.0020737291
-0.0023303297
-0.0026423325
-0.0029640634
-0.0033279291
-0.0037142796
-0.004138076
-0.0045910136
-0.0050802435
-0.0056023979
-0.006161051
-0.0067550541
-0.0073863846
-0.0080547807
-0.0087614156
-0.0095063477
-0.010290312
-0.011113591
-0.011976663
-0.012879905
-0.013823627
-0.014808165
-0.015833717
-0.016900431
-0.01800829
-0.019157104
-0.020346464
-0.021575654
-0.02284365
-0.024148962
-0.025489682
-0.026863267
-0.028266576
-0.029695683
-0.031145856
-0.032611416
-0.034085682
-0.035560877
-0.037028067
-0.038477122
-0.039896679
-0.041274166
-0.042595807
-0.04384673
-0.04501103
-0.046071969
-0.047012086
-0.047813512
-0.048458098
-0.048927852
-0.049205035
-0.04927272
-0.049114803
-0.048716676
-0.048065076
-0.047148888
-0.045958737
-0.044487987
-0.042731934
-0.040689129
-0.038360007
-0.03574874
-0.032860974
-0.029706956
-0.026296613
-0.022646862
-0.018772678
-0.014693265
-0.01042842
-0.0060028575
-0.0014373103
0.0032405351
0.0080084616
0.012837608
0.017706502
0.022587108
0.027460458
0.032301399
0.037094861
0.041820345
0.046467612
0.051022092
0.055478384
0.0598274
0.064068034
0.068198654
0.07222567
0.076147066
0.079968464
0.083702113
0.087362257
0.090958241
0.094505143
0.098019209
0.10151401
0.10501033
0.10851797
0.11206113
0.11563899
0.11927882
0.1229565
0.1267024
0.13045079
0.13423376
0.13792738
0.14155286
0.14494197
0.1480468
0.15077315
0.15282027
0.15452135
0.15490895
-0.0019979257
0.00056545564
-0.0011942386
-0.00013497786
-0.00094719898
-0.00055382243
-0.00097816458
-0.00089269077
-0.0011727518
-0.0012443707
-0.0014879722
-0.0016548705
-0.0019114833
-0.0021499721
-0.0024438517
-0.0027464692
-0.0030908034
-0.003456864
-0.0038598268
-0.0042913944
-0.0047588718
-0.0052590715
-0.0057957405
-0.0063678841
-0.0069776133
-0.0076248619
-0.008311021
-0.0090364655
-0.009802219
-0.010608857
-0.011457178
-0.012347883
-0.013281637
-0.014259108
-0.015280852
-0.016347364
-0.01745898
-0.018615866
-0.019817955
-0.021064875
-0.022355922
-0.023689911
-0.025065205
-0.026479499
-0.027929843
-0.029412451
-0.030922663
-0.032454802
-0.034002103
-0.035556617
-0.037109136
-0.038649149
-0.040164796
-0.041642891
-0.04306892
-0.04442716
-0.045700728
-0.04687181
-0.047921761
-0.048831459
-0.049581417
-0.050152284
-0.050524914
-0.050681016
-0.050603105
-0.050275313
-0.049683118
-0.048814357
-0.047658608
-0.046208487
-0.044458522
-0.042406908
-0.04005362
-0.037402904
-0.034460569
-0.031236113
-0.027743022
-0.023996255
-0.02001149
-0.015811191
-0.011414571
-0.006848571
-0.0021356408
0.0026937646
0.0076164776
0.012600523
0.017623736
0.022654858
0.02767452
0.03265455
0.037579805
0.042427181
0.047186603
0.051841252
0.056386416
0.060812666
0.065120536
0.069306473
0.073374362
0.077329595
0.081180144
0.084928324
0.088586998
0.092174526
0.09570103
0.099182951
0.10263372
0.10607097
0.10950475
0.11295449
0.11642004
0.11992152
0.12343856
0.12699032
0.13052291
0.13405072
0.13747695
0.14079667
0.1438892
0.1466774
0.14912297
0.15092355
0.15241853
0.15273867
-0.0020025444
0.00058894136
-0.001177871
-9.3150414e-05
-0.00090407405
-0.00048975742
-0.00090616607
-0.00080242084
-0.0010702593
-0.0011244771
-0.0013530587
-0.0015022889
-0.0017418551
-0.0019618111
-0.0022370135
-0.0025200154
-0.0028443365
-0.0031897641
-0.0035717039
-0.0039818255
-0.0044275461
-0.0049057323
-0.0054202547
-0.0059702876
-0.0065581423
-0.0071839984
-0.0078494645
-0.0085551704
-0.0093024011
-0.010092043
-0.010925214
-0.011802942
-0.012726238
-0.013696125
-0.014713525
-0.015779303
-0.016894171
-0.018058674
-0.019273121
-0.02053751
-0.021851498
-0.023214242
-0.02462442
-0.02608001
-0.027578301
-0.029115692
-0.030687642
-0.032288523
-0.033911528
-0.035548569
-0.037190192
-0.038825522
-0.040442206
-0.042026438
-0.043562941
-0.045035103
-0.046425004
-0.047713685
-0.048881221
-0.049907137
-0.050770483
-0.051450431
-0.051926285
-0.052178261
-0.052187345
-0.051936289
-0.051409174
-0.05059269
-0.049475248
-0.04804865
-0.046306557
-0.044246749
-0.041868683
-0.03917667
-0.036175928
-0.032879168
-0.029297088
-0.025446717
-0.021344546
-0.017014184
-0.012476258
-0.0077603288
-0.0028893452
0.0021028647
0.0071923505
0.01234321
0.017532677
0.022725461
0.027901997
0.033030412
0.038095863
0.043072263
0.047950303
0.052711151
0.057351016
0.061858586
0.066235221
0.070477231
0.074591026
0.078578007
0.082447508
0.086210689
0.089873003
0.093445396
0.096946579
0.10039049
0.10378887
0.10715876
0.11050799
0.11385317
0.11719365
0.12054405
0.12388681
0.12723254
0.13053705
0.13380241
0.13695365
0.13996991
0.14276742
0.14525603
0.14743728
0.14902428
0.15034789
0.15064178
-0.0019964198
0.00061009608
-0.0011528812
-4.8614598e-05
-0.00085297687
-0.00041992401
-0.00082577574
-0.00070426268
-0.00095841981
-0.00099505915
-0.0012077125
-0.0013389084
-0.0015608411
-0.0017619276
-0.0020180808
-0.0022811981
-0.0025852214
-0.0029097217
-0.003270296
-0.0036586235
-0.0040822631
-0.0045382051
-0.0050304687
-0.0055583828
-0.006124418
-0.0067289561
-0.0073738209
-0.0080599115
-0.0087887822
-0.0095616135
-0.010379834
-0.011244799
-0.01215787
-0.013120422
-0.014133753
-0.015199107
-0.016317588
-0.017490141
-0.018717473
-0.019999987
-0.021337729
-0.022730237
-0.024176545
-0.025674958
-0.027223046
-0.028817441
-0.030453769
-0.032126491
-0.033828797
-0.035552498
-0.037287917
-0.039023831
-0.040747398
-0.042444181
-0.044098112