/*--------------------------------*- C++ -*----------------------------------*\
| =========                 |                                                 |
| \\      /  F ield         | foam-extend: Open Source CFD                    |
|  \\    /   O peration     | Version:     4.1                                |
|   \\  /    A nd           | Web:         http://www.foam-extend.org         |
|    \\/     M anipulation  |                                                 |
\*---------------------------------------------------------------------------*/
FoamFile
{
    version     2.0;
    format      ascii;
    class       volScalarField;
    location    "2";
    object      rAU;
}
// * * * * * * * * * * * * * * * * * * * * * * * * * * * * * * * * * * * * * //

dimensions      [0 0 1 0 0 0 0];

internalField   nonuniform List<scalar> 
16126
(
0.00049561932
0.00049520056
0.00049520166
0.00049520245
0.00049520367
0.00049520491
0.0004952064
0.00049520804
0.00049520985
0.00049521186
0.00049521402
0.00049521638
0.00049521888
0.00049522158
0.0004952244
0.00049522739
0.0004952305
0.00049523376
0.0004952371
0.00049524055
0.00049524405
0.00049524761
0.00049525116
0.0004952547
0.00049525816
0.00049526153
0.00049526473
0.00049526776
0.00049527051
0.00049527298
0.00049527506
0.00049527677
0.00049527801
0.00049527868
0.00049527797
0.00049527653
0.00049527441
0.00049527158
0.00049526803
0.00049526372
0.00049525866
0.0004952528
0.00049524616
0.00049523871
0.00049523046
0.0004952214
0.00049521156
0.00049520093
0.00049518954
0.0004951774
0.00049516455
0.00049515099
0.00049513677
0.00049512192
0.00049510647
0.00049509047
0.00049507395
0.00049505695
0.00049503953
0.00049502174
0.00049500363
0.00049498526
0.00049496669
0.00049494798
0.00049492922
0.00049491045
0.00049489178
0.00049487327
0.000494855
0.00049483705
0.00049481951
0.00049480244
0.00049478591
0.00049476999
0.00049475472
0.00049474013
0.00049472627
0.00049471313
0.00049470071
0.000494689
0.00049467795
0.00049466752
0.00049465764
0.00049464824
0.0004946392
0.00049463044
0.00049462182
0.00049461321
0.00049460447
0.00049459544
0.00049458596
0.00049457585
0.00049456493
0.00049455299
0.00049453982
0.0004945252
0.00049450888
0.0004944906
0.00049447005
0.00049444691
0.00049442078
0.00049439121
0.00049435763
0.00049431932
0.00049427537
0.00049422454
0.00049416523
0.00049409518
0.00049401151
0.00049391018
0.00049378614
0.00049363263
0.00049344169
0.00049320313
0.00049290627
0.00049253807
0.00049208756
0.00049154118
0.00049089386
0.00049013414
0.00048928051
0.00048831496
0.00048738605
0.00048591085
0.00049445413
0.00049403702
0.00049403914
0.00049404043
0.00049404277
0.00049404505
0.00049404787
0.00049405096
0.00049405439
0.0004940582
0.00049406228
0.00049406674
0.00049407145
0.00049407652
0.00049408182
0.00049408743
0.00049409323
0.00049409929
0.00049410549
0.00049411185
0.00049411827
0.00049412475
0.00049413116
0.0004941375
0.00049414363
0.00049414951
0.00049415497
0.00049415997
0.00049416434
0.00049416802
0.00049417075
0.00049417238
0.00049417163
0.00049416834
0.00049416294
0.00049415601
0.00049414751
0.00049413729
0.00049412534
0.00049411154
0.00049409593
0.00049407841
0.00049405903
0.00049403778
0.00049401466
0.00049398973
0.00049396302
0.00049393461
0.00049390456
0.00049387298
0.00049383994
0.00049380558
0.00049376999
0.0004937333
0.00049369565
0.00049365716
0.00049361796
0.00049357819
0.00049353798
0.00049349746
0.00049345678
0.00049341604
0.0004933754
0.00049333497
0.00049329488
0.00049325526
0.00049321623
0.00049317791
0.00049314041
0.00049310384
0.0004930683
0.00049303387
0.00049300062
0.0004929686
0.00049293783
0.00049290831
0.00049288003
0.00049285291
0.00049282689
0.00049280184
0.00049277761
0.00049275404
0.00049273091
0.00049270799
0.00049268503
0.00049266174
0.0004926378
0.0004926129
0.00049258667
0.00049255873
0.0004925287
0.00049249614
0.00049246062
0.00049242165
0.00049237873
0.00049233132
0.00049227884
0.00049222064
0.00049215603
0.00049208423
0.00049200437
0.00049191546
0.00049181638
0.00049170582
0.00049158232
0.00049144412
0.00049128927
0.00049111542
0.00049092012
0.00049070039
0.00049045346
0.00049017604
0.00048986595
0.00048952057
0.00048914047
0.00048872571
0.00048828379
0.0004878199
0.00048735654
0.00048690415
0.00048652219
0.00048620624
0.00048615527
0.00048575115
0.00049256037
0.00049214545
0.00049214783
0.00049214886
0.00049215134
0.00049215361
0.00049215657
0.00049215976
0.00049216334
0.0004921673
0.00049217153
0.00049217616
0.00049218102
0.00049218623
0.00049219163
0.00049219733
0.00049220315
0.00049220919
0.00049221528
0.00049222147
0.0004922276
0.00049223369
0.00049223956
0.00049224521
0.00049225044
0.00049225523
0.00049225935
0.00049226277
0.00049226517
0.00049226645
0.00049226583
0.0004922607
0.00049225293
0.00049224234
0.0004922299
0.0004922153
0.00049219852
0.00049217938
0.0004921579
0.00049213395
0.00049210762
0.00049207882
0.00049204764
0.00049201411
0.00049197831
0.00049194031
0.00049190024
0.00049185822
0.0004918144
0.00049176894
0.00049172201
0.00049167378
0.00049162443
0.00049157416
0.00049152315
0.00049147159
0.00049141964
0.0004913675
0.00049131532
0.00049126328
0.00049121151
0.00049116018
0.00049110942
0.00049105937
0.00049101015
0.00049096188
0.00049091469
0.00049086867
0.00049082391
0.00049078049
0.00049073849
0.00049069792
0.00049065882
0.00049062119
0.00049058497
0.0004905501
0.00049051649
0.000490484
0.00049045247
0.00049042169
0.00049039143
0.00049036144
0.00049033143
0.00049030107
0.00049027004
0.00049023796
0.00049020447
0.00049016916
0.00049013162
0.00049009143
0.00049004815
0.00049000133
0.00048995052
0.00048989523
0.000489835
0.00048976933
0.0004896977
0.00048961962
0.00048953453
0.00048944186
0.00048934104
0.00048923145
0.00048911242
0.00048898328
0.00048884329
0.00048869165
0.00048852763
0.00048835034
0.00048815915
0.0004879533
0.00048773269
0.00048749719
0.00048724829
0.00048698749
0.00048671994
0.00048645025
0.00048619061
0.00048594955
0.00048575239
0.00048560756
0.0004855705
0.00048562428
0.00048592344
0.00048589627
0.00049096757
0.00049055379
0.00049055574
0.00049055581
0.00049055759
0.00049055896
0.00049056104
0.00049056324
0.00049056578
0.0004905686
0.0004905716
0.00049057491
0.00049057832
0.00049058199
0.00049058571
0.00049058961
0.00049059348
0.00049059744
0.00049060128
0.00049060507
0.00049060861
0.00049061194
0.00049061487
0.00049061741
0.00049061933
0.00049062063
0.000490621
0.00049062044
0.00049061857
0.00049061116
0.00049060169
0.00049058769
0.00049057181
0.00049055367
0.00049053324
0.00049051028
0.00049048487
0.00049045682
0.00049042624
0.00049039303
0.00049035733
0.00049031908
0.00049027846
0.00049023554
0.00049019044
0.00049014333
0.00049009435
0.00049004371
0.00048999158
0.00048993818
0.0004898837
0.00048982836
0.00048977236
0.00048971591
0.00048965921
0.00048960245
0.00048954582
0.00048948948
0.0004894336
0.00048937835
0.00048932385
0.00048927026
0.0004892177
0.00048916629
0.00048911614
0.00048906737
0.00048902006
0.0004889743
0.00048893014
0.00048888765
0.00048884684
0.00048880771
0.00048877025
0.00048873439
0.00048870006
0.00048866713
0.00048863547
0.00048860489
0.00048857519
0.00048854612
0.00048851744
0.00048848886
0.00048846008
0.00048843077
0.00048840062
0.00048836927
0.00048833639
0.00048830161
0.00048826459
0.00048822498
0.00048818245
0.00048813666
0.00048808727
0.00048803398
0.00048797649
0.00048791452
0.00048784779
0.00048777606
0.00048769909
0.00048761665
0.00048752855
0.00048743461
0.00048733466
0.00048722855
0.00048711618
0.00048699745
0.00048687238
0.00048674099
0.00048660361
0.0004864606
0.00048631306
0.00048616218
0.00048601079
0.00048586178
0.00048572135
0.00048559493
0.00048549443
0.00048542711
0.00048541427
0.0004854583
0.00048559995
0.00048581071
0.00048618802
0.00048618972
0.00048970677
0.00048929319
0.00048929408
0.0004892926
0.00048929297
0.00048929268
0.00048929308
0.00048929343
0.00048929402
0.00048929475
0.00048929553
0.00048929647
0.00048929737
0.00048929838
0.00048929928
0.0004893002
0.00048930094
0.0004893016
0.00048930198
0.00048930217
0.00048930195
0.00048930141
0.0004893003
0.00048929866
0.00048929627
0.00048929319
0.00048928823
0.00048927845
0.00048926716
0.00048925026
0.0004892314
0.00048921043
0.00048918717
0.0004891614
0.00048913323
0.00048910249
0.00048906932
0.00048903358
0.00048899546
0.00048895487
0.00048891206
0.000488867
0.00048881992
0.00048877093
0.00048872023
0.000488668
0.00048861442
0.00048855973
0.00048850411
0.0004884478
0.00048839099
0.0004883339
0.00048827673
0.00048821967
0.00048816292
0.00048810663
0.000488051
0.00048799616
0.00048794227
0.00048788947
0.0004878379
0.00048778768
0.00048773894
0.00048769178
0.0004876463
0.00048760261
0.00048756078
0.00048752088
0.00048748295
0.00048744703
0.00048741311
0.00048738117
0.00048735116
0.000487323
0.00048729656
0.00048727172
0.0004872483
0.00048722609
0.00048720489
0.00048718445
0.0004871645
0.00048714478
0.00048712499
0.00048710486
0.00048708408
0.00048706236
0.00048703942
0.00048701498
0.00048698876
0.00048696053
0.00048693004
0.00048689709
0.00048686147
0.00048682302
0.0004867816
0.00048673709
0.00048668939
0.00048663846
0.00048658425
0.00048652674
0.00048646596
0.00048640196
0.00048633481
0.00048626464
0.00048619159
0.00048611587
0.00048603781
0.00048595778
0.00048587644
0.00048579456
0.00048571357
0.00048563499
0.00048556175
0.00048549669
0.00048544526
0.00048541181
0.00048540573
0.00048543126
0.00048550407
0.00048562195
0.00048581425
0.00048605373
0.00048640408
0.00048636748
0.00048876517
0.00048835115
0.00048835052
0.00048834712
0.00048834561
0.00048834324
0.00048834149
0.00048833952
0.00048833769
0.00048833585
0.00048833394
0.00048833204
0.00048832999
0.0004883279
0.00048832557
0.00048832315
0.00048832041
0.0004883175
0.00048831418
0.00048831057
0.00048830645
0.00048830192
0.00048829679
0.00048829115
0.0004882813
0.00048826939
0.00048825531
0.00048823611
0.00048821495
0.00048819178
0.0004881663
0.00048813851
0.00048810839
0.00048807584
0.00048804103
0.00048800382
0.00048796443
0.00048792277
0.00048787911
0.00048783339
0.00048778592
0.00048773671
0.00048768605
0.00048763407
0.00048758099
0.00048752701
0.00048747233
0.00048741718
0.00048736175
0.00048730626
0.00048725089
0.00048719585
0.0004871413
0.00048708743
0.00048703441
0.00048698237
0.00048693149
0.00048688189
0.00048683371
0.0004867871
0.00048674216
0.00048669902
0.0004866578
0.0004866186
0.00048658151
0.00048654662
0.00048651401
0.00048648372
0.00048645579
0.00048643022
0.00048640699
0.00048638606
0.00048636736
0.00048635076
0.00048633614
0.00048632333
0.00048631215
0.00048630236
0.00048629376
0.00048628608
0.00048627906
0.00048627245
0.00048626596
0.00048625934
0.00048625232
0.00048624464
0.00048623606
0.00048622636
0.00048621534
0.00048620279
0.00048618859
0.00048617257
0.00048615465
0.00048613473
0.00048611276
0.00048608873
0.00048606263
0.00048603452
0.00048600444
0.00048597248
0.00048593876
0.00048590341
0.00048586663
0.00048582861
0.0004857896
0.0004857499
0.00048570993
0.00048567012
0.00048563121
0.000485594
0.00048555984
0.00048553015
0.00048550748
0.00048549418
0.00048549469
0.00048551218
0.00048555388
0.00048562208
0.00048572843
0.00048586891
0.00048606442
0.00048629126
0.00048658927
0.0004864908
0.00048809861
0.00048768571
0.00048768343
0.00048767809
0.0004876746
0.00048767009
0.00048766612
0.00048766182
0.00048765756
0.00048765318
0.00048764865
0.00048764402
0.00048763915
0.00048763415
0.00048762884
0.00048762335
0.00048761747
0.00048761135
0.00048760478
0.0004875979
0.00048759051
0.00048757931
0.00048756671
0.00048755319
0.00048753502
0.00048751423
0.00048749148
0.00048746678
0.00048743984
0.00048741077
0.00048737938
0.00048734581
0.00048731009
0.00048727213
0.00048723218
0.00048719015
0.00048714635
0.0004871007
0.00048705355
0.00048700487
0.00048695503
0.00048690404
0.00048685222
0.00048679973
0.00048674679
0.00048669359
0.00048664034
0.00048658726
0.00048653451
0.0004864823
0.00048643079
0.00048638016
0.00048633055
0.00048628215
0.00048623507
0.00048618946
0.00048614546
0.0004861032
0.00048606279
0.00048602437
0.00048598805
0.00048595395
0.00048592217
0.0004858928
0.00048586595
0.00048584166
0.00048582003
0.00048580106
0.00048578477
0.00048577114
0.00048576014
0.00048575168
0.00048574568
0.00048574197
0.00048574042
0.00048574082
0.00048574296
0.00048574661
0.00048575153
0.00048575745
0.00048576411
0.00048577125
0.00048577859
0.00048578588
0.00048579288
0.00048579934
0.00048580506
0.00048580984
0.00048581351
0.00048581593
0.00048581699
0.00048581658
0.00048581465
0.00048581118
0.00048580614
0.00048579956
0.00048579149
0.00048578201
0.00048577119
0.00048575916
0.00048574605
0.00048573203
0.00048571726
0.00048570196
0.00048568638
0.00048567079
0.00048565557
0.00048564115
0.00048562818
0.00048561738
0.00048560992
0.00048560702
0.00048561079
0.00048562312
0.00048564755
0.00048568641
0.00048574537
0.00048582572
0.00048593658
0.00048607412
0.000486254
0.00048645813
0.00048671096
0.00048656468
0.00048764911
0.00048724078
0.00048723639
0.00048723039
0.00048722514
0.00048721876
0.00048721287
0.00048720654
0.00048720021
0.00048719368
0.00048718695
0.00048718007
0.00048717289
0.00048716554
0.00048715785
0.00048714995
0.00048714126
0.00048713027
0.00048711835
0.00048710566
0.00048709197
0.00048707399
0.000487054
0.00048703235
0.00048700876
0.0004869833
0.00048695571
0.0004869261
0.00048689429
0.00048686048
0.00048682449
0.00048678652
0.00048674665
0.00048670485
0.00048666142
0.00048661632
0.00048656989
0.00048652211
0.00048647335
0.00048642362
0.0004863733
0.00048632242
0.00048627132
0.00048622015
0.00048616911
0.00048611841
0.00048606822
0.00048601875
0.00048597015
0.00048592258
0.0004858762
0.00048583116
0.0004857876
0.00048574566
0.00048570545
0.00048566711
0.00048563075
0.00048559651
0.00048556448
0.00048553481
0.00048550758
0.0004854829
0.00048546087
0.00048544158
0.0004854251
0.00048541148
0.00048540077
0.00048539297
0.00048538806
0.00048538602
0.00048538676
0.00048539017
0.00048539615
0.0004854045
0.00048541505
0.00048542758
0.00048544186
0.00048545762
0.00048547462
0.00048549258
0.00048551121
0.00048553026
0.00048554944
0.00048556851
0.00048558723
0.00048560538
0.00048562275
0.00048563916
0.00048565447
0.00048566855
0.00048568131
0.00048569267
0.0004857026
0.00048571109
0.00048571815
0.00048572381
0.00048572814
0.00048573123
0.00048573316
0.00048573406
0.00048573407
0.00048573332
0.000485732
0.00048573031
0.00048572846
0.00048572673
0.00048572546
0.00048572505
0.00048572609
0.00048572925
0.00048573556
0.0004857461
0.0004857627
0.00048578695
0.00048582185
0.00048586925
0.0004859338
0.00048601632
0.00048612389
0.00048625299
0.00048641462
0.00048659447
0.00048680658
0.00048661724
0.00048736007
0.0004869541
0.00048694772
0.0004869426
0.00048693616
0.0004869295
0.00048692243
0.00048691508
0.00048690724
0.00048689906
0.00048689032
0.00048688115
0.00048687133
0.00048686099
0.00048684991
0.00048683824
0.00048682535
0.00048680968
0.00048679255
0.00048677404
0.00048675387
0.00048673212
0.00048670851
0.00048668312
0.00048665571
0.00048662642
0.00048659505
0.00048656177
0.00048652641
0.00048648921
0.00048645005
0.00048640917
0.00048636669
0.00048632262
0.00048627731
0.00048623073
0.00048618327
0.00048613494
0.00048608612
0.00048603683
0.00048598747
0.00048593806
0.00048588894
0.00048584024
0.00048579216
0.00048574488
0.00048569856
0.00048565338
0.00048560947
0.00048556698
0.00048552604
0.00048548678
0.00048544932
0.0004854138
0.00048538031
0.00048534898
0.00048531993
0.00048529325
0.00048526907
0.00048524749
0.00048522862
0.00048521254
0.00048519934
0.0004851891
0.00048518186
0.00048517767
0.00048517655
0.00048517848
0.00048518342
0.0004851913
0.00048520202
0.00048521545
0.00048523144
0.0004852498
0.0004852703
0.00048529272
0.0004853168
0.00048534225
0.00048536883
0.00048539622
0.00048542416
0.00048545235
0.00048548054
0.00048550846
0.00048553586
0.00048556254
0.0004855883
0.00048561296
0.00048563639
0.00048565846
0.0004856791
0.00048569825
0.00048571588
0.00048573199
0.0004857466
0.00048575974
0.00048577149
0.00048578194
0.00048579118
0.00048579932
0.0004858065
0.00048581287
0.00048581857
0.00048582382
0.00048582882
0.00048583383
0.00048583918
0.00048584527
0.00048585265
0.00048586197
0.00048587419
0.00048589029
0.00048591192
0.00048594048
0.00048597853
0.00048602766
0.00048609167
0.00048617121
0.00048627181
0.00048639055
0.0004865351
0.00048669447
0.00048687579
0.00048665362
0.00048718273
0.00048677529
0.00048676765
0.00048676246
0.00048675496
0.00048674809
0.00048673995
0.00048673169
0.00048672247
0.00048671278
0.00048670215
0.00048669082
0.00048667846
0.0004866652
0.00048665076
0.00048663525
0.00048661837
0.00048660023
0.00048658052
0.00048655935
0.00048653644
0.00048651189
0.00048648545
0.00048645727
0.00048642711
0.00048639515
0.00048636119
0.00048632545
0.00048628782
0.00048624855
0.00048620756
0.00048616514
0.00048612143
0.00048607645
0.0004860306
0.00048598386
0.00048593664
0.00048588895
0.00048584119
0.00048579337
0.00048574589
0.00048569876
0.0004856523
0.00048560663
0.00048556192
0.00048551834
0.00048547603
0.00048543514
0.00048539578
0.00048535809
0.00048532218
0.00048528818
0.00048525619
0.00048522633
0.0004851987
0.00048517342
0.00048515059
0.00048513033
0.00048511274
0.00048509793
0.00048508598
0.00048507699
0.00048507102
0.00048506815
0.00048506841
0.0004850718
0.00048507836
0.00048508802
0.00048510073
0.0004851164
0.00048513491
0.0004851561
0.00048517981
0.0004852058
0.00048523385
0.00048526371
0.00048529509
0.00048532773
0.00048536133
0.00048539558
0.0004854302
0.00048546489
0.00048549939
0.00048553343
0.00048556677
0.00048559918
0.00048563048
0.00048566049
0.00048568907
0.00048571612
0.00048574156
0.00048576533
0.00048578741
0.00048580781
0.00048582655
0.00048584368
0.00048585929
0.00048587345
0.00048588628
0.0004858979
0.00048590845
0.00048591807
0.00048592695
0.00048593528
0.00048594331
0.00048595129
0.00048595959
0.0004859686
0.00048597888
0.00048599107
0.00048600609
0.00048602487
0.0004860489
0.00048607943
0.00048611867
0.00048616796
0.00048623037
0.0004863063
0.00048639986
0.00048650844
0.00048663698
0.00048677692
0.00048693133
0.00048668125
0.00048707737
0.00048666853
0.00048666
0.00048665354
0.0004866449
0.00048663677
0.00048662735
0.00048661776
0.00048660715
0.00048659602
0.00048658389
0.000486571
0.00048655702
0.0004865421
0.00048652593
0.00048650862
0.0004864899
0.00048646986
0.00048644822
0.00048642511
0.00048640026
0.0004863738
0.00048634547
0.00048631545
0.00048628353
0.00048624991
0.00048621444
0.00048617737
0.00048613858
0.00048609838
0.0004860567
0.00048601385
0.00048596999
0.00048592517
0.00048587978
0.00048583383
0.00048578771
0.00048574144
0.00048569542
0.00048564963
0.00048560448
0.00048555994
0.00048551632
0.00048547373
0.00048543231
0.00048539221
0.00048535355
0.00048531646
0.00048528105
0.00048524744
0.00048521573
0.00048518603
0.00048515845
0.00048513311
0.00048511011
0.00048508956
0.00048507157
0.00048505626
0.00048504373
0.00048503408
0.00048502741
0.00048502379
0.00048502329
0.00048502597
0.00048503186
0.00048504095
0.00048505324
0.00048506867
0.00048508717
0.00048510863
0.0004851329
0.00048515982
0.00048518919
0.00048522078
0.00048525435
0.00048528961
0.0004853263
0.00048536409
0.00048540272
0.00048544184
0.00048548117
0.00048552041
0.00048555927
0.00048559748
0.0004856348
0.00048567099
0.00048570587
0.00048573926
0.00048577102
0.00048580105
0.00048582929
0.00048585567
0.00048588018
0.00048590284
0.00048592368
0.00048594274
0.00048596013
0.00048597594
0.00048599029
0.00048600331
0.00048601516
0.000486026
0.00048603602
0.00048604545
0.00048605453
0.00048606356
0.00048607291
0.00048608298
0.00048609434
0.00048610763
0.0004861237
0.00048614345
0.0004861682
0.00048619908
0.00048623798
0.000486286
0.00048634564
0.00048641715
0.00048650358
0.0004866027
0.00048671757
0.0004868415
0.00048697493
0.00048670262
0.00048701575
0.00048660565
0.0004865965
0.00048658903
0.00048657957
0.00048657047
0.00048656011
0.00048654951
0.00048653787
0.00048652565
0.0004865124
0.00048649836
0.00048648319
0.00048646704
0.00048644962
0.00048643104
0.00048641103
0.0004863897
0.00048636679
0.0004863424
0.0004863163
0.00048628864
0.00048625918
0.00048622812
0.00048619527
0.00048616085
0.00048612473
0.00048608717
0.00048604808
0.0004860078
0.00048596626
0.00048592377
0.00048588053
0.00048583657
0.00048579228
0.00048574768
0.00048570314
0.00048565868
0.00048561467
0.00048557109
0.00048552832
0.00048548633
0.00048544538
0.00048540558
0.00048536704
0.0004853299
0.00048529426
0.00048526025
0.00048522796
0.0004851975
0.00048516897
0.0004851425
0.00048511817
0.00048509613
0.00048507647
0.00048505931
0.00048504478
0.00048503299
0.00048502405
0.00048501808
0.00048501515
0.00048501536
0.00048501877
0.00048502542
0.00048503535
0.00048504855
0.00048506499
0.00048508462
0.00048510733
0.00048513302
0.00048516153
0.00048519266
0.00048522622
0.00048526196
0.00048529962
0.00048533891
0.00048537954
0.0004854212
0.00048546357
0.00048550632
0.00048554916
0.00048559175
0.00048562507
0.00048565739
0.00048569078
0.00048572509
0.00048576016
0.00048579582
0.00048583194
0.00048586838
0.00048590502
0.00048594173
0.00048597589
0.00048599968
0.0004860215
0.00048604141
0.00048605952
0.00048607593
0.00048609078
0.00048610422
0.00048611643
0.00048612759
0.00048613792
0.00048614766
0.00048615709
0.00048616651
0.00048617631
0.00048618693
0.00048619891
0.00048621288
0.00048622964
0.00048625002
0.0004862752
0.00048630617
0.00048634451
0.00048639111
0.00048644791
0.000486515
0.0004865945
0.00048668445
0.00048678655
0.00048689557
0.00048701068
0.00048671966
0.00048697937
0.0004865682
0.00048655864
0.00048655036
0.00048654031
0.00048653048
0.00048651944
0.00048650809
0.0004864957
0.00048648271
0.00048646867
0.00048645381
0.00048643781
0.00048642082
0.00048640255
0.00048638313
0.00048636228
0.00048634013
0.00048631641
0.00048629128
0.00048626449
0.0004862362
0.00048620621
0.00048617471
0.00048614154
0.00048610693
0.00048607077
0.00048603334
0.00048599456
0.00048595475
0.00048591388
0.00048587227
0.00048583008
0.00048578736
0.0004857445
0.00048570149
0.0004856587
0.00048561612
0.00048557411
0.00048553264
0.00048549206
0.00048545231
0.00048541365
0.00048537615
0.00048533993
0.0004853051
0.00048527175
0.00048524001
0.00048520996
0.00048518172
0.0004851554
0.0004851311
0.00048510896
0.0004850891
0.00048507163
0.00048505671
0.00048504444
0.00048503497
0.00048502841
0.00048502488
0.00048502448
0.0004850273
0.0004850334
0.00048504284
0.00048505563
0.00048507177
0.00048509124
0.00048511395
0.00048513982
0.0004851687
0.00048520044
0.00048523483
0.00048527167
0.00048531068
0.0004853516
0.00048539413
0.00048543795
0.00048548274
0.00048552818
0.00048557391
0.00048560384
0.00048563478
0.00048565839
0.0004856831
0.00048571107
0.00048574221
0.00048577639
0.00048581346
0.00048585323
0.00048589552
0.00048594013
0.00048598685
0.00048603291
0.00048607041
0.00048610762
0.00048613486
0.00048615321
0.00048616978
0.0004861847
0.00048619814
0.0004862103
0.00048622139
0.00048623164
0.00048624131
0.00048625069
0.00048626012
0.00048626998
0.00048628071
0.00048629286
0.00048630701
0.00048632392
0.00048634435
0.00048636933
0.00048639972
0.00048643685
0.00048648145
0.00048653502
0.00048659755
0.00048667051
0.00048675222
0.00048684343
0.00048693999
0.00048704024
0.00048673373
0.00048695693
0.00048654487
0.00048653504
0.00048652613
0.00048651566
0.00048650528
0.00048649375
0.00048648185
0.00048646894
0.00048645539
0.00048644079
0.00048642538
0.00048640881
0.00048639127
0.00048637245
0.00048635249
0.00048633114
0.00048630852
0.00048628438
0.00048625887
0.00048623177
0.00048620326
0.00048617313
0.0004861416
0.00048610851
0.00048607412
0.00048603831
0.00048600137
0.00048596324
0.00048592423
0.00048588432
0.00048584381
0.00048580287
0.00048576153
0.00048572017
0.00048567875
0.00048563765
0.00048559683
0.00048555663
0.000485517
0.00048547825
0.00048544034
0.00048540349
0.00048536775
0.00048533325
0.00048530007
0.00048526831
0.00048523809
0.00048520951
0.00048518267
0.0004851577
0.00048513472
0.00048511387
0.0004850953
0.00048507913
0.00048506552
0.00048505462
0.00048504656
0.00048504148
0.00048503952
0.00048504078
0.00048504536
0.00048505333
0.00048506475
0.00048507964
0.00048509799
0.00048511977
0.00048514491
0.00048517329
0.00048520477
0.00048523919
0.00048527633
0.00048531597
0.00048535782
0.00048540159
0.00048544698
0.00048549365
0.00048554126
0.00048557973
0.00048560819
0.00048562268
0.00048564022
0.00048566136
0.00048568607
0.00048571426
0.00048574581
0.00048578058
0.0004858184
0.00048585906
0.00048590235
0.00048594804
0.00048599588
0.00048604565
0.00048609711
0.00048615001
0.00048619452
0.00048623157
0.00048625684
0.00048627166
0.00048628494
0.00048629691
0.00048630779
0.00048631784
0.00048632735
0.0004863366
0.00048634596
0.00048635581
0.00048636659
0.00048637882
0.00048639307
0.00048641003
0.00048643038
0.00048645502
0.00048648469
0.00048652047
0.00048656293
0.00048661319
0.00048667115
0.00048673775
0.00048681152
0.00048689259
0.00048697771
0.00048706496
0.00048674534
0.00048694184
0.00048652908
0.00048651908
0.00048650968
0.00048649891
0.0004864881
0.00048647622
0.00048646392
0.00048645063
0.00048643669
0.00048642171
0.00048640591
0.00048638898
0.00048637107
0.00048635192
0.00048633165
0.00048631002
0.00048628716
0.00048626284
0.00048623721
0.00048621006
0.00048618158
0.00048615157
0.00048612027
0.00048608751
0.00048605356
0.00048601832
0.00048598207
0.00048594475
0.00048590668
0.00048586782
0.00048582847
0.00048578879
0.0004857488
0.00048570885
0.0004856689
0.00048562931
0.00048559
0.00048555131
0.00048551316
0.00048547586
0.00048543934
0.00048540381
0.00048536932
0.00048533597
0.00048530386
0.00048527308
0.00048524375
0.00048521598
0.00048518989
0.0004851656
0.00048514328
0.00048512305
0.00048510509
0.00048508956
0.00048507661
0.00048506642
0.00048505915
0.00048505495
0.00048505397
0.00048505632
0.00048506212
0.00048507146
0.00048508438
0.00048510092
0.00048512106
0.00048514478
0.00048517199
0.00048520258
0.00048523641
0.00048527327
0.00048531296
0.00048535523
0.00048539977
0.0004854463
0.00048549447
0.00048554394
0.00048557911
0.00048559656
0.00048560583
0.00048561895
0.00048563597
0.00048565684
0.00048568151
0.00048570989
0.00048574185
0.00048577723
0.00048581582
0.00048585741
0.00048590175
0.0004859486
0.00048599768
0.00048604872
0.00048610146
0.00048615563
0.00048621099
0.00048626732
0.00048631314
0.00048634958
0.00048636591
0.00048637758
0.00048638814
0.00048639786
0.00048640705
0.00048641601
0.00048642511
0.00048643473
0.0004864453
0.00048645732
0.00048647134
0.00048648796
0.00048650783
0.0004865317
0.00048656023
0.00048659428
0.0004866343
0.00048668114
0.00048673465
0.00048679538
0.00048686205
0.00048693438
0.00048700976
0.0004870861
0.0004867553
0.00048693055
0.00048651723
0.00048650712
0.00048649731
0.00048648632
0.00048647518
0.00048646304
0.00048645045
0.00048643688
0.00048642266
0.00048640741
0.00048639135
0.00048637417
0.00048635604
0.00048633669
0.00048631626
0.0004862945
0.00048627156
0.00048624721
0.00048622162
0.00048619458
0.00048616628
0.00048613654
0.00048610559
0.00048607329
0.00048603989
0.0004860053
0.00048596981
0.00048593334
0.00048589622
0.00048585839
0.00048582014
0.00048578162
0.00048574284
0.00048570413
0.00048566543
0.00048562708
0.000485589
0.0004855515
0.00048551448
0.00048547824
0.00048544269
0.00048540804
0.00048537433
0.00048534167
0.00048531014
0.00048527984
0.00048525091
0.00048522344
0.00048519759
0.0004851735
0.00048515133
0.00048513125
0.00048511344
0.00048509808
0.00048508535
0.00048507546
0.00048506857
0.00048506485
0.00048506449
0.0004850676
0.00048507431
0.00048508472
0.00048509889
0.00048511685
0.0004851386
0.0004851641
0.00048519326
0.00048522596
0.00048526205
0.00048530133
0.00048534355
0.00048538847
0.00048543576
0.00048548509
0.00048553613
0.00048557312
0.00048558346
0.00048558758
0.00048559575
0.00048560806
0.00048562452
0.0004856451
0.00048566976
0.00048569837
0.00048573079
0.00048576684
0.00048580631
0.00048584893
0.00048589444
0.00048594256
0.00048599298
0.00048604541
0.00048609956
0.00048615513
0.00048621186
0.00048626947
0.00048632777
0.00048638651
0.00048642601
0.00048645329
0.00048646347
0.0004864728
0.00048648161
0.00048649021
0.00048649897
0.00048650829
0.00048651856
0.00048653028
0.00048654394
0.00048656011
0.00048657934
0.0004866023
0.00048662952
0.0004866617
0.00048669919
0.00048674257
0.00048679165
0.0004868467
0.0004869066
0.00048697086
0.00048703735
0.0004871041
0.00048676373
0.00048692115
0.00048650739
0.0004864972
0.00048648706
0.00048647591
0.00048646451
0.00048645217
0.00048643934
0.00048642557
0.00048641114
0.00048639571
0.00048637947
0.00048636214
0.00048634387
0.00048632442
0.00048630391
0.00048628213
0.0004862592
0.00048623493
0.00048620946
0.00048618261
0.00048615458
0.00048612518
0.00048609465
0.00048606285
0.00048603004
0.00048599611
0.00048596136
0.00048592571
0.00048588946
0.00048585257
0.0004858153
0.00048577779
0.00048574004
0.00048570236
0.00048566467
0.0004856273
0.00048559015
0.00048555351
0.00048551729
0.00048548175
0.00048544681
0.00048541267
0.00048537936
0.00048534699
0.00048531565
0.00048528544
0.00048525651
0.00048522898
0.000485203
0.00048517873
0.00048515636
0.00048513608
0.00048511809
0.00048510258
0.00048508978
0.0004850799
0.00048507313
0.00048506966
0.00048506969
0.00048507336
0.00048508081
0.00048509215
0.00048510744
0.00048512674
0.00048515001
0.00048517725
0.00048520835
0.00048524319
0.00048528159
0.00048532335
0.0004853682
0.00048541587
0.00048546603
0.00048551833
0.00048556264
0.00048557089
0.00048556936
0.00048557207
0.00048557913
0.0004855906
0.00048560652
0.00048562685
0.00048565154
0.00048568044
0.00048571342
0.00048575025
0.0004857907
0.00048583449
0.00048588131
0.00048593085
0.00048598278
0.00048603676
0.00048609247
0.00048614958
0.0004862078
0.00048626684
0.00048632646
0.0004863864
0.00048644648
0.00048649825
0.00048653332
0.00048654352
0.0004865518
0.00048655988
0.00048656812
0.00048657691
0.00048658666
0.00048659781
0.00048661084
0.00048662626
0.00048664455
0.0004866663
0.00048669195