/*--------------------------------*- C++ -*----------------------------------*\
| =========                 |                                                 |
| \\      /  F ield         | foam-extend: Open Source CFD                    |
|  \\    /   O peration     | Version:     4.1                                |
|   \\  /    A nd           | Web:         http://www.foam-extend.org         |
|    \\/     M anipulation  |                                                 |
\*---------------------------------------------------------------------------*/
FoamFile
{
    version     2.0;
    format      ascii;
    class       surfaceScalarField;
    location    "0.5";
    object      phi;
}
// * * * * * * * * * * * * * * * * * * * * * * * * * * * * * * * * * * * * * //

dimensions      [0 3 -1 0 0 0 0];

internalField   nonuniform List<scalar> 
6703
(
0.00040392835
0.011988178
-0.012392107
-0.0019163068
0.022951848
-0.020631613
-0.005322598
0.02902931
-0.025623019
-0.0092561629
0.034665125
-0.03073156
-0.01374066
0.041107758
-0.036623261
-0.018822258
0.048648446
-0.043566848
-0.024550346
0.057472019
-0.051743932
-0.030979023
0.067783071
-0.061354394
-0.038181308
0.079811118
-0.072608834
-0.046254868
0.093822412
-0.085748852
-0.055328648
0.1101283
-0.10105452
-0.065566829
0.12909894
-0.11886076
-0.077169652
0.15118868
-0.13958586
-0.090400266
0.17699632
-0.1637657
-0.10560983
0.20737176
-0.1921622
0.24353406
-0.22603274
-0.12311115
-0.0001314889
0.012119667
-0.0015379097
0.024358269
-0.0037901504
0.031281551
-0.006519484
0.037394459
-0.0097482431
0.044336517
-0.013563538
0.052463741
-0.018066298
0.06197478
-0.023368643
0.073085416
-0.029599884
0.08604236
-0.036913275
0.1011358
-0.04549837
0.11871339
-0.055599876
0.13920045
-0.067541598
0.1631304
-0.081739994
0.19119471
-0.098685031
0.2243168
0.26356475
-0.11871572
0.00061800848
0.011501659
0.00066811786
0.024308159
-0.00015325215
0.032102921
-0.0014706751
0.038711882
-0.0031380746
0.046003916
-0.0051785493
0.054504216
-0.0076685665
0.064464797
-0.010707982
0.076124831
-0.014420507
0.089754884
-0.018957401
0.1056727
-0.024479692
0.12423568
-0.031202463
0.14592322
-0.039404514
0.17133246
-0.049437825
0.20122802
-0.061727748
0.23660672
0.27860997
-0.076772963
0.0016471332
0.0098545256
0.0033419569
0.022613336
0.0041905874
0.03125429
0.0044075788
0.038494891
0.0043239048
0.04608759
0.0040625307
0.05476559
0.0036223189
0.064905008
0.0029455251
0.076801625
0.0019393335
0.090761076
0.00048147896
0.10713055
-0.0015903467
0.12630751
-0.0044907002
0.14882357
-0.0084504235
0.17529218
-0.013722565
0.20650016
-0.020567305
0.24345146
0.28712118
-0.029078515
0.0031674541
0.0066870715
0.007347806
0.018432984
0.01081022
0.027791876
0.013374025
0.035931086
0.015375843
0.044085773
0.017111592
0.053029841
0.018746005
0.063270595
0.020337736
0.075209895
0.02186999
0.089228822
0.023270808
0.10572973
0.024428712
0.12514961
0.025208998
0.14804329
0.025430156
0.17507102
0.02487543
0.20705489
0.023275829
0.24505107
0.29018284
0.020214169
0.006079327
0.0006077445
0.013246722
0.011265589
0.020259469
0.020779128
0.026454767
0.029735789
0.031756761
0.038783778
0.036369139
0.048417463
0.040538536
0.059101199
0.044482029
0.071266402
0.048355016
0.085355835
0.052242126
0.10184262
0.056153524
0.12123821
0.060053907
0.1441429
0.063864201
0.17126073
0.067471256
0.20344784
0.070736951
0.24178537
0.28737265
0.073547137
0.0042739332
-0.0036661887
0.016004958
-0.00046543603
0.028418567
0.0083655191
0.039643274
0.018511082
0.049789582
0.028637469
0.058879793
0.039327252
0.066967564
0.051013429
0.074231392
0.064002573
0.080911468
0.078675759
0.087275702
0.095478388
0.093575644
0.11493827
0.10002885
0.1376897
0.10679469
0.16449489
0.1139641
0.19627842
0.12155286
0.23419661
0.27951448
0.12941104
-2.4152104e-06
-0.0036637735
0.0068617605
-0.0073296118
0.019762534
-0.0045352544
0.036592368
0.0016812488
0.053525906
0.011703931
0.069047659
0.023805499
0.083405095
0.036655993
0.09663728
0.050770388
0.10874204
0.066570999
0.11987614
0.084344291
0.1303319
0.10448251
0.14052229
0.1274993
0.1509116
0.15410558
0.16194124
0.18524878
0.1739762
0.22216166
0.26627373
0.18721694
-0.00061615826
-0.0030476153
-0.0011454746
-0.0068002954
0.0033197258
-0.0090004548
0.014115944
-0.0091149693
0.031195602
-0.0053757271
0.052938196
0.0020629045
0.075364238
0.01422995
0.096462594
0.029672032
0.11647662
0.046556969
0.13537557
0.065445343
0.15325979
0.086598286
0.17046481
0.11029429
0.18746838
0.13710201
0.20484028
0.16787688
0.22323848
0.20376345
0.24624155
0.24327066
4.4293222e-05
-0.0030919085
-0.00044566112
-0.0063103411
-0.0011542734
-0.0082918425
-1.2384454e-05
-0.010256858
0.0068105829
-0.012198694
0.021089374
-0.012215886
0.0430315
-0.0077121761
0.07123047
0.0014730622
0.097685739
0.020101699
0.12331101
0.039820073
0.14947564
0.060433653
0.17611996
0.083649974
0.20320118
0.11002078
0.23078088
0.14029718
0.25951273
0.17503161
0.21500126
0.29075302
-0.00048006134
-0.0026118471
-0.0016538033
-0.0051365991
-0.0034282517
-0.0065173941
-0.0052981058
-0.0083870041
-0.0074910584
-0.010005742
-0.0077221265
-0.011984818
-0.0012391209
-0.014195182
0.015526469
-0.015292528
0.043082604
-0.0074544355
0.079376439
0.0035262379
0.11310484
0.026705256
0.15136472
0.045390089
0.18932248
0.072063028
0.22796546
0.1016542
0.26837456
0.1346225
0.17106834
0.31230748
-0.0019495606
-0.0006622865
-0.0037843129
-0.0033018468
-0.0089284323
-0.0013732746
-0.014540689
-0.0027747475
-0.020307926
-0.0042385045
-0.026234886
-0.0060578585
-0.032265357
-0.0081647104
-0.037058488
-0.010499397
-0.031557234
-0.012955689
-0.012669643
-0.015361353
0.028629482
-0.014593869
0.086041774
-0.012022203
0.12874585
0.029358948
0.16598651
0.064413547
0.20367484
0.096934171
0.1328913
0.24185187
-0.0018418257
-0.012653669
0.014495495
-0.004237772
-0.021204982
0.023600929
-0.0072536296
-0.026075752
0.02909161
-0.011003633
-0.03100831
0.034758314
-0.015506423
-0.036731507
0.041234297
-0.020877305
-0.043428902
0.048799784
-0.027252888
-0.051245122
0.057620704
-0.034783354
-0.060335206
0.067865673
-0.043624424
-0.070869887
0.079710957
-0.053924413
-0.083037829
0.093337818
-0.065821778
-0.097049043
0.10894641
-0.079441174
-0.11314179
0.12676119
-0.09489915
-0.13159477
0.14705275
-0.11236279
-0.15272337
0.170187
-0.13218572
-0.17687589
0.19669882
-0.20452613
0.22776821
-0.1554278
-0.0017925936
-0.010861075
-0.0050901966
-0.017907379
-0.0092426747
-0.021923274
-0.014231136
-0.026019849
-0.020182407
-0.030780236
-0.027258103
-0.036353207
-0.035646429
-0.042856795
-0.045563175
-0.050418461
-0.057255437
-0.059177625
-0.071006208
-0.069287058
-0.087139215
-0.080916035
-0.10602453
-0.094256474
-0.12808643
-0.10953288
-0.15380245
-0.12700734
-0.18363961
-0.14703872
-0.17012155
-0.21804419
-0.0021771334
-0.008683942
-0.0058838057
-0.014200707
-0.010478822
-0.017328258
-0.015973657
-0.020525015
-0.022512549
-0.024241344
-0.030275824
-0.028589931
-0.039472084
-0.033660536
-0.050340305
-0.03955024
-0.063152844
-0.046365086
-0.078219147
-0.054220755
-0.095890901
-0.063244282
-0.11656975
-0.07357762
-0.14071782
-0.085384809
-0.16886949
-0.09885568
-0.20168466
-0.11422355
-0.13169061
-0.24011561
-0.002429562
-0.00625438
-0.0063928928
-0.010237376
-0.011286376
-0.012434775
-0.017150419
-0.014660971
-0.024140938
-0.017250826
-0.032448559
-0.020282309
-0.042292759
-0.023816336
-0.053923252
-0.027919748
-0.067621939
-0.032666399
-0.083705174
-0.038137521
-0.10252689
-0.044422569
-0.1244842
-0.05162031
-0.15003008
-0.059838929
-0.17968926
-0.069196495
-0.21399826
-0.079914551
-0.092466045
-0.25322283
-0.0028010688
-0.0034533112
-0.0070262832
-0.0060121619
-0.012189388
-0.0072716694
-0.018370545
-0.0084798145
-0.025735703
-0.0098856675
-0.034485169
-0.011532844
-0.044850688
-0.013450817
-0.057096797
-0.015673639
-0.071523206
-0.01823999
-0.088468348
-0.021192379
-0.10831473
-0.024576189
-0.13149541
-0.028439624
-0.15849786
-0.032836484
-0.18988618
-0.037808179
-0.22651338
-0.043287347
-0.048851875
-0.27012755
0.00037507337
0.014052387
-0.01442746
-9.2503435e-05
0.028238897
-0.02777132
-0.0014814663
0.03659305
-0.035204087
-0.003369252
0.043858071
-0.041970285
-0.0056787792
0.052056793
-0.049747265
-0.0084579717
0.061631971
-0.058852779
-0.011789043
0.072824961
-0.06949389
-0.015783168
0.08588821
-0.081894085
-0.020574592
0.10109586
-0.096304432
-0.02632283
0.11875615
-0.11300791
-0.033217268
0.13922561
-0.13233117
-0.0414853
0.16293143
-0.15466339
-0.051404958
0.19041012
-0.18049046
-0.063315725
0.22236228
-0.21045151
-0.077599982
0.25966267
-0.24537841
0.30322058
-0.28628418
-0.09453638
-0.0028238869
-0.00062942437
-0.0077914505
-0.0010445982
-0.013766956
-0.001296164
-0.020687442
-0.0015593282
-0.028712939
-0.0018601705
-0.038038916
-0.0022068671
-0.048884005
-0.0026057278
-0.061495505
-0.0030621387
-0.076155107
-0.0035803881
-0.093184372
-0.0041631134
-0.11295013
-0.0048104342
-0.13587109
-0.0055186631
-0.16242874
-0.0062788317
-0.193163
-0.007073922
-0.22856552
-0.0078848224
-0.0087090074
-0.26870839
-0.0026682524
0.002038828
-0.0074685632
0.0037557125
-0.013296551
0.0045318239
-0.020094433
0.0052385542
-0.028022939
0.0060683347
-0.03727992
0.0070501147
-0.04808785
0.008202202
-0.060698398
0.009548409
-0.075397201
0.011118415
-0.092508154
0.01294784
-0.11239722
0.015078628
-0.13547656
0.017560684
-0.1622086
0.020453203
-0.19310336
0.023820836
-0.22861828
0.027630105
0.031646764
-0.26897405
-0.0027135166
0.0047523446
-0.0068447512
0.0078869471
-0.011916878
0.0096039512
-0.018013366
0.011335042
-0.025299382
0.013354351
-0.033975204
0.015725937
-0.044272971
0.018499969
-0.056457234
0.021732672
-0.070826421
0.025487602
-0.087715167
0.029836586
-0.1074978
0.034861256
-0.13059204
0.040654933
-0.15746379
0.04732495
-0.18864393
0.05500097
-0.22488808
0.063874259
0.074287314
-0.26752863
-0.0023521216
0.0071044662
-0.0062233566
0.011758182
-0.011018676
0.01439927
-0.016771319
0.017087685
-0.023631459
0.02021449
-0.031783814
0.023878292
-0.04144099
0.028157145
-0.052844399
0.033136081
-0.066265995
0.038909198
-0.082010697
0.045581287
-0.10042058
0.053271136
-0.12188356
0.062117916
-0.14685189
0.072293277
-0.17586979
0.084018879
-0.20953427
0.09753873
0.11299526
-0.24824221
-0.0020785161
0.0091829823
-0.0056657061
0.015345372
-0.010125257
0.018858821
-0.015458731
0.02242116
-0.021802876
0.026558635
-0.029330323
0.031405739
-0.038240949
0.03706777
-0.048764071
0.043659204
-0.06116222
0.051307346
-0.075736698
0.060155766
-0.092836487
0.070370924
-0.11287231
0.08215374
-0.1363347
0.095755668
-0.16382869
0.11151287
-0.196185
0.12989504
0.15191269
-0.23510244
-0.0016811961
0.010864178
-0.0048418821
0.018506058
-0.0088345623
0.022851501
-0.013627874
0.027214472
-0.019342086
0.032272846
-0.026133077
0.03819673
-0.034183584
0.045118277
-0.043705184
0.053180803
-0.054943875
0.062546038
-0.068187639
0.07339953
-0.083776348
0.085959633
-0.10211562
0.10049301
-0.12370033
0.11734038
-0.14913867
0.13695121
-0.1790626
0.15981897
0.18632339
-0.2134733
-0.0016822145
0.012546393
-0.0039646875
0.020788531
-0.0068169313
0.025703745
-0.010355662
0.030753203
-0.014610591
0.036527776
-0.019693144
0.043279282
-0.025737234
0.051162367
-0.032897167
0.060340737
-0.041327238
0.07097611
-0.051180426
0.083252718
-0.062605157
0.097384364
-0.075741365
0.11362922
-0.090718025
0.13231704
-0.10766714
0.15390033
-0.12685527
0.1790071
0.20846706
-0.14899893
0.00056141298
0.00076968392
-0.0013310969
0.0039237672
0.0042535068
-0.007615861
0.00805939
0.0081008484
-0.012236471
0.012335669
0.011389054
-0.015665333
0.0167543
0.013874519
-0.01829315
0.02149812
0.01551894
-0.02026276
0.032176527
0.010692416
-0.021370822
0.051923424
0.0014182381
-0.021165135
0.084275783
-0.014470277
-0.017882082
0.13065297
-0.036753353
-0.009623833
0.16053247
-0.064880255
0.035000752
0.1858466
-0.097894299
0.072580173
0.20803354
-0.13473913
0.1125522
0.2265878
-0.17536465
0.15681038
0.24163877
-0.22004951
0.20499854
-0.26863104
0.2561851
0.25408471
-0.0013198729
0.0020895569
-0.0022181195
0.0051517533
-0.0024325019
0.0083152309
-0.0021430798
0.011099632
0.0048815749
0.0068498643
0.020652643
-0.00025212874
0.045159937
-0.013814878
0.078062423
-0.031484248
0.11426413
-0.050671987
0.14978729
-0.072276512
0.18205299
-0.097145953
0.2100285
-0.12586981
0.23403606
-0.1587467
0.25478058
-0.19610916
0.27320225
-0.23847119
-0.2864899
0.29106112
-0.0016884287
0.0037779856
-0.0035206053
0.0069839299
-9.1903026e-05
0.0048865287
0.010873199
0.00013452995
0.029754761
-0.012031698
0.055631446
-0.026128814
0.082261456
-0.040444888
0.10707055
-0.056293343
0.13051313
-0.074114567
0.15255138
-0.094314756
0.17277799
-0.11737257
0.19082886
-0.14392068
0.2067416
-0.17465943
0.22097847
-0.21034603
0.23430817
-0.25180088
-0.29993092
0.24774918
-0.00059495049
0.0043729361
0.0050447507
0.0013442288
0.01809097
-0.0081596907
0.037954439
-0.019728939
0.05701144
-0.031088699
0.074117577
-0.043234951
0.09023074
-0.05655805
0.10532265
-0.071385255
0.11930595
-0.088097864
0.13218067
-0.10718947
0.14404598
-0.12923788
0.15503905
-0.15491376
0.16535195
-0.18497233
0.17525526
-0.22024934
0.18508142
-0.26162704
-0.3100437
0.1951942
0.0041612574
0.00021167877
0.016359846
-0.01085436
0.03000368
-0.021803525
0.042449352
-0.032174611
0.054050271
-0.042689617
0.064679332
-0.053864012
0.074290201
-0.066168919
0.082984716
-0.08007977
0.090971813
-0.09608496
0.098484634
-0.11470229
0.10573675
-0.13648999
0.11288237
-0.16205938
0.12000363
-0.19209359
0.12713217
-0.22737788
0.13426954
-0.26876442
-0.31717991
0.14140576
0.0067581077
-0.0065464289
0.015371624
-0.019467876
0.023757094
-0.030188994
0.031303852
-0.039721369
0.037869296
-0.049255061
0.043602745
-0.059597461
0.04876149
-0.071327665
0.053599861
-0.084918141
0.058318253
-0.10080335
0.06303891
-0.11942295
0.067799992
-0.14125107
0.072563604
-0.16682299
0.077236703
-0.19676669
0.081702873
-0.23184405
0.085841092
-0.27290264
-0.32079216
0.089453335
0.0040569245
-0.010603353
0.0093732264
-0.024784178
0.014055546
-0.034871314
0.01774759
-0.043413413
0.02074006
-0.052247531
0.023367208
-0.062224609
0.025859578
-0.073820035
0.028337049
-0.087395612
0.030827071
-0.10329337
0.033287719
-0.1218836
0.035623176
-0.14358653
0.037694968
-0.16889479
0.039333075
-0.1984048
0.04034827
-0.23285925
0.040557649
-0.27311201
-0.32008027
0.039845761
0.0022929533
-0.012896307
0.0049432549
-0.02743448
0.0067503697
-0.036678428
0.0078148082
-0.044477852
0.0085169001
-0.052949623
0.0090590425
-0.062766752
0.0095052903
-0.074266283
0.0098367975
-0.087727119
0.0099813519
-0.10343793
0.0098311621
-0.12173341
0.009245641
-0.14300101
0.0080525991
-0.16770174
0.0060530052
-0.1964052
0.003029609
-0.22983585
-0.001250666
-0.26883174
-0.31404512
-0.0072858099
0.0011560799
0.0019604969
0.0018751183
0.0012553373
0.00036250719
-0.00077227327
-0.0022135947
-0.0040525038
-0.0063945763
-0.0093718334
-0.01314723
-0.017917547
-0.023912629
-0.031386204
-0.040555272
-0.051379816
-0.00037266381
-0.014054796
-0.0021089793
-0.026035004
-0.0046870006
-0.032626066
-0.0077585007
-0.038898785
-0.011402301
-0.046103465
-0.015722408
-0.054532672
-0.020834396
-0.064381902
-0.026864029
-0.075864452
-0.033951474
-0.089216987
-0.042258332
-0.10470106
-0.051978644
-0.12261086
-0.063359254
-0.14328278
-0.076724884
-0.16712483
-0.0924939
-0.19468249
-0.11111877
-0.22675354
-0.26443569
-0.13296726
0.00025896496
-0.014313761
-0.0023540465
-0.023421993
-0.0059912416
-0.028988871
-0.010179118
-0.034710909
-0.014976149
-0.041306434
-0.020438161
-0.04907066
-0.026620787
-0.058199276
-0.033584415
-0.068900824
-0.041399426
-0.081401975
-0.05015551
-0.095944974
-0.059968542
-0.11279783
-0.070989962
-0.13226136
-0.083420017
-0.15469478
-0.097529143
-0.18057337
-0.1136431
-0.21063958
-0.24643694
-0.13164186
-0.0015523259
0.00090793292
0.00064439294
-0.0060985904
0.0013250816
0.003221183
-0.008290504
0.00091788456
0.001274029
-0.011202686
0.00027440515
0.0026377774
-0.014083154
-0.0011018539
0.0039823213
-0.017154053
-0.0025827266
0.0056536259
-0.020573864
-0.0041056416
0.0075254528
-0.024358919
-0.0057436529
0.0095287074
-0.028338348
-0.0075873722
0.011566801
-0.032053601
-0.0097411604
0.013456414
-0.034377827
-0.012537374
0.0148616
-0.038502515
-0.015801567
0.019926255
-0.01278166
-0.01887534
-0.006845515
0.036985106
-0.0089150082
-0.040851758
0.097718269
0.0085670379
-0.069300201
0.03801568
-0.097371357
0.15707395
-0.00044683256
0.0013547655
-0.0015557932
0.0024340423
-0.0031998313
0.0025619227
-0.0051315091
0.002206083
-0.0076013035
0.0013679407
-0.010582559
0.0003985293
-0.014042588
-0.00064561263
-0.017969437
-0.0018168037
-0.022256641
-0.0033001683
-0.026750635
-0.0052471659
-0.031482914
-0.0078050958
-0.036251218
-0.011033262
-0.040350591
-0.014775968
-0.030650163
-0.018615436
0.0013178837
-0.023401009
-0.021305344
0.060638908
-0.00038849168
0.0017432572
-0.0010748793
0.0031204299
-0.0020473663
0.0035344098
-0.0034060493
0.0035647661
-0.0054307778
0.0033926692
-0.0081410671
0.0031088188
-0.011501802
0.0027151224
-0.015354143
0.0020355375
-0.019535143
0.00088083197
-0.02381345
-0.00096885896
-0.027791648
-0.0038268982
-0.03074161
-0.0080832991
-0.031279431
-0.014238146
-0.026726065
-0.023168802
-0.014986259
-0.035140815
-0.051154207
0.014862604
-0.00071045239
0.0024537096
-0.0020387284
0.004448706
-0.0038300749
0.0053257564
-0.0061246069
0.0058592982
-0.0089483811
0.0062164435
-0.012313417
0.0064738543
-0.016162368
0.0065640745
-0.020407936
0.0062811048
-0.02497052
0.0054434163
-0.029732704
0.0037933257
-0.034314649
0.00075504637
-0.038079015
-0.0043189328
-0.039971252
-0.012345909
-0.038559113
-0.02458094
-0.031276242
-0.042423686
-0.068229772
-0.014200676
-0.0012982627
0.0037519723
-0.0035235212
0.0066739645
-0.006193485
0.0079957202
-0.0093028267
0.00896864
-0.01298682
0.0099004373
-0.017268792
0.010755826
-0.022059745
0.011355027
-0.027372308
0.011593669
-0.033123639
0.011194748
-0.039072901
0.0097425872
-0.044985461
0.0066676069
-0.050434231
0.0011298372
-0.054591742
-0.0081883984
-0.056373794
-0.022798888
-0.054503344
-0.044294136
-0.074161336
-0.048571781
-0.0017162559
0.0054682282
-0.0044715333
0.009429242
-0.0077199654
0.011244152
-0.011467004
0.012715679
-0.015780361
0.014213794
-0.020728227
0.015703693
-0.026409904
0.017036704
-0.032798445
0.01798221
-0.039759447
0.018155749
-0.047050266
0.017033407
-0.054371237
0.013988578
-0.061148034
0.0079066347
-0.06665257
-0.002683863
-0.069861363
-0.019590094
-0.070178683
-0.043976815
-0.075957618
-0.068382401
-0.0017274624
0.0071956907
-0.0045371517
0.012238931
-0.0079439626
0.014650963
-0.011936425
0.016708141
-0.016558837
0.018836206
-0.021843862
0.020988718
-0.027814829
0.023007671
-0.034474736
0.024642118
-0.041802434
0.025483446
-0.049647257
0.02487823
-0.057420997
0.021762319
-0.06415218
0.014637818
-0.068558819
0.0017227763
-0.069186727
-0.018962186
-0.06552087
-0.047642671
-0.082584452
-0.058894036
-0.0011480558
0.0083437466
-0.0034795328
0.014570408
-0.0064461622
0.017617593
-0.0099632571
0.020225236
-0.014075511
0.02294846
-0.018839473
0.025752679
-0.024286293
0.028454491
-0.030374612
0.030730437
-0.036935889
0.032044724
-0.043672096
0.031614437
-0.050068538
0.028158761
-0.055379437
0.019948717
-0.056379987
0.0027233264
-0.050231401
-0.025110773
-0.036817738
-0.061056334
-0.10260352
-0.016798667
0.00019763738
0.0081461092
-0.00052409431
0.01529214
-0.0019915488
0.019085047
-0.0039512356
0.022184923
-0.0063561517
0.025353376
-0.0092136578
0.028610185
-0.012517089
0.031757923
-0.016232912
0.034446261
-0.020223638
0.03603545
-0.024144183
0.035534982
-0.027347594
0.031362172
-0.033086287
0.02568741
-0.025046542
-0.005316419
-0.0068843106
-0.043273004
0.018891496
-0.086832141
-0.13311944
0.049407416
0.0014252825
0.0067208267
0.0026301609
0.014087262
0.0031793145
0.018535894
0.0033803966
0.021983841
0.0034713779
0.025262395
0.0035491986
0.028532365
0.0036282861
0.031678835
0.0037259612
0.034348586
0.0038995918
0.035861819
0.0042497679
0.035184806
0.0041665315
0.031445408
0.018244736
0.011609206
0.041408293
-0.028479975
0.070439508
-0.072304219
0.10324441
-0.11963704
-0.16779364
0.1379186
0.0025888162
0.0041320106
0.0057618237
0.010914254
0.0085020854
0.015795632
0.01100768
0.019478247
0.013614383
0.022655692
0.016612993
0.025533754
0.02027804
0.028013788
0.024894366
0.029732261
0.030747726
0.030008459
0.038187181
0.027745352
0.056460633
0.013171956
0.08678907
-0.01871923
0.11861307
-0.060303972
0.15401795
-0.1077091
0.19243093
-0.15805003
-0.20963609
0.23427339
0.0027546746
0.001377336
0.005872173
0.0077967557
0.00918603
0.012481775
0.012664949
0.015999328
0.01656174
0.018758901
0.021167752
0.020927742
0.026803679
0.022377861
0.033820646
0.022715293
0.042750576
0.02107853
0.052587382
0.017908546
0.086743288
-0.02098395
0.12514194
-0.05711788
0.16042446
-0.095586491
0.19060505
-0.1378897
0.21634415
-0.18378912
-0.23272899
0.23943705
0.0003112044
-0.00015428614
0.00039193077
0.000413573
0.00031808748
3.0521888e-05
-0.00055104258
-0.0015646996
-0.0031974235
-0.0056935577
-0.0093637131
-0.014595254
-0.021864076
-0.031729455
-0.044884557
-0.06245024
0.00036066927
-0.00018173348
0.00046340865
0.00051081411
0.00043867736
0.00016780163
-0.00041077063
-0.0014459215
-0.0031369395
-0.0057440951
-0.0095955181
-0.015095697
-0.022737726
-0.03312409
-0.04706485
-0.065733577
0.00022713382
-4.6239053e-05
0.0004724378
0.00080643341
0.001272184
0.0019371661
0.0029442048
0.0044943631
0.0076908106
0.015975524
0.029992325
0.045454619
0.062420324
0.081341011
0.10255043
0.12600653
-9.855734e-05
1.7893554e-05
-0.00019780293
-0.000334773
-0.00059095613
-0.0009951887
-0.0016344464
-0.0026051361
-0.003994024
-0.005898963
-0.0056312313
0.0022728201
0.024786253
0.048348042
0.075982013
0.11150196
0.16105722
-0.49581272
0.33475549
1.3202293
-1.3625646
0.042335371
0.17417753
-0.48447374
0.3102962
1.3202293
-0.39863034
0.0056302886
0.39300005
-1.1531483
0.68666035
0.46648796
-0.18475041
0.67077454
-0.48602412
1.1644279
0.44058092
-1.6050088
1.213725
0.30018528
-1.5139103
0.18131332
-0.24376356
-0.29525417
0.22952059
0.50835745
1.0909277
-1.5992852
-0.53206731
-0.58231291
1.1143802
-1.2440408
0.49337991
0.75066087
-0.23537259
0.58996093
-0.35458833
0.58115125
-0.015567973
-0.56558328
1.125882
-1.1529093
0.027027269
-0.022872758
0.35076986
-0.3278971
0.03736338
-0.21514913
0.17778575
0.95984771
-0.33713078
-0.62271693
-0.16770813
-0.23092221
-1.1481856
0.61611825
-1.4225244
1.4086141
0.013910298
0.10943613
1.2782646
-1.3877007
0.018792789
-0.85969889
0.8409061
0.74610897
0.11123142
-0.85734039
-0.65138701
-0.96373473
1.6151217
0.94812478
-0.27907292
-0.66905186
0.23896414
0.98960927
-1.2285734
-0.37806974
0.83079479
-0.45272505
0.9714991
-0.22539013
0.30600656
-0.22481766
-0.081188904
-0.021855232
1.287279
-1.2654237
1.0671837
-0.047245881
-1.0199379
0.17316852
-0.92955329
0.75638477
1.3839375
-1.1565418
-0.22739568
0.98117392
-1.2003141
0.21914018
-0.71138466
0.88455318
0.85373472
-0.50884076
-0.34489396
-1.2936429
0.22840594
1.065237
0.20680586
-0.41733036
0.2105245
1.0952707
-0.62828356
-0.46698712
1.1644279
-0.37523906
0.86765905
-0.49241998
1.213725
-0.13721709
0.55362597
-0.41640888
-0.32561696
1.0704755
-0.74485849
-1.4741905
0.63532883
0.83886171
-1.1644279
1.7485836
-0.58415568
-1.213725
1.7701382
-0.55641315
0.54714705
-0.22752402
-0.31962303
-0.57703514
0.2446783
0.33235683
0.20437413
-0.38785623
0.18348209
0.13851914
0.18645176
-0.3249709
-0.58969482
0.88848559
-0.29879077
0.16100069
0.8996703
-1.060671
0.13091772
-0.27672261
0.14580489
-0.81605485
0.52732181
0.28873304
-1.5774756
0.16848706
1.4089885
1.3988484
-0.51709708
-0.88175137
1.2646903
0.13415812
0.8320344
0.61258087
-1.4446153
0.78555457
0.65103968
-1.4365943
-0.3583168
0.76654265
-0.40822586
0.095918655
-0.65565703
0.55973837
-0.98249731
1.0440337
-0.061536349
0.6480916
-1.2987004
0.65060877
0.79541274
0.20210399
-0.99751673
-0.18674727
0.9588541
-0.77210682
-1.4670129
1.1413959
-0.47334433
0.76002479
-0.28668047
0.27486909
0.30628217
-0.342601
0.5815669
-0.2389659
0.79148802
0.99228061
-1.7837686
1.422492
-1.3084373
-0.1140547
0.077475583
-0.41360268
0.7468687
-0.33326602
0.80639135
-0.20353126
-0.60286009
1.5793344
-1.4371707
-0.14216366
1.1548944
-1.0370567
-0.11783765
0.63800827
-0.71531481
0.077306537
-0.30689253
0.024638239
0.2822543
0.14558061
-0.52365035
-1.9189076
1.3555034
0.56340411
0.36759434
0.75828768
0.41427833
-1.4335411
1.0192627
-0.69394341
1.148552
-0.45460863
-0.1636594
-0.99811553
1.1617749
0.47603796
-0.34092068
-0.13511729
0.084014573
1.3384775
0.92656702
0.015253543
-0.94182056
-1.3289352
0.55649613
0.77243909
0.093575435
0.53917028
-0.63274571
0.47429921
0.37943551
0.6555123
0.36290459
-1.0184169
0.69517308
-0.27831194
-0.41686114
-0.79510646
-0.79364329
0.46192853
-0.287751
-0.1190307
-0.30067234
0.41970304
-0.42759709
0.83864519
-0.41104811
-0.47247353
1.2639615
-0.89140266
1.1976316
-0.30622895
-0.99014115
-0.33879406
-0.11622554
1.0973995
1.293682
-1.2228325
-0.070849444
-0.77143593
-0.47260484
-1.7231151
1.1565202
0.56659491
-1.89301
1.3717222
0.52128781
0.85376646
-0.36449176
-0.4892747
0.18677148
-0.56201054
0.1836947
-0.77338952
0.0083110824
0.62414967
-0.63246075
0.44452289
-0.63127017
-0.44358427
0.65039013
0.27375198
0.68609573
1.0666553
0.51267905
0.57119948
-0.5628884
0.22752427
1.024211
-1.2517353
1.6151481
-0.87890025
-0.7362478
-0.348661
0.72832853
-0.37966753
-0.011398643
0.21577277
0.30752903
-0.16900989
0.35275567
-0.19487867
-0.157877
1.6829387
-1.7047939
0.010793471
0.13463829
-0.14543176
-0.24422231
0.19565053
-1.1495596
1.2234096
-0.073849978
-0.2587163
0.2247865
0.033929803
0.56230579
-0.6151657
0.05285991
-0.83834357
0.76116548
0.077178089
0.27186916
-0.14095145
0.13609351
0.21157633
-0.34766984
-0.69805061
1.3274407
-0.62939007
0.26519923
0.83007145
1.2777288
-0.62963723
0.48533228
0.36843419
-0.52849852
0.39128143
1.0700828
-1.2337422
-0.52848673
0.40945603
0.86913537
0.42454661
0.80260823
-1.6247779
0.82216971
0.49253485
0.27294735
-0.26731706
-0.49614511
0.65720233
1.2447449
-1.2447449
-0.35329762
-0.23024443
1.1568114
0.19006113
-0.60366381
-0.065922883
1.0078357
-0.94191284
-0.6109999
1.4430343
-0.63918558
1.4247402
1.3430265
-0.75099033
-0.59203619
0.33304702
0.44330531
-0.7919663
0.90447259
-1.2067691
0.30229646
0.89561953
-0.87682674
0.24025452
-0.085174984
-1.0369323
1.1221073
1.5461941
0.25576153
-1.8019556
-0.85796702
1.0854913
-0.51019859
0.69741553
-0.63177076
0.77317651
-0.056776466
0.71228876
0.02791263
0.54507207
-0.5729847
-0.85177878
-0.062087489
0.91386627
0.57748334
-1.2755339
-1.416873
1.3509501
0.92033653
0.39843977
-1.3187763
-0.10333261
-0.54747926
0.65081187
-0.63087211
1.1392296
-0.95770741
0.36629524
0.59141217
0.57357825
-0.48000282
-0.14780387
-0.48893153
0.63673539
1.1367413
-1.173296
0.036554784
0.94961474
0.39341177
-1.5186142
0.80722956
0.057913136
1.0969812
0.98427594
0.77867049
-1.4300575
-0.096268382
0.73427665
-1.0502977
0.82316812
0.22712955
-1.1092153
1.0058827
0.60383242
0.73773968
-1.3415721
0.59571465
0.16431014
-0.79989953
0.65209567
-0.31542244
-0.73487523
-0.17562404
-0.32587959
0.50150363
0.46977934
-0.68078538
0.21100605
0.13220748
0.29543082
-0.42763829
-1.1448568
0.28826242
0.8565944
0.15126973
1.2749709
-1.4262407
-0.88263272
-0.48329054
1.3659233
0.1948916
0.75323318
0.24618118
-0.36497755
0.11879637
-0.97493918
-0.17797011
1.1990459
-1.0896098
1.1356128
0.0011284794
-0.77140106
-0.4640087
1.2354098
-0.67564532
-0.30609052
0.98173584
-0.12697697
0.47053614
-0.34355917
-0.063091345
0.88625946
-0.57120119
-0.28089198
0.85209316
0.51945421
0.15377455
-0.67322876
-0.779327
0.72916913
0.050157876
-1.0017085
0.54532911
0.45637942
-0.88276591
0.56734347
0.56703951
-1.1493524
1.5461941
0.19100119
0.38408818
-0.57508937
1.4214734
-1.2041278
-0.21734555
-1.1402371
1.2463104
-0.45089767
-0.88643476
-0.26312486
0.037004677
-0.84072478
0.80372011
-1.1477938
1.2990636
0.59172042
-1.0764661
0.48474564
0.58091511
0.76991351
-1.3508286
-0.6715823
0.52248552
-0.69810956
0.26691775
-0.13082423
-1.2054615
-0.51765359
1.0474467
-0.088592586
1.0919291
-0.91176121
-0.1801679
0.92602114
0.77169437
-1.6977155
0.19068623
-0.69952699
0.3786984
-0.23333144
-0.14536696
-0.40571293
0.59671412
-0.55555184
1.481573
-1.4025881
1.4049852
-0.0023971766
-0.39022315
0.60179948
0.28929998
-0.043118796
0.36440744
-0.37586921
0.011461772
0.33043294
-1.4549005
1.1244675
-0.47804364
-0.022300951
0.50034459
-0.18804047
-0.66413885
0.85217932
0.30615764
0.28955702
0.29858234
1.1985868
-1.4971691
-0.61121063
0.28533103
1.1006196
0.24632069
-1.3469403
0.037951082
1.2370198
0.49701599
0.47448311
1.1134609
-0.084829983
-1.0286309
-0.4413024
0.098701395
-1.1602924
0.34810634
0.81218604
0.13263099
-0.599378
0.46674701
-0.79660938
0.81447077
-0.017861387
-0.15673147
1.2239152
1.1616915
-1.7361267
0.57443523
0.38922558
0.33856652
-0.7277921
-0.44472896
-0.021909179
0.46663814
-0.13810704
-0.34122885
0.47933589
0.426649
-0.013128902
1.4346023
-0.36129528
0.9530157
0.23782958
-0.20046621
0.73797533
0.25381439
-0.99178972
0.47717656
-0.44926393
-0.84680192
0.27560074
1.5731957
-0.13061236
1.3490887
-1.2184763
0.12766348
-1.2842053
-1.2046052
0.69616552
0.50843966
1.4819559
-0.43229694
-0.77447211
-1.1017997
-0.1918432
-0.89917125
1.1012752
-0.56549515
-0.58765315
1.232932
-0.99396788
-0.79637896
1.04527
-0.24889102
-0.8650928
0.89212007
-0.39807668
-0.38125032
0.10394972
0.9879794
-0.035383748
-0.80295982
-0.60211199
-0.35559542
-0.2238545
1.2757568
-1.0519023
-0.47166545
0.60429644
-0.9010066
0.92382794
-0.022821337
0.056600264
-1.2907549
1.2341546
0.8169929
0.13086429
-0.94785718
0.44903686
-0.5858661
0.13682924
1.0033227
-1.2287076
0.22538487
0.011123376
0.67339256
-0.68451593
0.73775468
-0.56875019
-0.16900449
-0.035851575
-0.18159133
0.21744291
0.24749805
-0.41520618
0.068479166
-0.95111188
-0.066091695
-0.91640561
-1.0807915
1.3329457
-1.2763454
-0.56535278
-0.25070208
-0.089257608
-0.084239366
0.17349697
0.75093857
-0.61749947
-0.1334391
0.20643982
-0.99506024
0.78862042
0.0041390608
0.36026838
-0.43309875
-0.044944888
0.47294529
-0.16678766
-0.68190359
-0.94287435
0.5809171