/*--------------------------------*- C++ -*----------------------------------*\
| =========                 |                                                 |
| \\      /  F ield         | foam-extend: Open Source CFD                    |
|  \\    /   O peration     | Version:     4.1                                |
|   \\  /    A nd           | Web:         http://www.foam-extend.org         |
|    \\/     M anipulation  |                                                 |
\*---------------------------------------------------------------------------*/
FoamFile
{
    version     2.0;
    format      ascii;
    class       volVectorField;
    location    "0.5";
    object      U;
}
// * * * * * * * * * * * * * * * * * * * * * * * * * * * * * * * * * * * * * //

dimensions      [0 1 -1 0 0 0 0];

internalField   nonuniform List<vector> 
4242
(
(95.332552 90.362708 1.9612039e-15)
(145.18056 129.84143 6.1717593e-18)
(154.33998 132.15895 -9.7195463e-16)
(154.26171 129.66877 7.7796163e-16)
(153.78725 126.21735 1.0530199e-17)
(153.19511 122.3863 2.064619e-18)
(152.52858 118.1019 0)
(151.78112 113.37553 2.0171735e-16)
(150.96165 108.20238 -3.1398324e-16)
(150.08804 102.59707 1.1259416e-16)
(149.19889 96.591385 -4.3239847e-17)
(148.34912 90.242251 3.6512033e-17)
(147.62058 83.619281 1.5865652e-17)
(147.17663 76.766901 -9.3630172e-19)
(147.24933 69.767617 2.5354831e-17)
(147.62601 63.325883 0)
(99.174669 72.029195 0)
(164.80539 114.1184 -1.3681724e-17)
(177.12274 116.61057 1.2689542e-15)
(176.77216 114.8237 -1.0379646e-15)
(175.49629 112.07233 -1.7506319e-17)
(174.00879 108.99975 5.6809888e-16)
(172.4133 105.54473 -4.5764642e-17)
(170.72204 101.72071 -6.6518928e-16)
(168.95587 97.521948 6.675455e-17)
(167.14113 92.962625 1.8695197e-16)
(165.3158 88.068727 0)
(163.52804 82.88451 -1.2682474e-17)
(161.84431 77.467254 -5.3716174e-18)
(160.39741 71.846568 -2.8753383e-17)
(159.37287 66.096373 3.0571409e-17)
(158.63178 60.540023 3.2947932e-18)
(104.47149 56.068665 -3.3558954e-17)
(181.31867 95.215844 -4.4429183e-15)
(198.67853 98.249583 1.7796396e-15)
(198.54256 97.471428 -1.2147311e-17)
(196.53436 95.579417 -1.0624823e-15)
(194.22648 93.41632 8.7485682e-16)
(191.74282 90.951992 -1.1629408e-17)
(189.09585 88.19919 1.780803e-17)
(186.31884 85.139119 -6.3952643e-18)
(183.45541 81.769 -1.9976691e-17)
(180.56448 78.098601 1.8339355e-16)
(177.71669 74.153608 -1.3957665e-16)
(174.99996 69.969696 -1.7932683e-16)
(172.53632 65.574758 1.5642192e-16)
(170.44974 61.062494 -1.0198115e-17)
(168.7507 56.665884 -1.7515565e-17)
(101.53555 37.870684 -8.6919037e-18)
(185.84262 70.356777 -5.247989e-18)
(210.1426 74.01244 -9.5842332e-16)
(212.66991 74.76495 8.2450442e-16)
(210.93046 74.170331 -1.0408937e-17)
(208.39776 73.183189 5.2244766e-16)
(205.58196 71.979746 -4.1001113e-16)
(202.54236 70.60103 -6.4513282e-16)
(199.31421 69.01872 5.4019406e-17)
(195.93929 67.209276 8.1967235e-16)
(192.44189 65.124616 -3.1789808e-16)
(188.95994 62.785722 0)
(185.58677 60.186412 1.569694e-17)
(182.44398 57.314201 -1.1223593e-16)
(179.63168 54.257595 5.6684742e-17)
(177.031 51.378999 -8.6931384e-17)
(84.713359 19.394183 9.442853e-18)
(172.88448 42.828298 -1.3611429e-15)
(206.22842 47.039327 9.7964156e-16)
(214.96441 49.501534 -5.6613548e-18)
(215.60682 50.720805 1.3546688e-17)
(213.83438 51.210972 -3.633845e-18)
(211.29612 51.385095 -3.9650696e-16)
(208.42696 51.412154 1.3784809e-17)
(205.35006 51.307869 2.4295491e-16)
(202.11423 51.052472 -1.8299536e-16)
(198.73437 50.587131 1.5638123e-16)
(195.31932 49.895796 0)
(191.9572 48.938696 8.6673347e-17)
(188.75899 47.661199 -6.4898354e-17)
(185.84728 46.013257 1.8275401e-17)
(183.07168 44.36424 0)
(48.615237 5.0978606 -1.3215802e-15)
(130.74238 17.874854 3.2907002e-16)
(175.73957 21.883329 4.1240782e-16)
(196.37798 25.541291 -3.0245986e-16)
(204.62116 28.774285 9.2146699e-19)
(207.02869 31.212744 9.981132e-17)
(206.77265 33.041041 7.9532547e-17)
(205.31568 34.500044 -3.8175488e-18)
(203.31057 35.709118 -3.5740498e-18)
(201.03101 36.719191 -1.1819415e-16)
(198.57039 37.521182 1.2592136e-16)
(196.01858 38.09942 -5.3115047e-18)
(193.44358 38.41203 -1.3808938e-17)
(190.925 38.411675 -2.9877083e-17)
(188.57775 37.979621 -1.9618531e-20)
(186.30619 37.481606 1.3006035e-17)
(-27.111053 1.0012071 -5.9123366e-16)
(62.404085 3.2890141 -3.3327544e-16)
(116.63731 5.4060992 5.2638939e-16)
(150.87536 8.5046806 -2.3073571e-16)
(172.17892 12.247046 8.9029776e-17)
(184.6433 15.948498 9.1213011e-21)
(191.42251 19.262762 1.0847019e-16)
(194.61654 22.108839 -4.9435724e-17)
(195.64632 24.491661 -5.9825394e-18)
(195.42724 26.450189 2.7019996e-17)
(194.50356 28.036612 -4.4425119e-17)
(193.20335 29.305305 3.7247119e-17)
(191.71812 30.283916 -1.0247408e-17)
(190.17555 30.979611 -4.7737819e-17)
(188.69155 31.28543 1.933197e-17)
(187.24954 31.409621 2.5504388e-17)
(-42.269114 7.9565053 -1.1441468e-17)
(-63.000303 12.80375 1.6755666e-15)
(4.763175 6.3668864 -8.8016291e-16)
(68.188807 2.288338 5.0220705e-16)
(109.47973 2.5197667 -3.2400449e-16)
(137.85208 4.8524864 0)
(157.62796 7.9738386 1.7100017e-16)
(170.92246 11.361119 -1.3593706e-16)
(179.43671 14.677066 -2.7607934e-18)
(184.47329 17.685441 0)
(187.08644 20.25324 -1.3892737e-17)
(188.11216 22.344065 7.2702473e-18)
(188.1897 23.989063 -5.3195541e-17)
(187.7844 25.250264 1.0819092e-16)
(187.22155 26.107929 -8.0797574e-17)
(186.67412 26.764532 -2.3795104e-17)
(-32.835548 10.929463 7.1209862e-18)
(-58.965891 20.052276 -5.9702953e-18)
(-64.363434 21.719174 0)
(-43.094578 17.580667 2.1408126e-17)
(9.8539563 9.0894556 7.7437826e-18)
(61.658223 2.663352 3.1703401e-16)
(98.687136 1.0674945 -2.1400594e-16)
(125.96085 2.2506562 0)
(146.26475 4.6692574 3.5819942e-19)
(160.81973 7.6880543 -1.0309507e-17)
(170.73705 10.913528 8.6720298e-18)
(177.04698 14.056396 5.9952952e-18)
(180.76289 16.912139 1.119409e-17)
(182.78932 19.351532 7.5126022e-17)
(183.86322 21.274975 -9.5360079e-17)
(184.56882 22.843862 5.602626e-17)
(-26.884519 13.69699 0)
(-49.114643 24.756866 2.802794e-15)
(-54.969339 26.867485 -4.5177102e-15)
(-56.387313 27.579679 2.08185e-15)
(-54.856991 27.836077 -1.4953518e-17)
(-35.495805 23.417697 -3.847266e-17)
(8.2787972 13.906239 7.2048638e-16)
(54.67716 5.7487654 -4.4901711e-16)
(89.431527 1.8657657 -2.4991641e-16)
(115.99646 0.85738789 2.0325845e-16)
(136.18151 1.8859261 0)
(151.05124 4.4842888 -1.1870902e-16)
(161.83571 7.9827765 6.6754859e-17)
(169.41071 11.740818 0)
(174.57195 15.318987 0)
(178.23951 18.777657 0)
(-24.498936 16.244943 5.870615e-15)
(-40.128589 26.30564 -2.4105775e-15)
(-43.984928 27.814184 0)
(-46.155758 27.933155 -1.0658585e-17)
(-46.677318 27.005756 -1.1750026e-15)
(-46.467824 26.135064 1.0878459e-15)
(-44.405388 25.137031 1.116387e-15)
(-31.124026 20.284731 4.0918225e-17)
(19.923071 6.5268135 -6.6922537e-16)
(59.697188 -2.1912529 2.2046018e-17)
(86.83568 -5.0866275 0)
(109.2447 -3.7307444 -2.4347487e-16)
(127.82924 -0.26813454 3.7840384e-17)
(142.77564 3.731616 1.3334271e-16)
(154.15721 8.0275542 0)
(163.39361 14.002304 1.5448699e-17)
(-15.335795 12.373383 -2.8497439e-18)
(-26.979711 21.21287 4.2879731e-15)
(-29.683637 21.047168 -1.4913196e-15)
(-35.539178 22.142525 -1.2086272e-15)
(-37.377378 20.012643 8.8734034e-16)
(-39.901204 18.179879 -7.3201288e-16)
(-42.365912 16.201077 5.9404975e-16)
(-43.2428 13.587654 4.9214737e-16)
(-41.508196 11.158227 -5.4111281e-16)
(-33.464963 6.9008168 0)
(15.370455 -2.8712219 0)
(45.116646 -2.6159402 0)
(78.530725 -0.57686166 3.1085298e-17)
(102.05318 1.7685062 0)
(120.04061 4.6281322 1.0194357e-16)
(136.26966 10.696005 -1.7398722e-16)
(91.257755 -111.24425 1.0399367e-15)
(128.24289 -148.33915 7.1024426e-19)
(134.21171 -149.32891 -5.0189329e-16)
(134.57794 -147.12213 4.0901809e-16)
(134.35132 -143.61861 2.5230506e-19)
(134.12316 -139.50932 8.3578993e-18)
(133.95051 -134.82606 0)
(133.86342 -129.52752 6.9789936e-17)
(133.88473 -123.58365 -7.6638077e-17)
(134.04122 -116.99329 2.9312696e-17)
(134.35848 -109.79292 6.9998371e-18)
(134.85429 -102.05619 -5.8964583e-18)
(135.55202 -93.884708 -2.2548589e-17)
(136.50849 -85.362816 1.3304347e-17)
(137.65601 -76.692644 2.2195225e-17)
(138.46842 -68.599781 0)
(62.995496 -99.101977 0)
(90.727755 -135.39236 2.8239941e-18)
(95.837908 -136.41895 -3.4366261e-16)
(96.878562 -133.72464 2.7469402e-16)
(97.921168 -130.35566 3.7461769e-18)
(99.209365 -126.53577 -2.3979007e-16)
(100.74789 -122.24311 -1.8165312e-17)
(102.55325 -117.44241 3.6638026e-16)
(104.63669 -112.11252 -8.0270264e-18)
(107.00255 -106.24883 -1.4032895e-16)
(109.64405 -99.868388 0)
(112.5404 -93.0146 1.9863651e-17)
(115.66696 -85.751496 1.3782647e-17)
(119.00156 -78.140919 1.4835245e-16)
(122.48603 -70.292555 -2.0032392e-16)
(125.8324 -62.468281 -3.5301108e-17)
(42.243035 -88.307054 -9.9250057e-18)
(60.341992 -119.63823 3.2253306e-15)
(64.421417 -120.48144 -1.2537618e-15)
(66.098436 -117.92275 1.0154528e-17)
(67.926385 -114.82826 8.2697167e-16)
(70.108184 -111.35037 -6.5700369e-16)
(72.658788 -107.45768 1.0841723e-17)
(75.600601 -103.1155 -1.7769721e-17)
(78.950028 -98.30302 2.7663652e-18)
(82.712333 -93.016789 2.3948731e-17)
(86.876053 -87.275233 -2.6080042e-16)
(91.411519 -81.121361 1.9626881e-16)
(96.288084 -74.61736 3.7265654e-16)
(101.48076 -67.837127 -3.3123425e-16)
(106.91181 -60.912423 4.5707319e-17)
(112.18368 -54.109576 1.6062011e-16)
(23.890483 -70.07077 8.8065045e-18)
(34.445761 -95.213963 6.4827812e-18)
(37.736022 -95.880052 1.1290164e-15)
(39.940934 -93.651476 -9.0209289e-16)
(42.445867 -91.040205 1.2263264e-17)
(45.40776 -88.158764 -5.7591678e-16)
(48.852535 -84.973612 4.2534968e-16)
(52.806601 -81.455923 7.36529e-16)
(57.286969 -77.589495 -1.1088474e-17)
(62.293284 -73.372371 -9.9013105e-16)
(67.800487 -68.819226 3.9530556e-16)
(73.760047 -63.96177 0)
(80.117725 -58.845068 -2.7507693e-17)
(86.825165 -53.521157 2.3877326e-16)
(93.718275 -48.105923 -1.2020326e-16)
(100.27944 -42.802092 2.9218381e-16)
(10.468384 -47.100396 -1.0218041e-17)
(15.827389 -65.101574 2.1599818e-15)
(18.590776 -65.367334 -1.6258237e-15)
(21.189432 -63.45357 8.8366922e-18)
(24.214188 -61.3658 -2.1754689e-17)
(27.771412 -59.176235 6.2443232e-18)
(31.89674 -56.845486 6.3971197e-16)
(36.621242 -54.347252 8.0431362e-18)
(41.965015 -51.667592 -3.7517688e-16)
(47.928081 -48.802781 3.128664e-16)
(54.483589 -45.758609 -2.574556e-16)
(61.58169 -42.54882 0)
(69.179239 -39.187321 -1.773026e-16)
(77.215514 -35.678959 1.3014797e-16)
(85.44321 -32.08335 -4.5574066e-17)
(93.014141 -28.568794 0)
(124.53816 -67.473175 0)
(207.44049 -108.11226 3.4891514e-15)
(224.05514 -109.86039 -5.4847397e-15)
(223.20886 -108.66234 2.2499014e-15)
(221.0752 -106.33998 1.5052122e-17)
(218.60081 -103.72261 4.5365996e-18)
(215.88473 -100.73316 1.043607e-15)
(212.91987 -97.373801 -8.8537059e-16)
(209.71971 -93.62397 -6.2832896e-16)
(206.3062 -89.472612 4.7277431e-16)
(202.7172 -84.924374 0)
(199.01309 -80.004584 -2.3923724e-16)
(195.28166 -74.769267 1.8794376e-16)
(191.65617 -69.28579 0)
(188.27332 -63.639701 0)
(185.16131 -57.988493 0)
(2.6408797 -24.191672 1.9207863e-15)
(5.503941 -35.857923 -7.3754132e-16)
(8.3474248 -35.524279 -1.0431558e-15)
(11.516145 -33.689906 7.7318057e-16)
(15.136732 -31.948697 7.5369688e-18)
(19.255065 -30.318992 -2.3748356e-16)
(23.902731 -28.735792 -1.9145148e-16)
(29.10485 -27.157567 1.8872195e-18)
(34.874737 -25.557064 2.0930802e-18)
(41.208009 -23.914433 2.7724859e-16)
(48.077803 -22.214159 -2.9765665e-16)
(55.430601 -20.443633 4.4735209e-18)
(63.188101 -18.590759 2.7411845e-17)
(71.259129 -16.634448 7.6881284e-17)
(79.504659 -14.539554 5.7698286e-20)
(87.664102 -12.33467 -4.3807758e-17)
(1.6584702 11.031121 1.0153561e-15)
(4.1455405 18.01621 7.9465912e-16)
(6.9044472 17.179282 -1.680931e-15)
(10.013372 15.370745 8.2587342e-16)
(13.594704 13.795859 -3.2428812e-16)
(17.695545 12.422077 -2.9467021e-20)
(22.34794 11.169997 -3.9342793e-16)
(27.578167 9.9943938 1.6471789e-16)
(33.400608 8.8685399 1.7189155e-17)
(39.811187 7.7749173 -9.407284e-17)
(46.781434 6.7013018 1.3898445e-16)
(54.255965 5.6391012 -1.2219078e-16)
(62.15746 4.5786076 2.9128204e-17)
(70.366308 3.5094754 1.5612402e-16)
(78.714545 2.4220203 -6.3151987e-17)
(86.867043 1.380446 -9.2987215e-17)
(7.7662289 32.853446 1.8922551e-17)
(12.142566 46.323476 -2.5529498e-15)
(14.719374 46.513703 1.8939431e-15)
(17.333331 44.995752 -1.4359788e-15)
(20.404567 43.350164 1.1354064e-15)
(24.017996 41.627164 0)
(28.209996 39.789636 -7.0555026e-16)
(33.012904 37.81486 5.5137885e-16)
(38.447093 35.692167 1.2286844e-17)
(44.511508 33.420546 0)
(51.177251 31.007492 5.173994e-17)
(58.39581 28.465922 -2.699964e-17)
(66.111586 25.808063 1.9565108e-16)
(74.254718 23.048958 -3.8611894e-16)
(82.495731 20.198487 2.8052275e-16)
(90.020838 17.374285 8.4154817e-17)
(19.248458 55.380998 -1.0527576e-17)
(28.137743 76.248112 7.8427511e-18)
(31.196487 76.994633 0)
(33.490528 75.216965 -2.4489496e-17)
(36.095901 73.080949 -1.2048232e-17)
(39.150712 70.690321 -7.1166163e-16)
(42.68409 68.017883 5.9095305e-16)
(46.722347 65.040813 0)
(51.281773 61.747486 -3.6651279e-18)
(56.36022 58.139657 3.3034323e-17)
(61.929949 54.235313 -3.1182625e-17)
(67.944071 50.067661 -1.8367426e-17)
(74.36656 45.676318 -3.9933637e-17)
(81.172621 41.090903 -2.6641056e-16)
(88.186048 36.403985 3.3023883e-16)
(94.674622 31.861492 -1.9215989e-16)
(35.467914 73.452154 0)
(51.218767 100.84001 -2.4691573e-15)
(55.040342 101.87017 3.7993121e-15)
(56.864314 99.757692 -1.4900134e-15)
(58.827109 97.132031 1.0890941e-17)
(61.130298 94.138927 3.0034681e-17)
(63.793938 90.754981 -8.1501659e-16)
(66.841652 86.953177 6.5345214e-16)
(70.291546 82.719063 4.8913083e-16)
(74.151134 78.055657 -4.4971746e-16)
(78.411708 72.989334 0)
(83.055224 67.570249 3.3289031e-16)
(88.089658 61.859649 -1.9088613e-16)
(93.583314 55.931963 0)
(99.441615 49.936815 0)
(104.85182 44.462769 0)
(53.967225 84.373756 -3.5424892e-15)
(78.680399 117.12668 1.2807611e-15)
(83.549177 118.42758 0)
(84.79382 116.14967 4.2021991e-18)
(86.006378 113.22889 6.9534253e-16)
(87.45324 109.87693 -5.8694154e-16)
(89.146499 106.08118 -4.7986609e-16)
(91.108007 101.81519 -1.9552572e-17)
(93.357068 97.065668 3.6652833e-16)
(95.909554 91.837066 -2.2239011e-17)
(98.775145 86.157762 0)
(101.96157 80.081542 4.1051387e-16)
(105.49277 73.679038 -5.2297011e-17)
(109.41535 67.046718 -2.8350386e-16)
(113.64805 60.353014 0)
(117.90182 53.882423 -3.9062392e-17)
(80.256563 97.262465 2.6704044e-17)
(113.54691 131.28905 -5.253602e-16)
(119.15496 132.40122 2.2500566e-16)
(119.68569 130.45683 2.4764659e-16)
(119.64799 127.35449 -1.9882931e-16)
(119.61912 123.68078 2.3001963e-16)
(119.66176 119.47918 -1.9665923e-16)
(119.8095 114.71194 -1.8481708e-16)
(120.09396 109.3559 1.6269945e-16)
(120.55758 103.42409 0)
(121.24334 96.966072 0)
(122.19157 90.06897 0)
(123.46122 82.837656 -1.6893418e-17)
(125.12984 75.391062 0)
(127.08394 67.924092 -1.7297605e-16)
(128.56337 61.063724 3.3663458e-16)
(7.9055769 7.6795266 9.1909751e-15)
(-20.596761 -21.455479 2.3641073e-17)
(-39.059863 -39.539608 -4.0617603e-15)
(-46.008095 -47.907402 3.0941925e-15)
(-45.733897 -50.430211 3.8865447e-17)
(-41.033327 -49.329789 3.6174345e-17)
(-32.177614 -46.496018 0)
(-19.338139 -43.389934 1.5286903e-15)
(15.005561 -31.51059 -2.046461e-15)
(61.593822 -17.959221 6.9885652e-16)
(104.16659 -5.510606 -5.0039573e-16)
(137.49965 6.623451 3.8378544e-16)
(162.22814 16.645363 -7.0965848e-18)
(179.6205 23.572771 -5.8353935e-17)
(190.50969 27.905455 -1.9552032e-16)
(196.52911 28.889357 0)
(-9.8540469 -4.4404066 0)
(-27.499637 -16.547777 -6.1172259e-17)
(-43.815791 -28.227209 5.9397582e-15)
(-51.906112 -33.666474 -5.0279334e-15)
(-52.183677 -35.655024 -1.0487984e-16)
(-45.304979 -34.995108 3.1193331e-15)
(1.9116114 -17.730932 -1.5199849e-17)
(55.656413 0.037362393 -2.1503701e-15)
(97.215375 8.7899389 9.1920317e-17)
(130.16917 12.487528 4.6927768e-16)
(156.83779 14.341888 0)
(177.19675 15.591843 -3.5111749e-17)
(191.34468 16.719788 -6.2790226e-17)
(200.07122 17.76193 -3.2676753e-16)
(204.3405 18.707013 4.8706712e-16)
(205.39194 18.928095 6.2920719e-17)
(-28.505254 -12.405949 -9.0099657e-19)
(-49.219398 -22.128017 -1.3486097e-14)
(-58.582581 -27.654466 6.5462351e-15)
(-60.531973 -29.680813 -4.478272e-17)
(6.2476017 -9.0353794 -2.7329761e-15)
(67.843 7.5352466 1.5746713e-15)
(108.25108 14.059266 -1.5388007e-17)
(138.70715 16.093919 2.1309432e-17)
(161.84559 15.828196 -1.5036846e-17)
(179.21046 14.411008 -2.5327157e-17)
(191.82665 12.586064 3.2077866e-16)
(200.54937 10.882662 -2.3769259e-16)
(205.9824 9.690716 -4.7009552e-16)
(208.68707 9.1493435 4.2955784e-16)
(209.21099 9.1611913 -7.9779297e-17)
(208.01084 9.5719521 -2.4753965e-16)
(-43.941123 -13.94486 -1.8283729e-17)
(-62.288897 -19.793926 -1.707785e-17)
(1.7685162 -5.8033958 -2.2529725e-15)
(72.916782 7.8605217 1.2833455e-15)
(117.84027 13.332049 -1.2030386e-17)
(149.98758 15.096937 5.145364e-16)
(173.16042 14.798077 -3.6162652e-16)
(189.42055 13.219058 -6.0838049e-16)
(200.28615 10.90828 1.3244e-17)
(207.14304 8.3413592 8.4280137e-16)
(211.09511 5.9304046 -3.4686951e-16)
(213.0024 3.9375228 0)
(213.45502 2.5014627 2.9826343e-17)
(212.82063 1.664127 -2.424531e-16)
(211.31817 1.3242353 1.2714845e-16)
(209.04536 1.4272163 -3.1756443e-16)
(-38.143157 -6.3146956 1.8283729e-17)
(50.675446 2.9249627 -2.8087294e-15)
(117.69624 9.3110114 1.4461634e-15)
(159.96203 11.699443 -6.7505959e-18)
(187.17789 11.291641 1.545702e-17)
(204.07353 9.3701729 -4.3157227e-18)
(213.89618 6.7904866 -4.3280766e-16)
(219.07635 4.0538546 1.0184357e-19)
(221.3095 1.4493631 2.7387953e-16)
(221.72636 -0.88126082 -2.3387441e-16)
(221.03003 -2.8768371 2.0309441e-16)
(219.62369 -4.5086709 0)
(217.71358 -5.7549164 1.4787147e-16)
(215.39519 -6.5776039 -1.1337298e-16)
(212.69046 -7.034791 4.3842292e-17)
(209.53518 -6.903841 0)
(42.893054 1.2982192 -2.4157628e-15)
(136.12895 -1.2139419 5.7449223e-16)
(189.45903 0.35626387 7.0139556e-16)
(216.52807 -0.78758295 -5.0841314e-16)
(229.09348 -3.2394031 -4.6636023e-19)
(234.03576 -5.7282296 1.664562e-16)
(235.11375 -7.9520266 1.3599178e-16)
(234.26574 -9.9312362 -4.3840528e-18)
(232.43226 -11.69591 -4.1852165e-18)
(230.03991 -13.263824 -2.170242e-16)
(227.2663 -14.627561 2.3813443e-16)
(224.18275 -15.748856 -6.6060021e-18)
(220.83047 -16.57058 -2.4994184e-17)
(217.25879 -17.019181 -6.3699337e-17)
(213.47675 -17.110062 -4.5452266e-20)
(209.42144 -16.46228 3.463166e-17)
(91.183076 -8.7710644 -1.0493809e-15)
(190.79701 -22.022037 -5.55972e-16)
(232.00111 -22.73626 1.1681593e-15)
(245.27004 -24.765832 -5.9568351e-16)
(247.99638 -26.495256 2.5086704e-16)
(246.94664 -27.673715 2.3102924e-20)
(244.51042 -28.550687 3.2422932e-16)
(241.46982 -29.292044 -1.4931171e-16)
(238.05031 -29.915312 -1.9196174e-17)
(234.31227 -30.400951 7.7677012e-17)
(230.28139 -30.702979 -1.2600063e-16)
(225.9936 -30.759793 1.0453183e-16)
(221.51172 -30.51246 -2.8545854e-17)
(216.93149 -29.901396 -1.3276116e-16)
(212.29178 -28.942595 5.3799109e-17)
(207.55713 -27.37326 7.2160611e-17)
(117.32889 -27.183073 -2.1654259e-17)
(216.33299 -51.581401 2.2065113e-15)
(247.07276 -53.047367 -1.648104e-15)
(251.8901 -54.25539 1.2770641e-15)
(250.50957 -54.35767 -1.1013849e-15)
(247.65457 -54.03222 0)
(244.29569 -53.507099 7.1495365e-16)
(240.59338 -52.852641 -5.9366741e-16)
(236.55898 -52.027854 -1.2884642e-17)
(232.2064 -50.997953 0)
(227.56962 -49.723022 -5.3894521e-17)
(222.71105 -48.164447 2.718941e-17)
(217.72715 -46.297025 -1.8980609e-16)
(212.74674 -44.101812 3.7440458e-16)
(207.82541 -41.595723 -2.6801384e-16)
(202.88264 -38.621666 -7.4073202e-17)
(127.31624 -48.16484 1.3509687e-17)
(220.04816 -82.025524 -8.3640783e-18)
(242.85661 -83.768982 0)
(243.47599 -83.721592 -7.9627453e-18)
(241.04565 -82.414398 -1.5544731e-17)
(237.99197 -80.816279 8.454518e-16)
(234.61389 -78.956196 -7.3430845e-16)
(230.9359 -76.853856 0)
(226.95288 -74.462617 5.4065122e-17)
(222.68737 -71.759006 3.8541635e-17)
(218.18418 -68.728391 3.496667e-17)
(213.51766 -65.368233 -7.1346903e-17)
(208.79533 -61.699637 4.0233546e-17)
(204.15283 -57.763821 2.3899206e-16)
(199.67113 -53.688775 -2.8240813e-16)
(195.27672 -49.547412 1.5867765e-16)
(117.95383 -86.364837 8.7651257e-15)
(188.19254 -129.64281 -2.8852936e-15)
(199.78595 -131.10451 0)
(198.88647 -128.87462 -1.2021149e-17)
(197.29714 -125.67971 -1.2981407e-15)
(195.5017 -122.13423 1.1209157e-15)
(193.57029 -118.13893 7.7761728e-16)
(191.49405 -113.68932 -2.9207358e-17)
(189.27921 -108.77915 -5.5061252e-16)
(186.93518 -103.41121 2.7071987e-17)
(184.4801 -97.60914 0)
(181.9475 -91.420548 -3.9662381e-16)
(179.4014 -84.919545 9.1036706e-17)
(176.98559 -78.167182 2.4179172e-16)
(174.92511 -71.180928 0)
(173.11394 -64.348566 1.9834436e-17)
(108.62748 -103.50018 2.5287519e-17)
(163.3549 -145.68375 4.8334244e-15)
(172.39616 -147.41218 -1.8683989e-15)
(172.12491 -144.6688 -1.3778615e-15)
(171.53861 -140.90596 1.1093429e-15)
(170.79967 -136.70893 -8.4400377e-16)
(169.96103 -131.99362 6.9417186e-16)
(169.00755 -126.75379 4.6717814e-16)
(167.92886 -120.9848 -4.1963635e-16)
(166.72489 -114.68564 0)
(165.40911 -107.88195 0)
(164.01471 -100.62627 0)
(162.61149 -93.000954 1.4335458e-17)
(161.38088 -85.07046 0)
(160.63394 -76.958762 8.6177014e-17)
(160.28763 -69.198727 -1.4287478e-16)
(1.9186288 -3.1412079 2.5184056e-15)
(-1.4579424 -2.108352 9.5874602e-18)
(-8.1960033 2.8606175 -1.7555413e-15)
(-12.952985 6.5768112 1.5593394e-15)
(-16.703438 8.8259119 2.0170247e-17)
(-19.976193 10.322544 1.7263782e-17)
(-22.616192 10.840429 0)
(-24.655968 10.448245 6.8524548e-16)
(-26.147986 9.3093857 -1.1432558e-15)
(-26.994241 7.7029641 4.8467583e-16)
(-27.271484 6.0875117 -4.0403472e-16)
(-29.655629 6.9376696 3.5419623e-16)
(-31.01286 7.2028064 -1.8626838e-18)
(9.2266599 1.7389626 -5.0886313e-17)
(42.858033 -1.3880361 -9.1895289e-17)
(75.148234 4.6336832 0)
(6.6645055 -10.117681 0)
(9.697179 -15.845853 -2.2710177e-17)
(7.8034226 -14.580294 2.9391502e-15)
(4.3839928 -10.458597 -3.0868629e-15)
(-1.1352744 -4.4486152 -5.4907106e-17)
(-5.6156449 -0.15583286 1.720299e-15)
(-9.2394714 2.4692914 -8.9340543e-18)
(-12.346298 4.0392168 -1.9855724e-15)
(-15.187588 5.0500964 1.1050209e-16)
(-17.828655 5.7697654 6.1766828e-16)
(-20.291004 6.3170341 0)
(-22.543642 6.736691 -5.3160062e-17)
(-24.144081 6.8941512 -7.6306001e-17)
(-22.872761 7.9518508 -3.8167959e-16)
(-16.078421 8.4789178 4.722285e-16)
(11.552635 8.9097022 4.5261167e-17)
(6.7027089 -13.690277 -6.7885713e-19)
(9.5298996 -20.206531 -6.4202661e-15)
(7.9322734 -18.398489 3.0997261e-15)
(5.3722402 -14.48869 -2.6307332e-17)
(2.5700884 -10.780035 -2.5819083e-15)
(-0.30368 -7.6426477 2.1136544e-15)
(-3.1992202 -5.2179453 -2.8040689e-17)
(-6.0179622 -3.240135 4.1976962e-17)
(-8.9431371 -1.2795628 -2.3425466e-17)
(-11.911867 0.82027596 -4.9789714e-17)
(-14.782189 3.1768776 5.6540928e-16)
(-17.294786 5.8752821 -4.0724498e-16)
(-19.060359 8.973454 -7.6322843e-16)
(-19.39086 12.912584 6.4071855e-16)
(-17.721422 17.762852 -7.8873557e-17)
(-12.793541 23.757924 -2.03568e-16)
(6.2009717 -18.77489 -7.6424036e-18)
(8.912927 -28.505474 -8.3301155e-18)
(7.7728648 -28.205797 -1.780694e-15)
(5.5797792 -25.352007 1.6253297e-15)
(3.0741121 -21.840803 -2.2184863e-17)
(0.46419953 -18.77374 1.0531423e-15)
(-2.2436534 -16.372492 -7.341484e-16)
(-5.12399 -13.600765 -1.2187527e-15)
(-8.2135832 -10.375522 7.5908123e-18)
(-11.456669 -6.6592734 1.5096574e-15)
(-14.720748 -2.2903403 -5.8046696e-16)
(-17.808073 2.8663003 0)
(-20.386944 8.9983038 4.1238913e-17)
(-22.125587 16.326819 -3.5360695e-16)
(-22.42955 24.851124 1.7221941e-16)
(-21.122207 35.229604 -4.1401821e-16)
(5.4987234 -29.650216 6.9831032e-18)
(7.5093718 -44.576763 -1.815471e-15)
(6.1023081 -44.951156 1.5010501e-15)
(4.000758 -42.187878 -8.8819504e-18)
(1.6003889 -38.897473 2.390063e-17)
(-1.1463625 -35.216592 -7.6441883e-18)
(-4.1773438 -30.769264 -7.461426e-16)
(-7.4152195 -26.067155 -1.7470455e-17)
(-10.792539 -21.151916 4.5209257e-16)
(-14.29313 -15.818106 -3.7869335e-16)
(-17.75206 -9.3694449 2.9961868e-16)
(-21.064267 -1.7130083 0)
(-23.987341 7.3081682 2.1618472e-16)
(-26.100144 17.820621 -1.5126743e-16)
(-26.994647 29.741508 5.2506815e-17)
(-26.56139 42.795874 0)
(2.5032092 -45.723599 -1.0638834e-15)
(2.678657 -66.589097 4.4039101e-16)
(0.86490169 -66.17242 6.9665689e-16)
(-1.2355314 -62.072132 -5.6523772e-16)
(-3.5437 -57.571953 -6.7587462e-18)
(-6.1122571 -52.851581 1.9815933e-16)
(-8.9767108 -47.682283 1.7209876e-16)
(-12.129402 -41.785415 7.2477869e-19)
(-15.460835 -34.770803 6.7638159e-19)
(-18.778868 -26.584382 -3.0597253e-16)
(-22.05205 -17.628553 3.3777946e-16)
(-24.998855 -7.4271776 7.6748844e-19)
(-27.258964 4.5408796 -2.368872e-17)
(-28.389202 18.16159 -8.4926633e-17)
(-28.148292 32.86247 -7.3720721e-20)
(-26.659965 47.582943 5.0477984e-17)
(-4.2901957 -63.214641 -5.852985e-16)
(-7.2713297 -89.744547 -4.5856088e-16)
(-9.3554256 -89.211413 1.0858609e-15)
(-11.002672 -84.340393 -5.8305885e-16)
(-12.794178 -78.758961 2.4633791e-16)
(-14.811461 -72.585662 2.1448343e-20)
(-17.009811 -65.657973 3.436591e-16)
(-19.360704 -57.85688 -1.5120556e-16)
(-21.804563 -49.017812 -1.6698394e-17)
(-24.245203 -38.877049 1.1220885e-16)
(-26.365677 -27.054007 -1.6883324e-16)
(-27.797491 -13.445624 1.6774501e-16)
(-27.948435 1.9902707 -3.742523e-17)
(-26.250451 19.195087 -2.0900067e-16)
(-22.476197 36.649248 8.3191939e-17)
(-17.601168 52.155474 1.3033209e-16)
(-14.570724 -77.3274 -1.666666e-17)
(-22.298465 -109.92965 2.0716239e-15)
(-24.562849 -109.56965 -1.6387986e-15)
(-25.251293 -104.09564 1.3133007e-15)
(-25.91918 -97.680392 -1.0992037e-15)
(-26.713373 -90.50399 0)
(-27.577406 -82.393527 7.8102889e-16)
(-28.430652 -73.120373 -6.4534691e-16)
(-29.084462 -62.413304 -2.3812738e-17)
(-29.398672 -49.960581 0)
(-29.149273 -35.318162 -9.3011059e-17)
(-27.750706 -17.934856 6.2482511e-17)
(-23.88237 2.3551888 -4.1545435e-16)
(-16.686015 24.057291 7.5155172e-16)
(-7.2555756 44.238517 -5.5756588e-16)
(3.7449467 60.018835 -1.6332451e-16)
(-24.648347 -79.905786 1.1623973e-17)
(-39.137631 -120.38721 -8.9164612e-18)
(-41.79981 -121.60076 0)
(-41.027414 -116.27517 3.9975349e-17)
(-39.951464 -109.69407 2.3281293e-17)
(-38.780786 -102.15011 1.2060816e-15)
(-37.384526 -93.391858 -1.0518165e-15)
(-35.604975 -83.062442 0)
(-33.165843 -70.744979 -7.2853065e-18)
(-30.014685 -56.088 -9.1008561e-17)
(-26.142039 -38.234708 7.4516668e-17)
(-21.314406 -16.794912 1.0169578e-16)
(-10.518461 6.8180747 1.2189954e-16)
(5.5847364 32.089947 8.5902847e-16)
(21.668233 53.593341 -1.044668e-15)
(40.252088 67.386138 5.3507119e-16)
(-30.884891 -69.911268 0)
(-52.396679 -114.49983 5.5920005e-15)
(-57.417021 -120.98554 -9.4085112e-15)
(-55.878058 -117.87464 4.1774036e-15)
(-53.046017 -112.3896 -2.7835923e-17)
(-49.718344 -105.64648 -1.0377001e-16)
(-45.807099 -97.682088 3.0195105e-15)
(-41.118931 -88.199514 -2.6426943e-15)
(-35.350105 -76.515155 -2.1823386e-15)
(-28.464494 -61.604151 2.2542378e-15)
(-20.955473 -42.534703 0)
(-9.9941417 -24.162543 -3.1441549e-15)
(24.81307 8.7164214 1.1552557e-15)
(47.589526 37.74356 0)
(66.52532 57.640509 0)
(84.880963 67.248857 0)
(-29.593307 -49.717035 1.6756914e-14)
(-56.684959 -93.711891 -5.7145173e-15)
(-65.4504 -105.95476 0)
(-65.068463 -107.0386 -2.8033488e-17)
(-61.44668 -103.96951 -3.0919423e-15)
(-56.479676 -98.952536 2.8300349e-15)
(-50.43067 -92.632622 2.3236007e-15)
(-43.147242 -85.035997 6.3248637e-17)
(-34.320769 -75.856449 -2.0388972e-15)
(-23.817076 -64.599565 1.0912283e-16)
(-12.03304 -49.184966 0)
(24.873862 -20.799695 -2.5404351e-15)
(62.082721 11.109852 2.1257155e-16)
(91.657107 36.382874 9.804531e-16)
(113.9521 52.92319 0)
(131.10974 60.200633 1.0880563e-16)
(-11.314292 -14.598552 7.2428631e-18)
(-41.448359 -53.625307 1.2120365e-14)
(-55.780675 -70.598539 -4.4594918e-15)
(-58.747098 -75.851958 -3.5263956e-15)
(-56.185252 -75.719241 2.9376768e-15)
(-50.731337 -72.752163 -2.5568538e-15)
(-43.279933 -68.09423 2.1837532e-15)
(-34.009352 -62.183173 1.8292016e-15)
(-22.712145 -55.01327 -1.7694997e-15)
(-12.585683 -45.76094 0)
(22.193189 -24.721684 0)
(68.060519 -1.4809424 0)
(106.8958 18.579461 1.1363649e-16)
(136.55298 33.558937 0)
(156.84001 43.255945 4.974174e-16)
(171.35316 46.423391 -8.9236992e-16)
(113.57724 130.69996 0)
(119.6663 132.3153 0)
(120.68437 130.60136 0)
(121.24208 127.62086 5.1392807e-19)
(121.78363 124.14729 -3.8383062e-18)
(122.42607 120.13965 2.364067e-18)
(123.19579 115.59466 0)
(124.10456 110.46343 -3.602027e-18)
(125.16542 104.74552 0)
(126.39079 98.478552 0)
(127.78763 91.742072 0)
(129.37363 84.646213 9.2346952e-18)
(131.21571 77.288529 0)
(133.30615 69.903582 -3.0767176e-17)
(135.26923 63.277526 0)
(128.8396 -148.52511 0)
(135.20726 -150.02028 0)
(136.02951 -148.01329 0)
(136.36566 -144.59795 2.0337797e-18)
(136.67604 -140.65909 -1.4401494e-17)
(137.08184 -136.1334 2.1254908e-17)
(137.6116 -130.97729 0)
(138.27085 -125.16427 3.9080184e-18)
(139.05905 -118.67271 0)
(139.96529 -111.53146 0)
(140.96742 -103.8118 0)
(142.05087 -95.622666 -1.0406322e-17)
(143.2659 -87.081022 0)
(144.67459 -78.400643 1.7972311e-18)
(146.13888 -70.649748 0)
(-40.438578 -51.012458 0)
(-54.702591 -67.598605 0)
(-57.745406 -72.977885 0)
(-55.114447 -72.590089 1.1592401e-17)
(-49.400371 -69.235455 -9.2195991e-17)
(-41.314479 -64.16561 1.5228357e-16)
(-30.867266 -57.853192 0)
(-16.45939 -51.184063 6.3809604e-18)
(-0.1557791 -43.701328 0)
(79.240191 -12.959863 0)
(122.17663 5.1363665 0)
(151.27082 17.288076 -4.0686851e-18)
(171.4675 25.951538 0)
(184.08823 31.860767 1.6479774e-16)
(191.49639 33.994523 0)
(-21.733193 17.100147 0)
(-8.8299086 3.4988366 0)
(-13.865678 7.7037788 0)
(-17.514123 9.7831919 1.3582206e-17)
(-21.080365 11.33956 -7.2738287e-17)
(-24.254211 11.936037 9.0008564e-17)
(-27.040701 11.529256 0)
(-29.424533 10.178927 1.8917856e-18)
(-31.250986 8.3630392 0)
(-30.564876 8.2106209 0)
(-29.742766 9.208811 0)
(35.659007 2.9490717 -4.0749851e-18)
(76.276837 1.671258 0)
(99.793328 3.5183957 4.7744385e-17)
(120.62548 10.695158 0)
(80.019189 96.69415 7.0915182e-20)
(92.144517 -112.00768 -7.3100694e-20)
(-8.3890724 -10.721832 -1.9850219e-19)
(-5.5519987 4.3893992 -5.5893986e-19)