/*--------------------------------*- C++ -*----------------------------------*\
| =========                 |                                                 |
| \\      /  F ield         | foam-extend: Open Source CFD                    |
|  \\    /   O peration     | Version:     4.1                                |
|   \\  /    A nd           | Web:         http://www.foam-extend.org         |
|    \\/     M anipulation  |                                                 |
\*---------------------------------------------------------------------------*/
FoamFile
{
    version     2.0;
    format      ascii;
    class       volScalarField;
    location    "0.6";
    object      p;
}
// * * * * * * * * * * * * * * * * * * * * * * * * * * * * * * * * * * * * * //

dimensions      [0 2 -2 0 0 0 0];

internalField   nonuniform List<scalar> 
4242
(
-0.19392837
-0.19513009
-0.19580553
-0.1955372
-0.19368394
-0.18917831
-0.1807776
-0.1673066
-0.14814309
-0.12344684
-0.094119969
-0.061612721
-0.027742841
0.0052634181
0.035619074
0.066510904
-0.37341763
-0.37306241
-0.37200999
-0.36926111
-0.36335499
-0.35251478
-0.33509078
-0.31032449
-0.27878045
-0.24225338
-0.20299247
-0.16292153
-0.12332937
-0.085257059
-0.049809781
-0.016387675
-0.54169881
-0.54107045
-0.53982968
-0.53710211
-0.53146235
-0.52099993
-0.50356836
-0.47742772
-0.44206846
-0.39876532
-0.35020129
-0.29932811
-0.24842029
-0.19897067
-0.15214176
-0.10930683
-0.68046634
-0.67934172
-0.67763559
-0.67460456
-0.66891677
-0.65876437
-0.64199563
-0.61655808
-0.58124647
-0.53643957
-0.48424586
-0.42759886
-0.36919493
-0.31122971
-0.25522383
-0.20279186
-0.76740657
-0.76590029
-0.76387395
-0.76074718
-0.75533251
-0.74597248
-0.73058383
-0.7069791
-0.67353235
-0.62997607
-0.5778146
-0.51979062
-0.45876265
-0.39708855
-0.33610122
-0.27606208
-0.79853338
-0.7968134
-0.79465866
-0.79167983
-0.78692144
-0.77899846
-0.76604386
-0.74588561
-0.71658043
-0.6772069
-0.62851516
-0.57282064
-0.51305097
-0.45181815
-0.39083844
-0.33107818
-0.77911714
-0.7773566
-0.77524882
-0.77258772
-0.76869843
-0.76256804
-0.75271514
-0.73721452
-0.71403833
-0.68172755
-0.64015684
-0.59083937
-0.53636787
-0.47941596
-0.42192991
-0.36492415
-0.72163376
-0.72000877
-0.71810695
-0.71585635
-0.71284668
-0.70845639
-0.70168838
-0.69107382
-0.67480179
-0.65116676
-0.61927642
-0.57963642
-0.5340744
-0.48496201
-0.434282
-0.38344737
-0.64338338
-0.6420514
-0.64048998
-0.63869156
-0.63644474
-0.63345264
-0.62917899
-0.6227081
-0.61271315
-0.59763242
-0.57615271
-0.54785416
-0.51354446
-0.47490325
-0.43363005
-0.39101404
-0.56249826
-0.56158817
-0.56048185
-0.55916491
-0.55752204
-0.55544035
-0.55274708
-0.54909851
-0.5438143
-0.53574034
-0.52357413
-0.50638157
-0.48399949
-0.45702603
-0.42639149
-0.39335528
-0.49562375
-0.4952851
-0.49478417
-0.49403257
-0.49291355
-0.49134603
-0.48925346
-0.48645386
-0.48263306
-0.47761365
-0.47136808
-0.4634883
-0.45254362
-0.43690977
-0.4147425
-0.38457972
-0.44920291
-0.44937591
-0.44942775
-0.44927288
-0.4488048
-0.44784897
-0.44618771
-0.44372627
-0.44079725
-0.43825696
-0.43766683
-0.44088871
-0.44300893
-0.43855235
-0.42380661
-0.39508924
0.059812174
0.060755336
0.062007017
0.064454999
0.069190238
0.077205043
0.089135124
0.10495251
0.1238222
0.14423894
0.16449178
0.18312955
0.19904678
0.21131223
0.22004061
0.22880464
0.27524722
0.27390081
0.27281237
0.27259622
0.27380552
0.27704605
0.28272734
0.29078825
0.30057876
0.31097808
0.32068637
0.32849549
0.33336699
0.33434957
0.33087695
0.32433578
0.4707485
0.46915963
0.46763818
0.46656759
0.4661736
0.46669444
0.46820414
0.47043616
0.47273485
0.47416573
0.47372737
0.47052966
0.46381516
0.45289703
0.43765804
0.42031325
0.61866655
0.61679128
0.61486122
0.61312793
0.61159152
0.61024267
0.60893624
0.60727157
0.60457122
0.59996301
0.59253159
0.58144878
0.56598151
0.54550063
0.52019611
0.49283165
0.72129535
0.71926176
0.71709146
0.71494501
0.71268608
0.7101398
0.70698153
0.70264666
0.69634823
0.68719503
0.67435557
0.65715641
0.63503722
0.60766627
0.5763122
0.5462084
-0.54233678
-0.54170646
-0.540465
-0.53773758
-0.53209753
-0.52163236
-0.50419068
-0.47802897
-0.44263399
-0.39927656
-0.35064719
-0.2997099
-0.24875369
-0.19931643
-0.15268857
-0.11023713
0.74695529
0.74506897
0.74299491
0.74083358
0.73839682
0.73544954
0.731618
0.72633585
0.71889121
0.7085357
0.69459981
0.67657044
0.65411837
0.62713062
0.59592601
0.56190305
0.74730612
0.74541009
0.74332606
0.74115507
0.73870793
0.73574798
0.73189924
0.72659272
0.71911502
0.70871929
0.69474185
0.67667792
0.65420995
0.62727038
0.59634281
0.56310739
0.72129258
0.71925359
0.71707849
0.71492808
0.71266492
0.71011267
0.70694468
0.70259412
0.69627292
0.68709185
0.67422558
0.65700892
0.63489439
0.60760805
0.57657857
0.54706385
0.61778262
0.61592301
0.61401075
0.61229575
0.61077781
0.6094462
0.60815284
0.606493
0.60378544
0.59915757
0.59170071
0.58058905
0.56503466
0.54428462
0.51878749
0.49296683
0.46957466
0.46800989
0.46651551
0.46547304
0.46510951
0.46566449
0.46721296
0.46948833
0.4718333
0.47331235
0.4729299
0.46979446
0.46304088
0.45170043
0.43606821
0.42192075
0.27506003
0.27372505
0.27265042
0.27244926
0.27367613
0.27694058
0.2826582
0.29077509
0.3006473
0.31115795
0.3210121
0.32900571
0.33407661
0.33523699
0.33206842
0.3256589
0.060511751
0.061452027
0.062700727
0.06514308
0.06986755
0.077866179
0.089777365
0.10557825
0.12443908
0.14485543
0.16511251
0.18374895
0.19962702
0.2117386
0.22014712
0.22871119
-0.44626226
-0.44643012
-0.44647552
-0.44631408
-0.44584007
-0.44488025
-0.44321727
-0.44075086
-0.4378122
-0.43529113
-0.43476394
-0.43801903
-0.44018203
-0.43552224
-0.41956063
-0.38853874
-0.49271538
-0.49237873
-0.49187907
-0.49112692
-0.49000351
-0.4884254
-0.48632094
-0.48352096
-0.47972256
-0.47475067
-0.46862222
-0.46100559
-0.45050633
-0.4355573
-0.41463009
-0.38724993
-0.55920654
-0.55829918
-0.55719477
-0.55587883
-0.55423705
-0.55215832
-0.54947247
-0.54584652
-0.5406219
-0.53267447
-0.52070917
-0.50380555
-0.48181577
-0.45535481
-0.42542417
-0.39343958
-0.64024858
-0.6389174
-0.63735605
-0.63555765
-0.63331311
-0.63033011
-0.62607996
-0.61965492
-0.60973925
-0.59478256
-0.57347897
-0.54541045
-0.51138316
-0.47307114
-0.4321759
-0.390102
-0.71877808
-0.71715293
-0.71525093
-0.7130019
-0.70999892
-0.70562556
-0.69889174
-0.68833642
-0.67215504
-0.64864423
-0.6169084
-0.57744718
-0.53208472
-0.48318919
-0.43274186
-0.38226647
-0.77680542
-0.77504392
-0.7729358
-0.77027727
-0.76639713
-0.76028743
-0.75047234
-0.73503118
-0.71193742
-0.6797287
-0.63827278
-0.58907836
-0.53474219
-0.47794278
-0.42064132
-0.36400638
-0.79694715
-0.79522547
-0.79307025
-0.79009453
-0.78534595
-0.77744322
-0.76452248
-0.74441272
-0.71516815
-0.67586148
-0.6272366
-0.57161011
-0.51192126
-0.45078752
-0.38995328
-0.33053064
-0.76664591
-0.76513753
-0.76311062
-0.75998658
-0.75457968
-0.74523423
-0.72986749
-0.70629033
-0.67287273
-0.62934187
-0.57719936
-0.51919672
-0.45820871
-0.39659698
-0.33575481
-0.2760895
-0.68049233
-0.67936566
-0.67765897
-0.6746295
-0.66894539
-0.65879851
-0.64203549
-0.61660092
-0.5812857
-0.53646471
-0.48424665
-0.42758002
-0.36917592
-0.31123931
-0.25538067
-0.2032927
-0.37439504
-0.37403867
-0.37298562
-0.37023463
-0.36432183
-0.35346634
-0.33601342
-0.31120093
-0.27959332
-0.2429882
-0.20363854
-0.1634679
-0.12378134
-0.085678554
-0.050305402
-0.016606507
-0.19462434
-0.19582611
-0.19650057
-0.19622917
-0.19436903
-0.18985096
-0.18143199
-0.16793506
-0.1487358
-0.12399155
-0.094601161
-0.062018159
-0.02808683
0.0049281307
0.035335036
0.06654911
-0.44390865
-0.44359628
-0.44322331
-0.44272366
-0.44198101
-0.44084137
-0.43908065
-0.43641074
-0.43255174
-0.42736067
-0.420925
-0.41372124
-0.4089555
-0.40629279
-0.40331872
-0.39430643
-0.44367575
-0.44312662
-0.44250193
-0.44179862
-0.44092572
-0.43978751
-0.4382913
-0.4363867
-0.43414902
-0.43187033
-0.43012996
-0.42996206
-0.43306495
-0.43971242
-0.44396731
-0.43737489
-0.43068309
-0.43005202
-0.42936366
-0.42864095
-0.42782482
-0.42689376
-0.42589413
-0.42499536
-0.4245558
-0.42514898
-0.4275051
-0.43237609
-0.44024362
-0.44999677
-0.45554935
-0.44515693
-0.38742343
-0.38726507
-0.38710075
-0.38693411
-0.3867626
-0.3866343
-0.38669729
-0.38725553
-0.38879644
-0.39193391
-0.3972376
-0.40500263
-0.41499587
-0.42558148
-0.43076132
-0.42040246
-0.31644073
-0.31721786
-0.31806176
-0.31892586
-0.31989594
-0.32111737
-0.32286492
-0.32557984
-0.32981304
-0.33605463
-0.34450625
-0.35491704
-0.3664335
-0.37679056
-0.38026823
-0.36850079
-0.26681337
-0.26856831
-0.27048287
-0.27245505
-0.27464062
-0.2772204
-0.28046895
-0.28477998
-0.29057984
-0.29815508
-0.30745528
-0.31793741
-0.32840059
-0.33651087
-0.33793228
-0.32690842
-0.26290889
-0.26471924
-0.26669215
-0.26872167
-0.27096838
-0.27362006
-0.27696214
-0.28140064
-0.28736654
-0.29513193
-0.30460275
-0.31514108
-0.32536619
-0.33281316
-0.33370753
-0.32398817
-0.30851906
-0.30938723
-0.31032892
-0.31129216
-0.31236856
-0.31370291
-0.31556253
-0.31837575
-0.32266997
-0.32890124
-0.33723043
-0.34730757
-0.3579528
-0.36651278
-0.36872927
-0.36170765
-0.37864484
-0.37856082
-0.37847658
-0.37839192
-0.37831111
-0.37828834
-0.3784772
-0.37918302
-0.38088183
-0.38415287
-0.38950466
-0.39714384
-0.4066473
-0.41591415
-0.41874553
-0.40755735
-0.42412745
-0.42353618
-0.4228915
-0.42221424
-0.42144915
-0.42058055
-0.41966404
-0.41887776
-0.41858389
-0.41934461
-0.4218488
-0.42676624
-0.43441291
-0.44322885
-0.44630527
-0.43242751
-0.44015625
-0.4395973
-0.43896431
-0.4382569
-0.4373869
-0.43626569
-0.43481431
-0.43300453
-0.43094179
-0.42895102
-0.42763513
-0.42800986
-0.43161596
-0.43842272
-0.44212842
-0.43346289
-0.44183342
-0.44149355
-0.4410934
-0.44056938
-0.43980452
-0.43864655
-0.43687724
-0.43422158
-0.43042301
-0.42536873
-0.41917292
-0.41234114
-0.40792862
-0.40538184
-0.40183367
-0.39136513
-0.079291927
-0.080093588
-0.078068552
-0.073106695
-0.064967288
-0.053201355
-0.037074344
-0.016658803
0.0071563563
0.032953998
0.059215436
0.084503498
0.10716074
0.12651222
0.14692021
-0.0800119
-0.080804515
-0.078758682
-0.073765673
-0.065589076
-0.053787938
-0.037630132
-0.01718454
0.0066655293
0.032510821
0.058832548
0.084186518
0.1069561
0.12668667
0.14686577
-0.44505523
-0.44514962
-0.4449163
-0.44418855
-0.44275967
-0.44041692
-0.43705175
-0.43290146
-0.42894229
-0.42705258
-0.42510705
-0.42124463
-0.41425188
-0.40243661
-0.37845852
-0.4475554
-0.44766607
-0.44745218
-0.44674525
-0.44533613
-0.44300674
-0.43963929
-0.43545344
-0.43139934
-0.42937454
-0.42721904
-0.42310319
-0.41608882
-0.40490155
-0.38432984
-0.075375657
-0.076092225
-0.44473136
-0.44722433
-0.080113904
0.032727732
0.28250452
0.025536664
-0.35694981
0.040855493
0.16189562
0.20739011
0.20582042
0.1544043
0.14732452
0.017824901
0.23132495
-0.015867008
0.16673066
-0.17592165
0.10010655
-0.26945481
-0.32779534
0.023647018
-0.37365213
0.23459518
0.21360497
0.2018873
0.20450226
0.043846896
0.020888039
0.021454344
0.01394746
-0.028826882
0.044902874
0.16042153
0.040904835
0.0021357737
0.22097981
0.028872372
0.01617676
0.21642334
0.096447464
0.098577775
0.093420483
0.011164988
0.20343039
-0.023900035
0.20237974
0.31027939
0.023622747
0.20159141
0.17689322
0.17687984
-0.30059746
0.41985621
0.24269515
0.1320815
-0.14304524
-0.017385408
0.12981473
0.15844944
0.2016191
0.019828864
0.021658183
0.17999467
0.1780029
0.10829878
-0.27945962
0.1132832
0.036048462
0.026444145
0.082202172
0.023926845
0.050008997
-0.15282275
0.058235299
0.01256155
0.011661771
0.21178329
-0.09006577
0.052506678
0.019400061
0.1376934
-0.11114617
-0.30129513
-0.028299241
0.020598702
0.088711288
0.036119278
0.18005713
0.005579878
-0.23310733
0.010428283
0.0061163208
0.038909909
0.32821576
0.080712758
0.20627185
0.21976088
0.0012777425
0.29734375
-0.34087082
0.22522239
0.010969655
0.029063027
0.04170775
0.014297456
0.022932094
-0.01656991
0.055937005
0.0081731774
0.097281142
-0.022887599
-0.17053816
0.24635173
0.081683235
0.092308676
0.0092163259
0.021811899
0.26076385
0.01318157
0.018762627
0.25066237
0.25276689
0.12494659
-0.20997893
0.044042955
-0.37740175
-0.34026602
0.11871945
-0.36685843
-0.17526837
0.2349742
0.11723375
0.11012209
0.027465904
0.0089074133
0.033887868
0.080662457
0.29915183
0.0058796787
-0.31663457
0.024489964
0.20900727
0.033180726
-0.33705799
-0.072746662
-0.0048125605
-0.0034622754
0.012440946
-0.12069133
0.020568288
0.17194944
0.17075519
0.025805555
0.049441613
0.25922046
0.026200051
0.19942671
-0.2869471
0.12094869
0.026858879
0.012755971
-0.3290621
-0.32596659
0.21078939
0.23683864
0.12728336
0.027344163
0.021234044
0.16181083
-0.03036496
0.016832063
-0.09588562
0.31840148
0.061040213
0.028037915
0.026750962
0.21245634
0.13018765
0.017342049
0.024292515
-0.089248439
0.16693584
-0.017274432
0.004551818
0.048573472
0.06318222
0.17497515
0.20688402
0.03110185
0.042122397
-0.0037835745
0.016718724
0.037727695
0.005164664
-0.079313439
0.10865153
0.20162329
0.027333472
0.041074832
0.15773289
0.33675505
0.16622147
0.056825947
-0.18210911
0.13926683
0.23950569
0.18304625
0.22562117
0.035113615
0.25952426
0.021175742
0.0044035707
0.026762401
0.1285483
0.15371377
0.016284402
0.010921855
0.012071065
0.20407077
0.21536063
0.10838878
0.06657364
0.073948061
0.13422157
0.011192435
0.11184749
-0.040912909
0.24207823
0.0095503902
0.04582445
0.10493003
-0.10900187
0.28071327
0.021718654
0.093414235
0.0048355881
0.044745922
0.030294566
0.20255335
0.017303297
0.015917532
0.04373607
0.0099429972
0.060323203
0.055619359
0.27283659
0.1235807
0.0042689392
0.19587673
0.026744335
0.089113651
0.17525032
0.32438746
0.019652093
0.010349288
-0.34150593
0.0056047327
0.22659928
0.05607
0.00989317
0.017852668
0.027753356
0.0019442749
0.025897747
0.027525651
0.10963831
0.030742158
0.041783909
0.017468135
0.020421368
0.099697461
0.15023163
0.10916601
0.1265534
0.22980292
-0.098986854
0.032150682
0.26284472
0.24232487
0.027830069
0.027473305
-0.15802237
0.037744552
0.038937073
-0.028655406
-0.15832195
-0.39620231
0.039770389
0.12261236
0.0597371
0.030554345
0.16653877
0.097131869
-0.023572774
0.0028883038
0.26687653
0.11365135
0.043511219
0.21005627
0.054680786
0.03439357
0.046334052
0.0086409316
0.038620649
0.28175637
0.32591067
0.11022213
0.051681571
0.13569799
0.022204001
0.2144689
-0.22467428
0.019338011
0.037647114
0.054470066
0.13035774
0.034930525
0.05262343
0.037465009
0.36034602
-0.0092206594
0.043221968
0.22264963
0.0026748496
0.014995951
0.038659483
0.12173459
0.038020643
0.026045387
0.036027598
0.0090831137
0.41808047
-0.18042016
0.15152725
0.20127552
0.0042069836
-0.018392195
0.12067433
0.017494646
0.018302142
0.038928424
0.0085767659
0.054880493
0.037348558
0.25275017
0.012115976
0.02539261
0.014047085
0.048682733
0.039296533
0.008141282
0.014155294
-0.36070877
0.088113213
0.16401908
-0.024727566
-0.043000084
0.032377572
0.030906611
-0.39276446
0.18569763
0.062381882
0.19013635
0.017216767
-0.37838578
0.29097432
0.21810438
0.057971673
-0.15403362
0.02208018
0.23337881
-0.037429251
-0.00043388138
0.33746049
0.16140407
0.16048049
0.066161481
0.006962431
0.073644821
0.0035977575
0.057493103
0.038033381
0.23667964
0.21891316
-0.22968631
0.07486519
0.1221938
-0.12854544
0.0085529063
0.15586232
-0.095298468
0.024919321
0.05805939
-0.090048451
0.031100344
0.056182066
0.019548803
0.031029429
0.053183584
0.39804137
0.050611471
0.004494988
-0.17933531
0.037638097
-0.023743539
0.19260004
-0.18758775
0.024419696
0.029091224
0.1952407
0.037241308
0.12760697
0.19849214
-0.0022402001
0.026158723
0.12939817
0.16584016
0.16840317
0.011479661
0.016700114
0.016197062
-0.031500228
0.035586297
0.021773594
0.19551394
0.2402639
0.28283228
-0.068362822
0.024381524
0.22623242
0.041301084
0.16991464
0.16671785
0.056245464
0.061189049
-0.30330978
0.15478418
0.035905728
0.01458691
0.01826499
0.10227644
-0.14503501
-0.21217737
0.10759742
0.037445677
-0.0040898652
0.04029858
0.02817027
0.003671032
0.02266799
0.20248693
0.033448145
-0.1617731
0.00012887147
0.017442716
0.056613055
0.050926723
0.13677335
0.12817343
0.014540922
0.1730182
0.1756774
0.2501704
0.050443002
0.085579903
0.15924922
0.1883874
0.19999275
0.21276983
0.22668155
-0.011367014
-0.35182234
0.032932691
0.27137767
0.027971333
0.027621116
0.057483687
0.020010676
0.023760659
0.42687518
0.034489523
0.025335053
-0.18603057
-0.010534029
0.0010741976
-0.0093103252
-0.04890813
0.040895864
0.20065341
0.19962762
-0.11505987
-0.21133947
0.0053255678
0.028456499
0.019872181
-0.043287971
-0.19456424
0.13140316
0.070515211
0.018998975
0.022679752
0.073725456
0.12711519
0.28719541
0.16430025
0.16102403
0.036130401
-0.29547914
0.016010551
0.0072151269
0.080860189
0.01529937
0.023807209
0.011247117
0.019985623
-0.20584307
-0.29220955
0.030947595
0.20324818
0.15062887
0.19914835
0.021287531
0.10715747
0.06216566
0.024168524
-0.1082442
0.029223404
-0.15781092
0.054914565
-0.22641763
0.24035683
0.16586062
-0.2093434
0.23683077
0.044370865
-0.31388422
0.23195851
0.17672732
0.17639748
0.20124658
0.18991225
-0.31372502
0.01148603
0.0043609423
0.031754099
0.008788494
-0.18443979
0.19741231
0.18904811
0.064806537
0.060493371
0.099664629
0.04224166
0.011860208
0.23052627
0.037164713
0.080934281
0.038614125
-0.3100022
0.27951015
-0.37441952
0.067169586
0.13775594
-0.37194088
-0.0044864919
0.023302591
-0.27553026
-0.075194171
-0.0085319814
0.18539145
0.18962116
0.11308284
0.032800654
-0.17238797
0.23417256
0.27494014
0.26795521
0.17419754
0.026505133
0.18765691
0.22387397
0.28174088
0.21006942
0.32467455
0.028889243
0.20090343
0.20899489
0.014917924
0.024506006
0.03515159
0.19770152
0.24014339
0.19823902
-0.18308936
0.17958758
0.027447854
0.42647313
0.2011098
0.010251507
0.41577881
0.23657836
-0.0044894685
0.06030667
-0.11687226
0.41370335
0.025923359
-0.10570105
0.2199179
0.034439426
0.31091535
0.21948683
0.22744466
0.039505557
0.0011081875
-0.11261315
0.22854575
0.42625906
0.17357273
0.038652564
0.18573368
-0.010490682
-0.36573773
0.057120776
-0.078810036
0.42444559
-0.0714117
0.010661935
0.09423832
0.284414
0.26949813
-0.22334842
-0.010237289
0.041114521
0.22227428
-0.34096713
-0.072700771
0.022934662
-0.010850434
0.17975003
0.17989657
0.025723031
-0.089145748
0.12892954
-0.21723976
0.019276751
-0.098403209
0.19695048
0.055900426
0.024515929
0.016207599
0.38104445
0.078099965
0.16438567
0.011999345
0.046276843
0.18509761
-0.014271347
0.41065925
0.031698416
0.0063062016
0.20101215
0.022007093
-0.027322421
0.019029028
-0.019316747
0.021961107
0.093001336
0.035024881
0.011354803
0.27938928
-0.37194002
0.14330228
0.17438877
0.085384647
0.25378614
0.019487317
0.28068509
-0.1387525
0.47147254
-0.14134157
0.1011396
-0.023284686
0.35551779
-0.34007392
0.0055695789
0.033622269
0.18193174
0.14461509
-0.29724769
0.18965256
0.18946361
-0.29050497
-0.16096209
0.033773516
0.036109964
0.0035710168
-0.16202136
-0.16716053
0.013833508
0.02854393
0.031877749
0.031194953
0.22940392
0.042681535
-0.2458979
0.17907429
0.10315088
0.0022981823
0.1431022
0.017311543
0.01892367
0.034228096
0.12715652
-0.20379533
0.0188275
0.28123811
-0.11976463
0.030303485
0.025262944
-0.11369765
0.19928173
0.23079902
0.0023725028
-0.017745151
0.017768028
0.23025054
0.21473854
-0.026122908
0.16219691
0.013412078
0.10171959
-0.24041555
-0.048080756
0.20391541
-0.12821102
-0.076315412
0.030808519
-0.20824263
0.20549696
0.13143353
-0.012252265
0.024028162
0.021990865
-0.019677813
0.021970281
-0.2858894
0.059745903
0.048938546
0.012752927
0.073788702
0.058868448
-0.025847768
0.10919602
0.11930086
-0.35257643
0.034606025
0.037363222
0.087711419
-0.016674595
0.29032435
0.040864297
0.17711284
0.036969034
0.17864876
-0.10931257
0.045554202
-0.14146325
-0.19512374
0.05139146
0.12347521
0.080281682
0.10190756
0.023280958
0.14525164
0.014434614
0.22194224
0.028237778
0.032330092
0.18826632
0.22428682
0.038321411
0.28004341
-0.0042861721
0.52635287
-0.031470471
-0.025321866
0.025215539
0.012734378
0.082365862
0.24405456
0.015250423
0.023464928
0.031323919
0.044424671
0.070779627
0.025926697
0.024813389
0.019603377
0.0080364296
0.27603766
0.010614192
0.21586949
0.24158518
0.22853522
0.22450136
0.20816592
0.17898654
0.0081823136
0.082469337
-0.047827585
0.022229688
0.002116779
0.14628731
0.28318749
-0.005764977
-0.062612243
0.054502027
0.23276433
0.039925977
0.23914622
0.19431784
0.095203174
0.31889742
0.14666589
0.12583166
0.0099357234
0.0090243935
0.0042000819
0.024611555
0.032140467
0.42279216
0.14162403
0.10767704
0.20287276
0.14849409
0.15268147
0.019941044
0.029306536
0.23372864
0.096037515
0.11008519
0.035412866
0.19901612
0.043248702
0.16840547
0.11828825
0.014608336
0.03217169
0.027052745
0.22027121
0.094601026
-0.024445887
0.011711521
0.045073969
-0.12348892
0.17442499
0.02635052
0.10591897
0.4072251
0.039355564
0.40464928
-0.28952265
0.051680995
0.15593187
0.032402111
0.18487027
0.027038419
0.25663964
0.04462845
0.22160311
0.026719876
-0.00057719076
-0.15704681
-0.067450489
0.17121248
0.021706712
0.015182177
0.23157512
0.069106808
0.011038243
-0.057017546
0.11596996
0.21883714
0.18804463
0.03964511
0.16172612
0.12687372
-0.063048656
0.15233759
0.51982972
-0.081366616
0.062261691
0.046631692
0.37354456
0.18237283
-0.24604504
0.074490639
0.023327864
0.10218174
0.064511733
-0.042020021
0.020421073
0.1883815
-0.038297682
0.13733827
-0.0012540139
0.046154005
0.016963927
0.02273906
0.038547363
-0.053433126
0.0077424227
0.18836419
0.033372957
0.14091775
0.11527116
0.23973036
0.20721855
0.28354276
0.22437622
-0.12569824
-0.074399188
-0.14805562
-0.011152904
0.041745977
-0.1484713
-0.080468733
0.086074379
0.089873205
0.052993089
0.2307506
-0.060623596
0.0094847962
-0.0034211251
0.12872312
-0.24275078
0.12643022
0.033459714
0.039696642
-0.15789113
0.016250473
0.030906294
0.024694304
0.14313212
0.1917385
0.17303249
0.48600216
0.04661084
0.020482154
0.13830095
0.024990476
-0.15562967
-0.089027198
-0.078010904
-0.054769564
0.069205418
0.27714221
0.35458614
-0.19262634
0.020511817
0.2441655
-0.21858386
0.024681368
0.065385193
0.015857875
-0.24904384
0.19693877
0.14879636
0.18673755
0.010555837
-0.042448751
0.014500308
0.22582791
0.31639169
0.018078615
0.16613373
0.32933667
0.13644138
0.087904881
0.024022644
0.26166038
0.0084339289
0.021367244
0.038126428
0.022674103
0.12720729
-0.36348328
0.46002546
0.018538925
-0.30329092
0.023124138
0.038598189
0.35289508
-0.076746843
-0.30225668
0.030287026
0.068639194
0.018478938
0.052855876
0.16783272
0.02237302
0.046476532
-0.15377209
0.09147264
0.21610334
0.30251139
0.0011172236
-0.18463678
0.23304026
0.14199153
0.14908532
0.025849691
-0.21702247
0.013254947
0.028456738
0.14019242
-0.0033899851
0.019902054
0.18446304
0.24140808
0.18986186
-0.071928052
0.016547259
0.075619272
-0.058420894
0.038079981
0.30672915
-0.28012676
0.0064823741
0.22963347
0.011570901
0.24315336
0.050007842
0.11040683
0.19849961
0.34876218
-0.30719932
0.055886049
0.024934326
0.033357089
0.0080415295
-0.30445995
0.015157586
0.20658778
-0.14065151
0.023467612
0.19377849
0.022433247
0.065171871
-0.16443538
-0.2079366
0.023788384
0.022372924
0.15799557
0.026915043
0.27754591
-0.13296537
-0.015627271
-0.23589427
0.019456534
-0.34745441
0.029283659
0.10251012
0.20374159
0.049837924
0.16429005
0.16555418
-0.032647932
0.021612392
-0.11961163
0.011190001
0.024076507
-0.13390834
0.056705725
0.037995673
0.024125937
0.024550597
-0.1587905
0.024911156
0.389793
-0.15408317
0.2814421
0.05217613
0.022183486
0.24689348
0.033557283
0.020249919
-0.26189523
0.037878647
0.45821497
0.14848978
-0.12586602
-0.020749388
0.20226152
-0.25876101
0.085901103
0.14806461
0.294053
0.045472423
0.064105768
0.021641145
0.25443882
0.073080295
0.022125313
0.031639715
-0.065239589
0.0020364321
0.17205747
0.037097876
0.088806652
0.15268589
0.026236508
0.063589
0.52846026
0.13881967
-0.087140484
-0.17893448
0.014684806
0.18288747
0.066637778
0.397198
0.031093323
-0.0046518658
-0.12832935
-0.0050149672
-0.14594887
-0.085944829
0.045015804
0.0022549684
0.058083922
0.018816767
0.0040272565
0.019829724
0.17794251
0.063208803
-0.14645348
0.48382434
-0.10098782
0.22361321
-0.079282604
0.21079384
0.19795695
0.027003958
0.31265377
-0.30247187
0.077065139
0.20126292
0.020991787
0.02395475
0.17057713
0.017821716
0.029048713
-0.17374076
-0.17110506
0.037480896
0.024293939
0.023380117
0.018411212
-0.0333342
0.018425804
0.025150897
-0.15114081
0.036960253
0.051304752
0.021253858
0.0013046484
0.051675743
0.093176625
0.1206713
0.025401781
0.18429472
-0.2723704
0.24662616
0.020831013
-0.34059797
0.23623551
0.053158589
-0.2699643
0.03302428
0.046135027
-0.096175208
0.2021171
0.028992173
-0.22126736
0.00057429775
0.2796487
-0.030508659
0.16340715
0.0075198293
0.10582142
-0.21640906
-0.21366678
0.021034591
-0.33554969
0.012253631
0.060794921
-0.067799272
0.21804989
0.071095028
0.023394298
0.20001724
0.033342514
-0.082028576
-0.061444016
0.040980673
0.025364562
0.077950149
0.02510244
0.035939192
0.50652094
0.029134028
0.35273255
0.054511818
0.37607292
-0.091760431
-0.19531837
0.034204004
0.18822765
0.20074322
0.26178295
-0.012883938
0.0076229165
0.26963085
0.20460181
0.017530303
-0.27455557
0.024008799
0.24832455
0.19383989
0.0050879055
0.053762547
0.024173659
-0.0088809006
0.11878714
0.1912093
-0.26494931
-0.33470705
0.15787532
-0.32586723
0.19145411
0.11829262
0.056677871
0.021291112
0.15661679
0.01258562
0.39618216
0.1311135
0.014118801
0.013232657
0.24909995
0.30857638
-0.31807689
0.10936993
-0.035655939
-0.15557271
0.46648095
0.039822326
0.15152113
0.20187569
0.031569916
0.0067901051
0.046312679
-0.40976495
0.23463545
0.0070981401
0.023800475
-0.093047973
0.18403674
0.0093840815
-0.052140003
0.030751431
0.016050507
0.02934897
0.040289009
-0.26436083
-0.10315288
0.042427777
0.0078013209
0.14734105
0.10298819
0.24505196
0.046832632
0.094123003
-0.24807475
0.0010561383
0.21634902
0.061496109
-0.097139435
0.11248417
0.0045539374
-0.32105426
0.014235782
-0.25402897
-0.14573498
0.034499887
0.21806306
0.21840407
0.025028756
-0.17178577
0.0055627089
0.016970473
-0.26155152
0.26068248
-0.38143061
0.22004631
0.26178627
0.0081114924
0.34175105
0.46604453
0.1979814
0.042516055
0.038884035
-0.21241829
0.057561052
0.27364494
0.17320803
0.06448135
0.089694837
0.32113741
0.28270218
0.015289348
0.0025990207
-0.11589434
0.038591999
0.28026235
0.15596399
0.16092186
-0.13928904
0.044680163
0.059942514
0.28722565
-0.35118327
0.022571638
0.044037609
0.071028409
0.34438914
0.010430142
0.041798217
0.04286214
0.2167136
0.041387405
0.0080103576
-0.14789079
0.017537307
0.039070266
-0.14433158
0.034576045
-0.18178951
0.032748679
-0.39550613
0.11237391
0.015857857
0.18300882
-0.15828541
0.037222347
0.0053740126
0.0098198099
0.031022112
0.050026112
0.17905152
-0.011421968
0.18249984
0.19878682
-0.1089293
-0.17620638
-0.055170718
0.0090902038
0.011971081
0.0053339775
0.046228915
0.01584291
0.18654641
0.057056771
0.017478675
0.11138628
0.2589199
0.11087166
0.31787845
0.018673028
0.024100607
-0.34692542
0.21275537
-0.35216874
0.24982985
0.011894348
-0.0043658535
0.076614071
0.10716951
0.04439455
-0.34360756
0.028437536
0.19656565
0.023072776
0.22473242
0.014271947
0.045485121
0.017276013
0.029133254
0.26599087
0.1213359
0.084340581
0.092727256
0.19370399
0.035436129
0.025883681
0.014685279
0.023300253
0.024269755
0.40294288
-0.0014078816
0.0047896309
0.011328006
0.23620516
-0.042008516
-0.0070752843
0.11554584
0.20837192
-0.35059487
0.027257123
0.017166074
0.21736724
0.028004597
0.18851786
0.022323033
-0.010117829
0.042046427
0.23070167
0.099915043
0.41544894
-0.25315653
0.050411382
0.077544203
-0.080214337
-0.079806795
0.40791184
0.22584017
-0.38892898
-0.10638983
0.02926111
0.019703624
0.25710255
0.0032101815
0.23012281
0.301691
0.0050069877
-0.048726646
0.28016069
-0.36832926
0.15761935
0.033381932
0.20535118
-0.28850794
-0.012262597
0.017144822
0.157468
0.15724689
-0.1297605
-0.13317919
0.0088215413
0.036401624
-0.17746709
-0.03731944
0.0045350211
0.021377403
-0.25014784
-0.012521297
0.019692881
-0.027247873
0.031802287
0.025202818
0.15888902
-0.045077545
-0.17721433
0.03246692
0.48152029
0.24747001
0.16201701
0.15992686
-0.012840145
0.011605954
-0.05308746
0.052017829
-0.058352883
0.19854669
0.19632259
-0.27372122
-0.081448187
0.0016088077
0.20441192
-0.10223136
-0.40130807
0.39701936
0.33517452
0.12468456
0.50939335
-0.29772063
-0.067129501
0.013297158
-0.34532142
0.46074458
0.16514463
-0.17045784
-0.071795435
0.13375809
0.0066204512
0.038826846
0.24168764
0.44047481
-0.0046048156
-0.076474097
0.058956051
0.092659441
0.10596178
0.17734913
-0.25108123
0.042190867
-0.056283623
0.16873783
0.025456523
-0.11009867
0.075237106
0.13955436
0.022205477
0.02882848
-0.11944635
0.17708906
0.13228565
-0.29676969
0.20356752
-0.31087857
-0.11742305
0.029497325
0.025127806
0.0024908183
0.24023409
0.22816277
-0.067960903
0.20260629
0.47831361
0.080322907
0.091031971
0.18398167
0.022463532
0.20871783
0.37662876
0.030593952
-0.0053821648
0.068888933
-0.22918488
-0.027462766
0.209724
0.03385671
0.0095545833
0.17913164
-0.045524436
0.077804572
0.35164581
-0.34699403
-0.010692225
0.13710564
0.080189222
0.029120244
0.016147883
0.1342271
-0.17501677
0.23539224
0.087131043
0.26473393
-0.17026603
0.022936092
0.27028432
-0.28666801
-0.34790284
0.18374266
-0.14636803
-0.42393208
-0.2260503
-0.23192361
-0.22991129
0.30424197
0.014742968
-0.098334905
0.017590638
0.010471376
0.043645317
0.10288021
0.031516189
-0.20931415
0.026121204
-0.023749347
0.066401758
0.038236144
-0.097826691
0.056728111
0.25939965
0.059689013
0.25127669
0.11510112
0.10946731
0.24538824
-0.011705175
-0.36778035
0.036956752
0.10469007
-0.17237736
0.030950672
0.062186834
0.062717341
0.029436784
0.15264099
0.14988385
0.2620392
0.020794716
-0.0037505019
0.17824389
0.044366399
0.026680604
0.019303849
-0.029441462
0.31672304
0.13591777
0.064071643
0.10408807
0.030656495
0.0071032
0.027447814
0.47651573
0.015207491
-0.42126384
-0.17964691
0.3798952
0.0090349789
0.034906536
0.13416715
0.19699324
0.30206858
0.025980373
0.056335151
-0.061391805
0.23493242
0.17054985
0.20996422
0.02010554
0.0031026248
0.24438744
0.0063936698
0.019004964
0.053965149
0.060687544
0.014063064
0.065954562
0.38758774
0.011016486
0.020567791
-0.30094459