/*--------------------------------*- C++ -*----------------------------------*\
| =========                 |                                                 |
| \\      /  F ield         | foam-extend: Open Source CFD                    |
|  \\    /   O peration     | Version:     4.1                                |
|   \\  /    A nd           | Web:         http://www.foam-extend.org         |
|    \\/     M anipulation  |                                                 |
\*---------------------------------------------------------------------------*/
FoamFile
{
    version     2.0;
    format      ascii;
    class       surfaceScalarField;
    location    "0.6";
    object      phi;
}
// * * * * * * * * * * * * * * * * * * * * * * * * * * * * * * * * * * * * * //

dimensions      [0 3 -1 0 0 0 0];

internalField   nonuniform List<scalar> 
6703
(
5.5026675e-06
7.5664567e-06
-1.3069124e-05
9.8723288e-06
2.7576673e-05
-3.1946335e-05
1.3080648e-05
5.7253163e-05
-6.0461482e-05
1.4017434e-05
9.9357636e-05
-0.00010029442
1.0632626e-05
0.00015658241
-0.0001531976
-1.4831877e-07
0.00023090178
-0.00022012083
-2.2089542e-05
0.00032273848
-0.00030079725
-5.8022088e-05
0.00042951537
-0.00039358282
-0.00010901638
0.00054704979
-0.0004960555
-0.00017388664
0.00067173791
-0.00060686765
-0.00025012232
0.00080344739
-0.00072721171
-0.00033571592
0.00094623506
-0.00086064145
-0.00043028632
0.001106416
-0.0010118456
-0.00053506902
0.001290477
-0.0011856943
-0.00065244202
0.0015049334
-0.0013875604
0.0017577892
-0.0016252663
-0.00078496495
1.6968568e-07
7.3967711e-06
6.6298891e-07
2.708337e-05
1.3899659e-06
5.6526186e-05
1.9951128e-06
9.875249e-05
1.6444676e-06
0.00015693306
-1.2629693e-06
0.00023380921
-9.2890582e-06
0.00033076457
-2.6395131e-05
0.00044662144
-5.6959109e-05
0.00057761377
-0.00010428056
0.00071905936
-0.00016921885
0.00086838568
-0.00025110863
0.0010281248
-0.00034952769
0.0012048351
-0.0004652644
0.0014062137
-0.00060023059
0.0016398996
0.0019134683
-0.00075590961
4.1329434e-07
6.9834767e-06
1.780854e-06
2.571581e-05
4.3145819e-06
5.3992458e-05
8.0669583e-06
9.5000113e-05
1.2744521e-05
0.00015225549
1.7457814e-05
0.00022909592
2.0432626e-05
0.00032778976
1.8640378e-05
0.00044841369
8.0320746e-06
0.00058822207
-1.5465999e-05
0.00074255744
-5.4445862e-05
0.00090736554
-0.00010953501
0.001083214
-0.00018050972
0.0012758098
-0.00026732545
0.0014930294
-0.00037196418
0.0017445383
0.0020387193
-0.00049721521
8.2900544e-07
6.1544713e-06
3.6526517e-06
2.2892164e-05
9.1042484e-06
4.8540862e-05
1.7732756e-05
8.6371606e-05
2.9775883e-05
0.00014021237
4.4838653e-05
0.00021403315
6.1512287e-05
0.00031111612
7.7043457e-05
0.00043288252
8.7372709e-05
0.00057789282
8.7921611e-05
0.00074200853
7.4861845e-05
0.00092042531
4.6675469e-05
0.0011114004
4.0040216e-06
0.0013184812
-5.2140607e-05
0.0015491741
-0.00012176715
0.0018141649
0.0021207043
-0.0002037522
1.1557435e-06
4.9987278e-06
5.1884965e-06
1.8859411e-05
1.3178607e-05
4.0550751e-05
2.6249633e-05
7.330058e-05
4.5326802e-05
0.0001211352
7.0755219e-05
0.00018860473
0.00010180898
0.00028006236
0.00013622251
0.00039846898
0.00017001807
0.00054409726
0.00019799526
0.00071403134
0.00021499518
0.00090342539
0.00021772703
0.0011086685
0.00020568247
0.0013305258
0.00018005506
0.0015748015
0.00014245207
0.0018517679
0.0021716377
9.1518733e-05
1.3437333e-06
3.6549945e-06
6.1280797e-06
1.4075065e-05
1.5814846e-05
3.0863984e-05
3.2091023e-05
5.7024403e-05
5.6656059e-05
9.6570162e-05
9.0816142e-05
0.00015444465
0.00013488348
0.00023599502
0.00018750732
0.00034584514
0.00024522826
0.00048637633
0.00030264761
0.00065661199
0.00035348154
0.00085259146
0.0003924146
0.0010697354
0.00041678359
0.0013061568
0.00042674363
0.0015648414
0.00042452245
0.0018539891
0.002183537
0.00041262314
1.3862537e-06
2.2687407e-06
6.4172788e-06
9.0440398e-06
1.6811519e-05
2.0469744e-05
3.4712026e-05
3.9123896e-05
6.2557535e-05
6.8724653e-05
0.00010272726
0.00011427493
0.00015688923
0.00018183305
0.00022512116
0.00027761321
0.00030510879
0.0004063887
0.00039189979
0.00056982099
0.00047860374
0.0007658875
0.00055807803
0.00099026116
0.00062499732
0.0012392375
0.0006771665
0.0015126723
0.00071555545
0.0018156001
0.0021573174
0.00074177498
1.27944e-06
9.8930068e-07
6.0193594e-06
4.3041204e-06
1.6022286e-05
1.0466818e-05
3.3692851e-05
2.1453331e-05
6.2040071e-05
4.0377434e-05
0.00010446425
7.1850754e-05
0.00016417611
0.00012212118
0.00024319028
0.00019859904
0.00034112795
0.00030845104
0.00045440483
0.00045654411
0.00057639757
0.00064389476
0.00069877178
0.00086788695
0.00081359135
0.0011244179
0.00091536354
0.0014109001
0.0010022062
0.0017287575
0.0020843441
0.0010751795
1.0397653e-06
-5.0464649e-08
4.9893132e-06
3.5457256e-07
1.3535401e-05
1.9207307e-06
2.9077871e-05
5.9108598e-06
5.4875618e-05
1.4579687e-05
9.5044863e-05
3.1681509e-05
0.00015426126
6.2904783e-05
0.0002368382
0.00011602211
0.00034517697
0.00020011226
0.00047824913
0.00032347194
0.00063097894
0.00049116495
0.00079498576
0.00070388013
0.00096045564
0.00095894806
0.0011185525
0.0012528032
0.0012635691
0.0015837409
0.0019545668
0.0013933464
6.9589863e-07
-7.4636328e-07
3.4398914e-06
-2.3894202e-06
9.5920347e-06
-4.2314127e-06
2.1245025e-05
-5.7421307e-06
4.1538685e-05
-5.7139726e-06
7.4954734e-05
-1.7345401e-06
0.00012728183
1.0577685e-05
0.0002049079
3.839604e-05
0.00031317535
9.1844812e-05
0.00045498815
0.00018165915
0.0006287086
0.0003174445
0.00082749337
0.00050509536
0.0010407601
0.00074568133
0.0012571515
0.0010364119
0.0014682394
0.0013726529
0.0017500173
0.0016727888
2.3176699e-07
-9.7813027e-07
1.2777385e-06
-3.4353917e-06
3.9109157e-06
-6.8645898e-06
9.5121818e-06
-1.1343397e-05
2.0477265e-05
-1.6679056e-05
4.081651e-05
-2.2073785e-05
7.6826201e-05
-2.5432006e-05
0.00013755834
-2.2336098e-05
0.0002340334
-4.6302501e-06
0.00037474038
4.0952171e-05
0.00056049982
0.00013168506
0.00078347162
0.00028212356
0.0010328488
0.00049630411
0.0012956645
0.00077359621
0.0015594093
0.0011089081
0.0014923516
0.001817075
9.0770636e-07
-1.8858366e-06
1.8107468e-06
-4.3384321e-06
3.0913053e-06
-8.1451484e-06
5.4490113e-06
-1.3701103e-05
1.0294396e-05
-2.1524441e-05
2.0281723e-05
-3.2061111e-05
4.0204346e-05
-4.5354629e-05
7.8173091e-05
-6.0304843e-05
0.00014659239
-7.3049548e-05
0.00026071474
-7.3170177e-05
0.00042936663
-3.6966837e-05
0.00062605742
8.5432768e-05
0.00084204916
0.00028031237
0.0010697643
0.00054588107
0.0012971556
0.0008815168
0.001278399
0.0015111082
-5.9698295e-06
-7.1811601e-06
1.315099e-05
-1.2309795e-05
-2.5844803e-05
3.2184768e-05
-2.0320983e-05
-5.2902865e-05
6.0914054e-05
-3.1092197e-05
-9.0190854e-05
0.00010096207
-4.5951934e-05
-0.00013909739
0.00015395713
-6.6530821e-05
-0.00020003907
0.00022061795
-9.4801652e-05
-0.00027203973
0.00030031056
-0.00013293804
-0.00035283833
0.00039097472
-0.00018280852
-0.00043989413
0.00048976461
-0.00024574591
-0.00053203734
0.00059497472
-0.00032260064
-0.00063057318
0.00070742791
-0.00041388159
-0.0007388563
0.00083013726
-0.00051994382
-0.00086090409
0.00096696632
-0.00064129963
-0.0010004042
0.00112176
-0.00077965368
-0.0011604492
0.0012988033
-0.0013440755
0.001506229
-0.00094180719
-1.1607603e-06
-6.0203998e-06
-5.3633418e-06
-2.1642222e-05
-1.3973281e-05
-4.4292925e-05
-2.8628362e-05
-7.5535774e-05
-5.1209288e-05
-0.00011651646
-8.3756339e-05
-0.00016749201
-0.00012832167
-0.0002274744
-0.00018675627
-0.00029440373
-0.00026051518
-0.00036613523
-0.00035070688
-0.00044184563
-0.00045849502
-0.00052278504
-0.00058561163
-0.0006117397
-0.00073463293
-0.00071188279
-0.00090891911
-0.00082611801
-0.0011121139
-0.00095725439
-0.0011088486
-0.0013473408
-1.3179834e-06
-4.7024164e-06
-6.0507535e-06
-1.6909452e-05
-1.5744142e-05
-3.4599537e-05
-3.2313226e-05
-5.896669e-05
-5.7964601e-05
-9.0865089e-05
-9.5024383e-05
-0.00013043223
-0.00014567984
-0.00017681894
-0.00021172782
-0.00022835575
-0.00029450027
-0.00028336277
-0.00039509708
-0.00034124882
-0.00051484221
-0.00040303991
-0.00065569005
-0.00047089185
-0.00082039226
-0.00054718058
-0.0010124762
-0.00063403407
-0.0012363762
-0.00073335441
-0.00084656634
-0.0014986585
-1.5384242e-06
-3.1639922e-06
-7.0559603e-06
-1.1391915e-05
-1.8294591e-05
-2.3360907e-05
-3.7328546e-05
-3.9932735e-05
-6.6450074e-05
-6.1743561e-05
-0.00010794913
-8.8933177e-05
-0.00016384435
-0.00012092372
-0.00023570119
-0.00015649891
-0.00032470097
-0.00019436299
-0.00043199347
-0.00023395632
-0.00055913793
-0.00027589546
-0.00070837232
-0.00032165746
-0.0008826584
-0.00037289451
-0.0010856327
-0.00043105978
-0.0013211703
-0.00049781683
-0.00057631738
-0.0015914192
-1.6450396e-06
-1.5189526e-06
-7.4784327e-06
-5.5585224e-06
-1.9298125e-05
-1.1541214e-05
-3.9270345e-05
-1.9960515e-05
-6.9779285e-05
-3.1234621e-05
-0.00011319741
-4.5515051e-05
-0.00017163134
-6.2489797e-05
-0.00024679426
-8.1335981e-05
-0.00034012968
-0.00010102757
-0.00045313403
-0.00012095198
-0.00058767262
-0.00014135687
-0.00074613721
-0.00016319286
-0.00093144986
-0.00018758186
-0.0011471147
-0.00021539493
-0.0013983611
-0.0002465704
-0.00027862349
-0.001696055
4.2020638e-07
6.9774366e-06
-7.397643e-06
1.8120021e-06
2.5696807e-05
-2.7088603e-05
4.3938128e-06
5.3959198e-05
-5.6541008e-05
8.2248628e-06
9.4954501e-05
-9.8785551e-05
1.3017334e-05
0.00015220512
-0.00015699759
1.7884177e-05
0.00022905666
-0.0002339235
2.1059465e-05
0.00032778879
-0.00033096408
1.9514426e-05
0.00044848764
-0.0004469426
9.1960927e-06
0.00058841121
-0.00057809288
-1.3973778e-05
0.00074289085
-0.00071972098
-5.260045e-05
0.00090785412
-0.00086922745
-0.00010731939
0.0010837545
-0.0010290356
-0.00017791594
0.0012761995
-0.0012056029
-0.00026436992
0.0014930303
-0.0014065763
-0.00036859536
0.0017439292
-0.0016397037
0.0020374918
-0.0019128335
-0.00049325367
-1.5166589e-06
-2.2936896e-09
-7.0676367e-06
-7.5445244e-09
-1.8594073e-05
-1.477786e-08
-3.8529738e-05
-2.4850143e-08
-6.9725943e-05
-3.8415869e-08
-0.00011518485
-5.6140669e-08
-0.00017759605
-7.8603481e-08
-0.000258826
-1.0602783e-07
-0.00035971557
-1.3800629e-07
-0.00048049363
-1.7391372e-07
-0.00062163615
-2.1434181e-07
-0.00078456708
-2.6193697e-07
-0.00097182903
-3.1990678e-07
-0.0011868306
-3.9333721e-07
-0.0014328877
-5.1334914e-07
-7.9786197e-07
-0.0017107133
-1.5250088e-06
1.5227151e-06
-7.1034759e-06
5.5709226e-06
-1.8682797e-05
1.1564543e-05
-3.8704031e-05
1.9996384e-05
-7.0025191e-05
3.1282744e-05
-0.00011565308
4.5571747e-05
-0.00017827825
6.2546571e-05
-0.000259763
8.137872e-05
-0.00036093695
0.00010103595
-0.00048200759
0.00012089672
-0.0006234144
0.00014119247
-0.0007865224
0.00016284607
-0.0009737746
0.00018693229
-0.0011884012
0.00021423322
-0.0014335403
0.00024462575
0.00027624292
-0.001710581
-1.6516818e-06
3.1743969e-06
-7.5074801e-06
1.1426721e-05
-1.9370554e-05
2.3427617e-05
-3.9412645e-05
4.0038475e-05
-7.0022808e-05
6.1892908e-05
-0.00011357649
8.9125427e-05
-0.00017217959
0.00012114967
-0.00024753834
0.00015673747
-0.0003410797
0.00019457731
-0.00045427062
0.00023408764
-0.00058892999
0.00027585184
-0.00074738086
0.00032129693
-0.00093245438
0.00037200582
-0.0011475427
0.00042932156
-0.0013975197
0.00049460274
0.0005702265
-0.0016915033
-1.5296256e-06
4.7040225e-06
-7.0172478e-06
1.6914343e-05
-1.8198029e-05
3.4608398e-05
-3.7139806e-05
5.8980252e-05
-6.613049e-05
9.0883592e-05
-0.00010745875
0.00013045369
-0.00016314347
0.00017683439
-0.0002347456
0.0002283396
-0.0003234269
0.00028325861
-0.00043029396
0.00034095469
-0.00055683893
0.00040239682
-0.00070521867
0.00046967667
-0.00087832353
0.00054511067
-0.0010798022
0.00063080022
-0.0013137374
0.00072853798
0.00083865434
-0.0015821653
-1.3037503e-06
6.0077728e-06
-5.9887551e-06
2.1599348e-05
-1.5589935e-05
4.4209579e-05
-3.2010843e-05
7.540116e-05
-5.7447888e-05
0.00011632064
-9.4219517e-05
0.00016722532
-0.00014450735
0.00022712222
-0.000210101
0.00029393326
-0.00029231766
0.00036547527
-0.00039223191
0.00044086894
-0.00051114191
0.00052130683
-0.00065100653
0.00060954129
-0.00081465338
0.00070875753
-0.0010057963
0.00082194319
-0.0012296483
0.00095238993
0.0011065276
-0.0014975216
-1.1578421e-06
7.1656149e-06
-5.3489853e-06
2.5790491e-05
-1.3934098e-05
5.2794692e-05
-2.8544784e-05
9.0011845e-05
-5.1054443e-05
0.0001388303
-8.349639e-05
0.00019966726
-0.00012791925
0.00027154508
-0.00018617893
0.00035219293
-0.00025975032
0.00043904666
-0.0003497869
0.00053090552
-0.00045754319
0.00062906312
-0.00058493233
0.00073693042
-0.00073489743
0.00085872262
-0.00091154334
0.00099858911
-0.00111951
0.0011603566
0.0013468163
-0.0013597987
-5.9682757e-06
1.3133891e-05
-1.2316429e-05
3.2138644e-05
-2.0344632e-05
6.0822895e-05
-3.114084e-05
0.00010080805
-4.6031899e-05
0.00015372135
-6.6646577e-05
0.00022028194
-9.4957239e-05
0.00029985574
-0.00013314395
0.00039037964
-0.00018309116
0.00048899387
-0.00024616843
0.00059398279
-0.00032328485
0.00070617954
-0.00041503041
0.00082867599
-0.00052182819
0.0009655204
-0.0006440789
0.0011208398
-0.00078278124
0.0012990589
0.0015065148
-0.00094247972
9.2322944e-07
9.8524219e-07
-1.9084716e-06
1.8529029e-06
3.4637862e-06
-4.3934596e-06
3.1768288e-06
6.9299345e-06
-8.2538604e-06
5.597132e-06
1.1471758e-05
-1.3892062e-05
1.051947e-05
1.6912634e-05
-2.1834973e-05
2.0575555e-05
2.2480512e-05
-3.2536596e-05
4.0498822e-05
2.6121799e-05
-4.6045066e-05
7.8304723e-05
2.3456913e-05
-6.1262814e-05
0.00014627346
6.3791791e-06
-7.4347919e-05
0.00025961199
-3.834727e-05
-7.4991254e-05
0.00042733375
-0.00012808342
-3.963834e-05
0.00062352682
-0.00027763117
8.1438104e-05
0.000838705
-0.00049089421
0.00027571603
0.0010648911
-0.0007670248
0.00054083873
0.0012891307
-0.0011000349
0.00087579531
-0.0014787703
0.0012679639
0.0014999371
2.2826083e-07
7.5698136e-07
1.2604269e-06
2.4316201e-06
3.8641853e-06
4.3261762e-06
9.4143647e-06
5.9215791e-06
2.0299986e-05
6.0270134e-06
4.0526826e-05
2.2536712e-06
7.6399414e-05
-9.7507881e-06
0.00013699109
-3.7134764e-05
0.00023340034
-9.0030074e-05
0.00037434396
-0.00017929089
0.00056074812
-0.00031448758
0.00078471724
-0.0005016003
0.0010355938
-0.0007417708
0.0013008346
-0.0010322656
0.0015694447
-0.001368645
-0.0017479636
0.001838638
6.9166055e-07
6.5320816e-08
3.4216736e-06
-2.9839295e-07
9.5470424e-06
-1.7991926e-06
2.115769e-05
-5.6890689e-06
4.1393903e-05
-1.42092e-05
7.4747635e-05
-3.110006e-05
0.00012704173
-6.2044882e-05
0.00020471354
-0.00011480657
0.00031316552
-0.00019848205
0.00045528826
-0.00032141363
0.00062952303
-0.00048872235
0.00082906943
-0.00070114669
0.0010433421
-0.00095604345
0.001260922
-0.0012498455
0.0014731391
-0.0015808621
-0.001951869
0.0016770445
1.0369406e-06
-9.7161983e-07
4.9771696e-06
-4.2386219e-06
1.3506505e-05
-1.0328528e-05
2.9026031e-05
-2.1208595e-05
5.480009e-05
-3.9983259e-05
9.4956689e-05
-7.1256659e-05
0.00015418757
-0.00012127576
0.00023684327
-0.00019746228
0.00034537141
-0.0003070102
0.00047878294
-0.00045482516
0.00063202087
-0.00064196028
0.00079668828
-0.0008658141
0.00096290395
-0.0011222591
0.0011216961
-0.0014086377
0.0012671315
-0.0017262975
-0.0020815427
0.0013968052
1.2780772e-06
-2.249697e-06
6.0143792e-06
-8.9749239e-06
1.6012625e-05
-2.0326773e-05
3.3680977e-05
-3.8876948e-05
6.2036271e-05
-6.8338553e-05
0.00010449314
-0.00011371353
0.00016428455
-0.00018106716
0.00024345389
-0.00027663162
0.00034165165
-0.00040520796
0.00045531353
-0.00056848704
0.00057781552
-0.00076446227
0.00070079073
-0.0009887893
0.00081622973
-0.0012376981
0.00091852464
-0.0015109326
0.0010056643
-0.0018134372
-0.0021545548
0.0010786764
1.3865867e-06
-3.6362837e-06
6.4201448e-06
-1.4008482e-05
1.6822498e-05
-3.0729126e-05
3.4742965e-05
-5.6797415e-05
6.2630806e-05
-9.6226394e-05
0.00010288101
-0.00015396374
0.00015718215
-0.0002353683
0.000225634
-0.00034508348
0.00030593997
-0.00048551393
0.00039315387
-0.00065570093
0.00048037322
-0.00085168162
0.00056041698
-0.0010688331
0.00062789471
-0.0013051759
0.00068053542
-0.0015635733
0.00071927497
-0.0018521767
-0.002181146
0.00074586616
1.3461551e-06
-4.9824388e-06
6.1403787e-06
-1.8802706e-05
1.5849837e-05
-4.0438584e-05
3.216967e-05
-7.3117248e-05
5.6810894e-05
-0.00012086762
9.109454e-05
-0.00018824738
0.00013534929
-0.00027962305
0.00018823901
-0.0003979732
0.00024631242
-0.00054358734
0.00030416798
-0.00071355649
0.00035550479
-0.00090301843
0.00039496754
-0.0011082958
0.00041983782
-0.0013300461
0.00043022813
-0.0015739637
0.00042835851
-0.0018503071
-0.0021695886
0.00041680106
1.1601272e-06
-6.1425659e-06
5.209355e-06
-2.2851933e-05
1.3234675e-05
-4.8463904e-05
2.6368599e-05
-8.6251172e-05
4.5547564e-05
-0.00014004658
7.1129167e-05
-0.00021382898
0.00010239931
-0.00031089319
0.00013710053
-0.00043267442
0.00017125623
-0.00057774303
0.00019965784
-0.0007419581
0.00021713109
-0.00092049167
0.00022034818
-0.0011115129
0.00020876126
-0.0013184592
0.00018356088
-0.0015487633
0.0001463777
-0.0018131239
-0.0021191856
9.5974733e-05
8.3487065e-07
3.6797444e-06
9.1750377e-06
1.7878367e-05
3.00369e-05
4.5264571e-05
6.2160169e-05
7.7973386e-05
8.8641566e-05
8.9574316e-05
7.6936765e-05
4.9178355e-05
6.9186413e-06
-4.8814315e-05
-0.00011800906
-0.00019970288
1.7625714e-07
-7.5739001e-06
6.914543e-07
-2.76038e-05
1.4606342e-06
-5.7310188e-05
2.133643e-06
-9.945856e-05
1.8808392e-06
-0.00015674478
-8.970093e-07
-0.00023114565
-8.7601659e-06
-0.00032310092
-2.5671114e-05
-0.00043003165
-5.6010139e-05
-0.00054775386
-0.00010307462
-0.0006726565
-0.00016772694
-0.00080457513
-0.00024928113
-0.00094748137
-0.00034733196
-0.0011075521
-0.00046274572
-0.0012911626
-0.00059756582
-0.0015048836
-0.0017568221
-0.00075357719
5.5121551e-06
-1.3086055e-05
9.9001838e-06
-3.1991829e-05
1.3141173e-05
-6.0551177e-05
1.4128342e-05
-0.00010044573
1.0812604e-05
-0.00015342905
1.1756656e-07
-0.00022045061
-2.1739228e-05
-0.00030124413
-5.7602545e-05
-0.00039416833
-0.00010854295
-0.00049681345
-0.0001733615
-0.00060783796
-0.0002495187
-0.00072841792
-0.00033498034
-0.00086201973
-0.00042938843
-0.001013144
-0.00053411554
-0.0011864355
-0.00065161296
-0.0013873862
-0.0016247114
-0.00078372369
-8.4788857e-07
-1.0435124e-06
1.891401e-06
-1.2513407e-06
-3.9556666e-06
4.3591187e-06
-9.3373405e-07
-8.520999e-06
8.2033924e-06
6.211596e-07
-1.5403189e-05
1.3848295e-05
4.1678302e-06
-2.542011e-05
2.187344e-05
1.0769297e-05
-3.9448708e-05
3.2847241e-05
2.1903954e-05
-5.8191545e-05
4.7056889e-05
3.9683887e-05
-8.1674674e-05
6.3894741e-05
6.7470695e-05
-0.00010834296
8.055615e-05
0.00011172717
-0.00013352583
8.9269359e-05
0.00018674697
-0.00014662015
7.1600349e-05
0.00033334201
-0.00012590633
-2.0688712e-05
0.00055245529
-3.5938169e-05
-0.00018317511
0.00081726845
0.00014986485
-0.00041467801
0.0010966253
0.00043538641
-0.00071474328
0.00079848498
-0.0010783657
0.001376506
4.3814067e-07
-1.4816531e-06
2.0262912e-06
-5.5438171e-06
5.3102732e-06
-1.1804981e-05
1.098922e-05
-2.1082136e-05
1.9909035e-05
-3.4339925e-05
3.3030075e-05
-5.2569747e-05
5.1366166e-05
-7.6527636e-05
7.5969061e-05
-0.00010627757
0.00010817037
-0.00014054427
0.00015058377
-0.00017593923
0.00021001152
-0.0002060479
0.00030407147
-0.00021996627
0.00046659488
-0.00019846159
0.00071515011
-9.869038e-05
0.0010352479
0.00011528861
0.00042591638
0.0014078165
5.1151347e-07
-1.9931665e-06
2.2772161e-06
-7.3095197e-06
5.7528988e-06
-1.5280664e-05
1.142091e-05
-2.6750147e-05
1.9700868e-05
-4.2619883e-05
3.082728e-05
-6.3696158e-05
4.4721732e-05
-9.0422089e-05
6.0914553e-05
-0.00012247039
7.8705444e-05
-0.00015833516
9.7814427e-05
-0.00019504821
0.00011982699
-0.00022806047
0.000150781
-0.00025092028
0.00020588398
-0.00025356456
0.00032376872
-0.00021657512
0.00052983726
-9.0779929e-05
0.00016382873
0.00079192491
1.3118887e-07
-2.1243554e-06
4.9176961e-07
-7.6701004e-06
1.0257156e-06
-1.581461e-05
1.5526989e-06
-2.727713e-05
1.6610227e-06
-4.2728207e-05
5.90867e-07
-6.2626003e-05
-2.8679123e-06
-8.6963309e-05
-1.0384279e-05
-0.00011495402
-2.3864832e-05
-0.00014485461
-4.4857988e-05
-0.00017405506
-7.3544342e-05
-0.00019937411
-0.00010738204
-0.00021708259
-0.00013893325
-0.00022201335
-0.00014963919
-0.00020586918
-8.3014257e-05
-0.00015740486
-3.187999e-05
0.00011269446
-6.2398291e-07
-1.5003725e-06
-2.8850739e-06
-5.4090094e-06
-7.5733911e-06
-1.1126292e-05
-1.573365e-05
-1.9116872e-05
-2.8701918e-05
-2.9759939e-05
-4.8143072e-05
-4.3184848e-05
-7.605846e-05
-5.9047921e-05
-0.00011464766
-7.6364819e-05
-0.0001659075
-9.3594773e-05
-0.00023090752
-0.00010905504
-0.00030893522
-0.00012134641
-0.00039675494
-0.00012926287
-0.00048768038
-0.00013108791
-0.00056990935
-0.00012364021
-0.00062605359
-0.00010126062
-5.6264122e-05
-0.00060166946
-1.4130724e-06
-8.7300051e-08
-6.5115386e-06
-3.1054327e-07
-1.70057e-05
-6.3213147e-07
-3.5046691e-05
-1.0758798e-06
-6.3145786e-05
-1.6608445e-06
-0.00010393426
-2.3963699e-06
-0.00015970686
-3.2753278e-06
-0.00023180543
-4.2662485e-06
-0.00032009839
-5.3018089e-06
-0.00042289139
-6.2620383e-06
-0.00053728044
-6.9573626e-06
-0.00065942779
-7.1155215e-06
-0.00078417146
-6.3442329e-06
-0.00090384545
-3.9662263e-06
-0.0010063689
1.2628176e-06
1.0328458e-05
-0.0010729615
-1.4586344e-06
1.3713343e-06
-6.7137805e-06
4.9446029e-06
-1.7519242e-05
1.017333e-05
-3.6077833e-05
1.7482711e-05
-6.4952054e-05
2.7213376e-05
-0.0001068112
3.9462776e-05
-0.0001639554
5.3868872e-05
-0.00023767396
6.9452314e-05
-0.00032769357
8.4717799e-05
-0.0004320545
9.8098894e-05
-0.00054744465
0.00010843279
-0.00066951136
0.00011495118
-0.00079256276
0.00011670717
-0.00090843293
0.00011190394
-0.0010053173
9.8147146e-05
7.6293976e-05
-0.0010712828
-6.9980126e-07
2.0711356e-06
-3.2279727e-06
7.4727743e-06
-8.451603e-06
1.5396961e-05
-1.7502695e-05
2.6533803e-05
-3.1805981e-05
4.1516663e-05
-5.3094968e-05
6.0751764e-05
-8.3386589e-05
8.4160493e-05
-0.00012483035
0.00011089607
-0.00017928769
0.00013917514
-0.00024757879
0.00016639
-0.00032858899
0.00018944299
-0.00041847894
0.00020484113
-0.00050979354
0.00020802178
-0.00058983742
0.00019194782
-0.00063783007
0.0001461398
3.289531e-05
-0.00059443141
6.9253966e-08
2.0018816e-06
2.1202971e-07
7.3299986e-06
3.0791539e-07
1.5301075e-05
9.9113707e-08
2.6742605e-05
-9.1362717e-07
4.2529404e-05
-3.583237e-06
6.3421373e-05
-9.2104352e-06
8.9787691e-05
-1.9539298e-05
0.00012122493
-3.6517939e-05
0.00015615378
-6.1675848e-05
0.00019154791
-9.5075097e-05
0.00022284224
-0.00013386711
0.00024363314
-0.00016986799
0.00024402266
-0.00018304886
0.00020512869
-0.00011715574
8.0246684e-05
-0.00015910072
7.4840284e-05
4.7857411e-07
1.5233075e-06
2.1239539e-06
5.6846188e-06
5.3488694e-06
1.2076159e-05
1.0579348e-05
2.1512126e-05
1.816525e-05
3.4943502e-05
2.8254024e-05
5.33326e-05
4.0654259e-05
7.7387456e-05
5.4770265e-05
0.00010710893
6.9766399e-05
0.00014115765
8.5208663e-05
0.00017610564
0.00010249052
0.00020556038
0.00012737985
0.00021874381
0.00017470084
0.00019670167
0.00028253036
9.7299162e-05
0.00047597289
-0.00011319585
-0.00041191285
0.00072878503
4.4636957e-07
1.0769379e-06
2.056964e-06
4.0740244e-06
5.3730609e-06
8.7600625e-06
1.1080102e-05
1.5805085e-05
1.9995808e-05
2.6027796e-05
3.3030869e-05
4.0297539e-05
5.1124049e-05
5.9294276e-05
7.5228716e-05
8.300426e-05
0.00010656359
0.00010982278
0.00014762363
0.00013504559
0.0002050724
0.00014811162
0.00029626073
0.00012755548
0.0004551585
3.7803906e-05
0.00069997529
-0.00014751763
0.0010181745
-0.00043139508
-0.00078678645
0.0013930481
-8.3756325e-07
1.9145012e-06
-1.1794654e-06
4.4159265e-06
-7.3630056e-07
8.3168977e-06
1.0190445e-06
1.404974e-05
4.8431078e-06
2.2203732e-05
1.1785297e-05
3.3355349e-05
2.3285941e-05
4.7793633e-05
4.1385324e-05
6.4904877e-05
6.9324469e-05
8.1883632e-05
0.00011336027
9.100979e-05
0.00018750052
7.3971369e-05
0.00033220693
-1.7150934e-05
0.00054909913
-0.00017908829
0.00081186044
-0.00041027895
0.001089854
-0.00070938862
-0.0010686187
0.0013716862
2.5707609e-07
-6.4766408e-08
6.1848881e-07
1.1321196e-06
1.6558705e-06
1.8169805e-06
8.7546852e-07
-2.3277115e-06
-9.3893415e-06
-2.2274204e-05
-4.3306372e-05
-7.5271835e-05
-0.00012159705
-0.00018645152
-0.00027495303
-0.00039370454
2.57874e-07
-6.4934506e-08
6.2075032e-07
1.1370899e-06
1.6651719e-06
1.8325123e-06
8.9894172e-07
-2.2946713e-06
-9.3435031e-06
-2.2206746e-05
-4.3196752e-05
-7.5079229e-05
-0.00012125693
-0.00018593242
-0.00027451536
-0.00039299773
2.8496494e-08
-6.029572e-09
9.1533845e-08
2.4921202e-07
6.1797174e-07
1.4367248e-06
3.1852916e-06
6.8273555e-06
1.4363068e-05
3.0381604e-05
6.4714634e-05
0.0001290018
0.00022562954
0.00035618933
0.00052259601
0.00072194129
2.6251038e-08
-5.564362e-09
8.4495075e-08
2.3168751e-07
5.8068656e-07
1.3668159e-06
3.0690759e-06
6.6589737e-06
1.4165575e-05
3.0264757e-05
6.4898269e-05
0.00012964232
0.00022677958
0.00035798265
0.00052475617
0.00072478953
0.0010371531
-0.0037632155
0.0027260624
0.007326971
-0.007668188
0.00034121703
0.0011233949
-0.003181382
0.0020579871
0.007326971
-0.0023203165
0.00028974429
0.0020305722
-0.0083019323
0.0050705396
0.0032313927
-0.0012498517
0.0044916596
-0.0032418079
0.0073743735
0.0031828784
-0.010557252
0.0076757186
0.0022500251
-0.0099257436
0.0013273146
-0.0017210191
-0.0019253316
0.0015323339
0.0035514521
0.0066070242
-0.010158476
-0.0036290949
-0.0038443453
0.0074734402
-0.0081758147
0.0037590774
0.0044167373
-0.0016005416
0.0040601805
-0.0024596389
0.0042176046
-0.00015940939
-0.0040581952
0.0076705904
-0.0078840398
0.00021344947
0.00054598819
0.0020855633
-0.0026315515
0.0014075179
-0.0019779718
0.00057045389
0.0065325231
-0.0022783104
-0.0042542127
-0.0011416353
-0.0011786812
-0.0077019273
0.0040728324
-0.0094454162
0.0095196726
-7.4256365e-05
0.00078004848
0.0085252386
-0.009305287
4.2575265e-05
-0.0056956815
0.0056531062
0.0046913362
0.0011430016
-0.0058343378
-0.004096421
-0.0061476652
0.010244086
0.0066403825
-0.002097505
-0.0045428776
0.0014098067
0.0068496621
-0.0082594687
-0.002592157
0.0058617106
-0.0032695536
0.0067578313
-0.0020664952
0.0020084848
-0.0015112252
-0.00049725964
-0.0001885447
0.0086151737
-0.008426629
0.0067781436
6.3884446e-05
-0.0068420281
0.0010613305
-0.0061442959
0.0050829654
0.0088757916
-0.0075168847
-0.0013589068
0.0078203198
-0.0082742631
0.00045394335
-0.0048093091
0.0058706396
0.0057616924
-0.0034500104
-0.002311682
-0.0089526575
0.0016950258
0.0072576316
0.0018937622
-0.0032759146
0.0013821524
0.010194687
-0.0044071779
-0.0057875091
0.0073743735
-0.0026194185
0.0059075155
-0.0032880969
0.0076757186
-0.00081482176
0.003677416
-0.0028625942
-0.0020864974
0.006885049
-0.0047985516
-0.0098399699
0.0041716982
0.0056682717
-0.0073743735
0.011094381
-0.0037200075
-0.0076757186
0.011184069
-0.0035083507
0.0038409839
-0.00094255609
-0.0028984278
-0.0037971338
0.0016936752
0.0021034586
0.0013547336
-0.0026746737
0.0013199401
0.00087493505
0.001288703
-0.0021636381
-0.0036654357
0.0062575845
-0.0025921487
0.0004986809
0.0060144925
-0.0065131734
0.00088545798
-0.001951723
0.0010662651
-0.0055849904
0.003609408
0.0019755824
-0.010554584
0.0012143275
0.0093402563
0.0089292983
-0.0034062525
-0.0055230458
0.0080605062
0.00086879212
0.0054500027
0.0043743928
-0.0098243955
0.0050827911
0.0046314602
-0.0097142513
-0.0024464259
0.0052015735
-0.0027551477
0.0005530379
-0.0044950018
0.0039419639
-0.0068071688
0.0071573882
-0.00035021933
0.0043293186
-0.0080179793
0.0036886608
0.0044872616
0.0021563319
-0.0066435935
-0.0011633326
0.0065128517
-0.0053495191
-0.0094164084
0.0073299109
-0.0026051196
0.006956213
-0.0043510933
0.0019823681
0.0022352365
-0.0048007206
0.0043096133
0.00049110736
0.004925097
0.0062904595
-0.011215557
0.0087223016
-0.0080845469
-0.00063775469
0.00055458379
-0.0029812293
0.0055559687
-0.0025747394
0.0068491144
-0.0032117997
-0.0036373147
0.0095692283
-0.0086144876
-0.00095474065
0.007976755
-0.0070319776
-0.00094477742
0.0027671788
-0.0046757943
0.0019086155
-0.0026483394
0.00092888121
0.0017194582
0.0011402
-0.0037323571
-0.010316591
0.0071365392
0.0031800519
0.0024715164
0.0051990739
0.0025378308
-0.0095646167
0.0070267859
-0.0045771149
0.0077079182
-0.0031308033
-0.0010090445
-0.0061555689
0.0071646134
0.0033317948
-0.0023157466
-0.0010160482
0.00046334426
0.0082589573
0.0055654828
0.00035734809
-0.0059228308
-0.0077456828
0.0030224874
0.0047231954
0.00055881169
0.0035930587
-0.0041518704
0.0031784543
0.0025832381
0.0044082246
0.0024684762
-0.0068767008
0.0046197067
-0.0018464332
-0.0027732735
-0.0047927292
-0.005431007
0.0030206321
-0.0018972372
-0.00068987375
-0.0019924854
0.0026823591
-0.002953432
0.0056831291
-0.0027296971
-0.0030922198
0.0080173168
-0.005865385
0.0077250174
-0.0018596324
-0.0061219875
-0.0016236953
-5.6499709e-05
0.0078768195
0.0085775653
-0.0079060741
-0.00067149123
-0.0054597832
-0.0027160315
-0.01142356
0.007521325
0.0039022351
-0.010190382
0.0072524126
0.0029379699
0.0059185525
-0.0025606977
-0.0033578548
0.0011591295
-0.0037785481
0.0019340407
-0.0055994765
-2.8005333e-05
0.0042724723
-0.004244467
0.0031698259
-0.0043331585
-0.0021973551
0.0040911173
0.0018370624
0.0046954608
0.0064970141
0.0030722142
0.0038229608
-0.0038509661
0.0030323275
0.0072495846
-0.010281912
0.010092709
-0.005748311
-0.0043443984
-0.0022577332
0.0048220161
-0.0025642829
-0.00015226017
0.0015069938
0.0020185857
-0.0011436506
0.0008752533
-0.00028930218
-0.00058595112
0.0096925286
-0.0098810733
0.00070384215
0.00062248745
-0.0013263296
-0.00017961133
-0.00042205813
-0.0077615259
0.008309702
-0.00054817616
-0.002210782
0.0016092419
0.00060154006
0.0042332708
-0.0044841616
0.00025089073
-0.0056150149
0.0051516379
0.00046337702
0.0018978946
-0.0010124367
-0.00057027902
0.0038958112
-0.0033255322
-0.004816623
0.008691728
-0.003875105
0.0035516722
0.0066430148
0.007832262
-0.0035029435
0.0034214272
0.0024971253
-0.003505344
0.0026905222
0.0065340533
-0.0075430978
-0.0035085748
0.002818701
0.0059580687
0.0026194966
0.0052587088
-0.010830778
0.0055720691
0.0030104066
0.0018906127
-0.0016008684
-0.0039241246
0.0049612778
0.0064796803
-0.0064796803
-0.0020235136
-0.0016066108
0.0071720935
0.0014971884
-0.0044784177
-0.00041209948
0.0061949023
-0.0057828029
-0.0041048546
0.0095548574
-0.0042762657
0.0093590567
0.008693874
-0.0051286091
-0.003565265
0.0042439948
0.002992035
-0.0052497682