/*--------------------------------*- C++ -*----------------------------------*\
| =========                 |                                                 |
| \\      /  F ield         | foam-extend: Open Source CFD                    |
|  \\    /   O peration     | Version:     4.1                                |
|   \\  /    A nd           | Web:         http://www.foam-extend.org         |
|    \\/     M anipulation  |                                                 |
\*---------------------------------------------------------------------------*/
FoamFile
{
    version     2.0;
    format      ascii;
    class       volVectorField;
    location    "0.6";
    object      U;
}
// * * * * * * * * * * * * * * * * * * * * * * * * * * * * * * * * * * * * * //

dimensions      [0 1 -1 0 0 0 0];

internalField   nonuniform List<vector> 
4242
(
(0.057008648 0.051836116 1.4383446e-19)
(0.17236022 0.1565409 9.8613679e-22)
(0.29772551 0.26903234 -1.6436847e-19)
(0.43008929 0.38627024 1.5060805e-19)
(0.56451238 0.50297824 2.9806838e-21)
(0.69412848 0.61142197 6.7575527e-22)
(0.81092057 0.70216675 0)
(0.9045388 0.76393979 6.9263294e-20)
(0.96985913 0.79104588 -1.1228596e-19)
(1.0080153 0.78514011 4.1678147e-20)
(1.0257623 0.75445907 -1.9971274e-20)
(1.0315711 0.70913191 1.6415081e-20)
(1.032106 0.65677807 5.6267621e-21)
(1.0316477 0.60117874 -1.2592129e-21)
(1.0330117 0.5439769 5.4591452e-21)
(1.0347603 0.49003431 0)
(0.062428314 0.04172112 0)
(0.19011299 0.12716837 -2.5658132e-21)
(0.32986053 0.22089526 3.0920759e-19)
(0.47878961 0.32084326 -2.8185787e-19)
(0.63178001 0.42330721 -5.2817374e-21)
(0.78116618 0.52258193 2.0149284e-19)
(0.91693762 0.61081523 -1.0323237e-20)
(1.0275946 0.6781977 -2.5872996e-19)
(1.1049314 0.71658528 2.4054557e-20)
(1.1478081 0.72340113 7.4488187e-20)
(1.1630805 0.70351146 0)
(1.1616645 0.66622655 -5.3969652e-21)
(1.1530597 0.62008845 -2.7152822e-21)
(1.1430324 0.57010464 -1.5429853e-20)
(1.1345121 0.51852219 1.7954967e-20)
(1.1268708 0.46861447 2.3155659e-21)
(0.065407887 0.032339354 -2.1184381e-22)
(0.1999695 0.099111873 -9.575927e-19)
(0.34832754 0.17335746 4.507508e-19)
(0.50804838 0.25393668 -3.5973469e-21)
(0.67445685 0.33849061 -3.5258791e-19)
(0.84003847 0.4230765 3.0224627e-19)
(0.99434122 0.50190343 -4.4486496e-21)
(1.1250365 0.56749051 7.1293855e-21)
(1.2211873 0.61219189 -2.2625377e-21)
(1.277805 0.63107176 -8.3124796e-21)
(1.2979912 0.62443151 7.5801598e-20)
(1.2932525 0.59885689 -5.5828251e-20)
(1.2764354 0.56237783 -7.3644999e-20)
(1.2561661 0.52070866 6.1596855e-20)
(1.2365671 0.47718334 -4.7569366e-21)
(1.2188479 0.43440477 -1.0537263e-20)
(0.063163839 0.021630483 -1.0502431e-21)
(0.19457992 0.067089428 -1.2514042e-21)
(0.34147897 0.11916478 -2.8200334e-19)
(0.50237379 0.1776376 2.6268262e-19)
(0.67361356 0.24142388 -3.7472287e-21)
(0.84857068 0.30823809 1.9533192e-19)
(1.0172293 0.37419868 -1.5178738e-19)
(1.1668367 0.43374158 -2.5264005e-19)
(1.2844426 0.480338 1.4902129e-20)
(1.3612367 0.50836834 3.1259958e-19)
(1.3964654 0.51549808 -1.1850505e-19)
(1.3986863 0.50438552 0)
(1.3810432 0.48078663 5.7989452e-21)
(1.3544705 0.44959738 -4.1844161e-20)
(1.3267411 0.41629302 2.0026865e-20)
(1.2993683 0.38346494 -3.303775e-20)
(0.055394442 0.011274214 1.0503385e-21)
(0.17272787 0.035784074 -3.3799752e-19)
(0.30682308 0.065553052 3.1915377e-19)
(0.45766255 0.10110035 -2.1314932e-21)
(0.62332478 0.14246413 5.7781011e-21)
(0.79889858 0.18893707 -1.7376421e-21)
(0.9756202 0.23858644 -1.8669476e-19)
(1.1409568 0.28790625 1.5307145e-21)
(1.2805279 0.33196686 1.122617e-19)
(1.3821126 0.365439 -8.5631398e-20)
(1.4403111 0.38438615 6.9767837e-20)
(1.4592118 0.38810876 0)
(1.4500725 0.3791818 3.6761498e-20)
(1.4254214 0.36114457 -2.5683733e-20)
(1.3953595 0.33826814 6.9659886e-21)
(1.3635014 0.31320766 0)
(0.043585441 0.0031444286 -1.4817049e-19)
(0.13826712 0.010706636 8.870022e-20)
(0.24987561 0.021671494 1.6589357e-19)
(0.38005157 0.036885566 -1.5060797e-19)
(0.52909353 0.057078961 -1.5100512e-21)
(0.6946805 0.082751192 5.8926907e-20)
(0.87048159 0.11373558 4.9853155e-20)
(1.0454251 0.14870352 -1.2518648e-21)
(1.2047466 0.18485702 -1.4617641e-21)
(1.3334533 0.21818219 -7.0790292e-20)
(1.4212856 0.24446696 7.2185618e-20)
(1.4666633 0.26080951 -2.653058e-21)
(1.4767132 0.26660222 -6.7705042e-21)
(1.4631569 0.26297204 -1.4405391e-20)
(1.4376679 0.25254391 -9.313421e-24)
(1.4071104 0.23800628 5.627981e-21)
(0.029630675 -0.0016534165 -7.1746553e-20)
(0.09655532 -0.0046271344 -8.5959684e-20)
(0.17912914 -0.0061654115 2.4318495e-19)
(0.28043169 -0.0055608495 -1.4724838e-19)
(0.40299642 -0.0019936087 6.7104725e-20)
(0.54756456 0.0055530077 6.8866334e-24)
(0.71132158 0.018066393 9.55563e-20)
(0.88626344 0.036097247 -4.2109706e-20)
(1.0589887 0.059214794 -4.8998525e-21)
(1.2131308 0.085600181 2.207007e-20)
(1.334161 0.11218866 -3.3464772e-20)
(1.414318 0.13549305 2.618094e-20)
(1.4547406 0.15270414 -7.0275524e-21)
(1.4635991 0.1622691 -2.8513839e-20)
(1.4520315 0.16429171 1.0616281e-20)
(1.4292764 0.15975113 1.30966e-20)
(0.015710461 -0.0028658705 -1.5352326e-21)
(0.054017053 -0.0091499401 3.2067847e-19)
(0.1052575 -0.015595757 -3.0104082e-19)
(0.17337074 -0.021977043 2.7095862e-19)
(0.26260498 -0.027930034 -2.4420826e-19)
(0.37657796 -0.032714811 0)
(0.51651145 -0.035149242 1.7634449e-19)
(0.67893359 -0.03367291 -1.4322303e-19)
(0.85401087 -0.026746552 -3.1986012e-21)
(1.0262876 -0.013610759 0)
(1.1786062 0.0050150636 -1.3078675e-20)
(1.2975479 0.026817149 6.5159158e-21)
(1.3773363 0.048481432 -4.2683711e-20)
(1.4202736 0.066620014 7.7661701e-20)
(1.4342706 0.078924249 -5.3234739e-20)
(1.4289852 0.08481992 -1.3933951e-20)
(0.0038932401 -0.0011187301 9.9078593e-22)
(0.016999211 -0.0044382176 -1.1826574e-21)
(0.039275066 -0.0087356426 0)
(0.07473059 -0.014354911 5.6097492e-21)
(0.12836744 -0.021662611 3.173046e-21)
(0.20575239 -0.030794168 1.9182299e-19)
(0.31172325 -0.04137399 -1.683297e-19)
(0.448041 -0.052131472 0)
(0.61053315 -0.06075223 7.1019692e-22)
(0.78760828 -0.064408193 -1.0048851e-20)
(0.96225483 -0.060947428 8.5947615e-21)
(1.1171715 -0.050040484 5.6797111e-21)
(1.23999 -0.033552567 9.7078315e-21)
(1.3258455 -0.015001145 6.0878696e-20)
(1.3769345 0.0018284341 -7.1002495e-20)
(1.4004451 0.014878535 3.7342263e-20)
(-0.0043302415 0.0022587086 0)
(-0.0096920098 0.0057020037 5.0083648e-19)
(-0.010037038 0.008293048 -9.4046035e-19)
(-0.002012988 0.0092821022 4.2587425e-19)
(0.01911965 0.0076551011 -3.181968e-21)
(0.059573335 0.0022974817 -1.0354225e-20)
(0.12608791 -0.0075684166 2.8288673e-19)
(0.22471092 -0.022097822 -2.330589e-19)
(0.35797178 -0.04015435 -1.7126527e-19)
(0.52125994 -0.058697796 1.5539442e-19)
(0.70175226 -0.073465996 0)
(0.88154035 -0.080892555 -1.046332e-19)
(1.0432417 -0.079736118 5.6389458e-20)
(1.1746092 -0.07146954 0)
(1.2703549 -0.059099916 0)
(1.3327342 -0.044169464 0)
(-0.0083023565 0.0055653394 7.3801876e-19)
(-0.023553628 0.01604203 -4.4246681e-19)
(-0.037538718 0.026415576 0)
(-0.048272264 0.035967352 -2.8273244e-21)
(-0.052655446 0.043682943 -3.3129716e-19)
(-0.045898238 0.048106542 3.0183073e-19)
(-0.020490932 0.047017383 2.4007786e-19)
(0.033475293 0.037928494 4.7922495e-21)
(0.12594617 0.01950302 -1.8222841e-19)
(0.25857215 -0.0052861232 9.13194e-21)
(0.42568041 -0.032733363 0)
(0.61325215 -0.05919661 -1.719446e-19)
(0.80166157 -0.080804637 2.1408492e-20)
(0.97225461 -0.09502579 1.0560376e-19)
(1.111944 -0.10122603 0)
(1.2182067 -0.093345221 1.4252181e-20)
(-0.0069360718 0.00635762 -1.3154778e-22)
(-0.020956669 0.019253553 8.0258506e-19)
(-0.0360768 0.03317792 -3.8029315e-19)
(-0.051644858 0.047890279 -3.4653635e-19)
(-0.066427175 0.063003052 3.0784778e-19)
(-0.07823557 0.077931282 -2.7757588e-19)
(-0.083279836 0.09182193 2.3555581e-19)
(-0.075158195 0.10325203 1.9107752e-19)
(-0.043220025 0.10917635 -1.7608079e-19)
(0.031510621 0.10244205 0)
(0.16342351 0.077923253 0)
(0.34184926 0.037981076 0)
(0.53946704 -0.0098667592 1.8179719e-20)
(0.73625488 -0.057104934 0)
(0.91403551 -0.096296853 9.0992083e-20)
(1.0634815 -0.11559155 -1.5864935e-19)
(0.052674085 -0.057818792 -4.4648508e-20)
(0.15807869 -0.17311966 -5.8027146e-22)
(0.26952645 -0.29474597 5.2998771e-20)
(0.38319495 -0.41745498 -4.8535674e-20)
(0.49377839 -0.53426699 -1.8262423e-21)
(0.59493691 -0.63692597 5.3824829e-22)
(0.68043054 -0.71695885 0)
(0.74580777 -0.76760576 -4.9457306e-20)
(0.79019519 -0.7863402 9.4976829e-20)
(0.81695341 -0.77627316 -4.0504972e-20)
(0.83227711 -0.74471996 4.3534869e-20)
(0.84241805 -0.69968953 -3.5798361e-20)
(0.85167847 -0.64709818 -6.4903373e-21)
(0.86238419 -0.59021652 9.2346502e-21)
(0.87495574 -0.53119497 2.3551823e-20)
(0.88553003 -0.47558423 0)
(0.03693363 -0.054794875 0)
(0.11133086 -0.16394075 1.8652629e-21)
(0.19184437 -0.27857514 -2.2742752e-19)
(0.27611659 -0.39390453 2.0724081e-19)
(0.36042392 -0.50311238 3.7409349e-21)
(0.44003878 -0.59773096 -1.6324264e-19)
(0.5101212 -0.66914102 -3.3569026e-21)
(0.56725049 -0.71112666 2.4235517e-19)
(0.61090698 -0.72248962 -9.3993006e-21)
(0.64375308 -0.70777916 -8.6645553e-20)
(0.67023217 -0.67499105 0)
(0.69446331 -0.6318173 9.3289622e-21)
(0.719001 -0.58332519 9.8110036e-21)
(0.74496096 -0.5319579 7.135389e-20)
(0.77239504 -0.47876836 -9.3484017e-20)
(0.79950503 -0.42537857 -1.3727125e-20)
(0.024293096 -0.048561443 5.3574727e-22)
(0.073458718 -0.1451505 8.3122961e-19)
(0.12745022 -0.24634919 -3.9105861e-19)
(0.18502369 -0.34778248 3.2096737e-21)
(0.24407877 -0.4432807 3.1285709e-19)
(0.30191088 -0.52526179 -2.6797872e-19)
(0.35570796 -0.58615126 4.1908432e-21)
(0.40347057 -0.62072389 -7.0349785e-21)
(0.44492996 -0.62835143 2.5403871e-21)
(0.48170943 -0.61339343 9.5497862e-21)
(0.51642951 -0.58296087 -1.094178e-19)
(0.55141128 -0.54368609 7.9054774e-20)
(0.58799447 -0.49990891 1.4740007e-19)
(0.62672703 -0.45384289 -1.2449858e-19)
(0.66739405 -0.40674742 1.8113292e-20)
(0.70757123 -0.3603504 5.7889257e-20)
(0.013166115 -0.037713258 9.7221109e-22)
(0.040314575 -0.11274763 1.1580873e-21)
(0.07148845 -0.19135649 2.5657672e-19)
(0.10647885 -0.27012157 -2.3922343e-19)
(0.14457965 -0.34420235 3.4987387e-21)
(0.18473667 -0.40763481 -1.8373303e-19)
(0.22570066 -0.45447341 1.4289174e-19)
(0.26645005 -0.48066324 2.5670906e-19)
(0.30670079 -0.48580139 -2.4517317e-21)
(0.34707187 -0.47339391 -3.5173498e-19)
(0.38867779 -0.44905708 1.3861303e-19)
(0.43246008 -0.41798278 0)
(0.47885751 -0.38354108 -9.6833661e-21)
(0.52791488 -0.34746579 7.8863393e-20)
(0.57887724 -0.3108481 -3.7510921e-20)
(0.62857574 -0.27500823 8.8134228e-20)
(0.0048987588 -0.02263892 -9.7237511e-22)
(0.015681446 -0.068148498 3.1783832e-19)
(0.029866627 -0.11644639 -3.0051591e-19)
(0.048035325 -0.1656321 1.9811494e-21)
(0.070559116 -0.21281011 -5.4303482e-21)
(0.097650121 -0.25414242 1.6615899e-21)
(0.12924843 -0.28547229 1.8467125e-19)
(0.16507896 -0.30357913 3.2067061e-21)
(0.20487773 -0.30759694 -1.1497485e-19)
(0.24857262 -0.29953924 9.7594272e-20)
(0.29621881 -0.28324491 -7.9445026e-20)
(0.34777048 -0.26248941 0)
(0.40302823 -0.23974206 -5.3065681e-20)
(0.46167597 -0.21612377 3.7366649e-20)
(0.52210348 -0.1921524 -1.2980227e-20)
(0.57842515 -0.16887797 0)
(0.065383379 -0.032326236 0)
(0.19991314 -0.099087736 4.8133456e-19)
(0.34826074 -0.17334348 -9.0095944e-19)
(0.50800222 -0.25396069 4.1341709e-19)
(0.67447038 -0.3385857 3.1614593e-21)
(0.84015496 -0.42327826 1.3931464e-21)
(0.99460576 -0.50225044 2.4026795e-19)
(1.1254757 -0.56801182 -2.0533537e-19)
(1.2217966 -0.61289836 -1.4412592e-19)
(1.2785307 -0.63195669 1.0629443e-19)
(1.2987714 -0.62545536 0)
(1.2938733 -0.59991353 -4.3279664e-20)
(1.2766808 -0.56336396 3.4531152e-20)
(1.2559049 -0.52154511 0)
(1.2359186 -0.47773683 0)
(1.2181442 -0.43449355 0)
(0.00081969717 -0.0077232912 1.3862952e-19)
(0.0034324386 -0.023744992 -8.3119667e-20)
(0.0088975332 -0.041476238 -1.5567983e-19)
(0.018225678 -0.060519607 1.4179502e-19)
(0.032489487 -0.080001582 1.7012625e-21)
(0.052840099 -0.098374089 -5.6087064e-20)
(0.08020581 -0.11342986 -4.8712348e-20)
(0.11495421 -0.12282806 3.2118363e-22)
(0.15669293 -0.12517956 3.912174e-22)
(0.20438469 -0.1209645 7.6164272e-20)
(0.25675314 -0.11224924 -8.1255365e-20)
(0.31265415 -0.10134123 9.2990068e-22)
(0.3711679 -0.089691629 7.0261435e-21)
(0.43147682 -0.077742322 1.9320978e-20)
(0.49257778 -0.065319467 1.3823886e-23)
(0.55274535 -0.052404913 -1.0170339e-20)
(0.00081972088 0.0076877558 6.8813943e-20)
(0.0034364051 0.023641617 8.249855e-20)
(0.0089174537 0.041304226 -2.3373305e-19)
(0.018276925 0.060281212 1.4185421e-19)
(0.032590183 0.079702689 -6.4860118e-20)
(0.053010557 0.098024209 -6.630358e-24)
(0.080466802 0.1130416 -9.4626246e-20)
(0.11532415 0.12241642 4.1223786e-20)
(0.15718405 0.12476089 4.2510229e-21)
(0.20499783 0.12055358 -2.4817447e-20)
(0.25747223 0.11185518 3.6090668e-20)
(0.31344544 0.10096693 -3.147141e-20)
(0.37198469 0.089340138 7.0251533e-21)
(0.43223727 0.077431973 3.7783682e-20)
(0.49304543 0.065136018 -1.4578524e-20)
(0.55235446 0.052652072 -2.0519026e-20)
(0.0049203625 0.02274367 1.5045888e-21)
(0.0157472 0.06844586 -3.2014906e-19)
(0.029983923 0.11692442 3.0050802e-19)
(0.048210466 0.16626281 -2.7064446e-19)
(0.070796348 0.21354686 2.4399611e-19)
(0.097951519 0.25492108 0)
(0.12961397 0.28621854 -1.7901477e-19)
(0.16550634 0.30422083 1.459278e-19)
(0.20536004 0.30807436 3.2287919e-21)
(0.24909198 0.29980432 0)
(0.29673776 0.28324922 1.4212069e-20)
(0.34823024 0.26217066 -7.2827169e-21)
(0.4033537 0.2390149 5.2216039e-20)
(0.46173355 0.21485953 -9.9967447e-20)
(0.52155107 0.19012392 6.9189666e-20)
(0.57675795 0.16574762 1.9920705e-20)
(0.013191604 0.037801573 -9.7156545e-22)
(0.040383274 0.11299755 1.1573257e-21)
(0.071582934 0.19176227 0)
(0.10657421 0.27066784 -5.184898e-21)
(0.14464521 0.34486271 -2.8425323e-21)
(0.18473769 0.40837114 -1.8349753e-19)
(0.22560042 0.45523459 1.6136302e-19)
(0.26620993 0.48138354 0)
(0.3062764 0.48640131 -1.2185936e-21)
(0.34640356 0.47378599 9.5639092e-21)
(0.38767511 0.44915567 -9.1919902e-21)
(0.4309971 0.4177105 -5.0630004e-21)
(0.47684188 0.38280625 -1.1284442e-20)
(0.52542818 0.34606949 -7.239697e-20)
(0.5759125 0.30841265 8.5329586e-20)
(0.62359023 0.27150472 -4.7147953e-20)
(0.024258303 0.048505928 0)
(0.073354753 0.14499396 -4.1584666e-19)
(0.12725954 0.24610772 7.7915602e-19)
(0.18472748 0.34748419 -3.514774e-19)
(0.24365815 0.44296293 2.8367817e-21)
(0.30134404 0.52496194 8.3096523e-21)
(0.35496391 0.58588845 -2.3739407e-19)
(0.40250066 0.62047626 1.956395e-19)
(0.44366194 0.62804328 1.4951845e-19)
(0.48004783 0.61290782 -1.3700689e-19)
(0.51425587 0.58217878 0)
(0.54859578 0.54252542 9.9670913e-20)
(0.5845333 0.49829447 -5.5104507e-20)
(0.62309 0.45158339 0)
(0.66424318 0.40379257 0)
(0.70264835 0.35851856 0)
(0.036833862 0.054652327 -4.0864523e-19)
(0.11104538 0.16353158 2.4461826e-19)
(0.19137368 0.27791319 0)
(0.27546995 0.39302386 9.9749e-22)
(0.35961881 0.50206573 1.8357804e-19)
(0.43909481 0.59658042 -1.6563614e-19)
(0.50904836 0.6679379 -1.393908e-19)
(0.56603636 0.70988433 -6.264702e-21)
(0.60951346 0.72116453 1.1037074e-19)
(0.64213394 0.70628171 -6.9583612e-21)
(0.668372 0.6732328 0)
(0.69243971 0.6297682 1.2378482e-19)
(0.71710876 0.58103709 -1.3936747e-20)
(0.74385408 0.52962819 -7.9783648e-20)
(0.77287278 0.47716036 0)
(0.80250164 0.42591486 -1.0042447e-20)
(0.052587671 0.057723006 1.0207402e-21)
(0.15782097 0.17282928 -1.0933661e-19)
(0.26909194 0.29424786 5.2071332e-20)
(0.38258636 0.41674749 5.0725973e-20)
(0.49300917 0.53336353 -4.4318115e-20)
(0.59403058 0.63585492 5.1503951e-20)
(0.67941351 0.71575628 -4.6449451e-20)
(0.7446979 0.76630029 -4.7039595e-20)
(0.78899419 0.7849371 4.1678444e-20)
(0.8156589 0.77475625 0)
(0.83092076 0.74308633 0)
(0.84111812 0.69800428 0)
(0.85069627 0.64553222 -4.605436e-21)
(0.86213925 0.58906526 0)
(0.87578978 0.53086017 -4.9804906e-20)
(0.88683981 0.47601986 9.3305853e-20)
(-0.0069585504 -0.0063829929 3.3060859e-19)
(-0.021045465 -0.019351527 1.6374007e-21)
(-0.036263988 -0.033387117 -3.7778465e-19)
(-0.051972477 -0.048261491 3.473729e-19)
(-0.06694998 -0.063598072 5.0938039e-21)
(-0.07902544 -0.078818052 4.2278144e-21)
(-0.084434782 -0.093065346 0)
(-0.076817675 -0.10491129 1.9630592e-19)
(-0.045613055 -0.11133218 -3.2920815e-19)
(0.027852851 -0.10525882 1.3607649e-19)
(0.15869745 -0.081120823 -1.1200895e-19)
(0.33692859 -0.041103306 9.1556572e-20)
(0.53457094 0.0069586698 8.4132313e-22)
(0.73127164 0.054562481 -1.5003496e-20)
(0.90882047 0.093634006 -4.5739669e-20)
(1.0600578 0.10759221 0)
(-0.0083825379 -0.0056195561 0)
(-0.02381965 -0.016217069 -3.4554237e-21)
(-0.03804222 -0.026737449 4.1245513e-19)
(-0.049081439 -0.036470253 -3.7728721e-19)
(-0.053861894 -0.044414469 -7.7803577e-21)
(-0.047628092 -0.049136865 2.8979139e-19)
(-0.022928951 -0.04844728 -1.2267584e-21)
(0.030230306 -0.039813715 -4.1160502e-19)
(0.12193197 -0.021820255 2.2866407e-20)
(0.25428875 0.0027380539 1.377075e-19)
(0.42130811 0.029916971 0)
(0.60904 0.056100152 -1.1306528e-20)
(0.79787058 0.077422258 -1.6637227e-20)
(0.96911629 0.091183147 -8.8112008e-20)
(1.1095954 0.096516378 1.186563e-19)
(1.2155022 0.090919097 1.425625e-20)
(-0.0044421252 -0.0023136623 -3.0612755e-22)
(-0.010055489 -0.0058770527 -9.9121647e-19)
(-0.010710276 -0.0086098815 4.6797825e-19)
(-0.0030649691 -0.0097663323 -3.5699601e-21)
(0.017614266 -0.0083342723 -3.7470821e-19)
(0.057553567 -0.0031941502 3.2253018e-19)
(0.12356073 0.0064507706 -4.6369936e-21)
(0.22167687 0.020734702 7.7021468e-21)
(0.35452087 0.038541337 -4.8626123e-21)
(0.51758207 0.056870053 -1.0066838e-20)
(0.69811076 0.071483883 1.1876235e-19)
(0.87821618 0.078806795 -8.4275865e-20)
(1.0404651 0.077575518 -1.4898054e-19)
(1.1725349 0.06923745 1.2466059e-19)
(1.2690801 0.05688476 -1.956152e-20)
(1.3315176 0.043930091 -5.5329513e-20)
(0.0037337092 0.0010640526 -9.864397e-22)
(0.016502428 0.0042712475 -1.177469e-21)
(0.038392529 0.008444524 -2.668301e-19)
(0.073414269 0.013927685 2.4934127e-19)
(0.12657739 0.021088425 -3.5701066e-21)
(0.20347036 0.030066269 1.9088636e-19)
(0.30897302 0.040494591 -1.4790157e-19)
(0.4449109 0.051113815 -2.6176581e-19)
(0.60718761 0.05961669 4.9439662e-21)
(0.78426945 0.063175753 3.4711934e-19)
(0.95915201 0.059632089 -1.3463388e-19)
(1.114484 0.048647344 0)
(1.2378044 0.03208559 9.2036418e-21)
(1.3241441 0.013471991 -6.7292502e-20)
(1.3756334 -0.0033802101 3.2277759e-20)
(1.3990814 -0.015441872 -6.8618621e-20)
(0.015527922 0.0028290646 9.8630842e-22)
(0.053459178 0.0090393571 -3.1705401e-19)
(0.1042861 0.015405651 2.9985078e-19)
(0.17195689 0.021702504 -2.012691e-21)
(0.26073946 0.02756789 5.5137341e-21)
(0.37428592 0.032264638 -1.6824557e-21)
(0.5138683 0.034613563 -1.8130369e-19)
(0.67607338 0.03305543 -1.5330456e-21)
(0.85111591 0.026048306 1.1062016e-19)
(1.0235542 0.012826394 -8.9577232e-20)
(1.1761958 -0.0058977719 7.2726672e-20)
(1.2955405 -0.02781178 0)
(1.3757027 -0.049590521 4.2737724e-20)
(1.4188829 -0.067828795 -3.0093125e-20)
(1.4329591 -0.080208085 1.0085499e-20)
(1.4274981 -0.085353476 0)
(0.029437423 0.0016403206 -1.4415288e-19)
(0.095977012 0.0045884147 8.6342503e-20)
(0.1781443 0.0060988408 1.6156042e-19)
(0.27903645 0.0054634613 -1.4681176e-19)
(0.40121502 0.0018611528 -1.5364686e-21)
(0.54546052 -0.0057271059 5.7563193e-20)
(0.70900441 -0.018292686 4.9045258e-20)
(0.88388333 -0.036392069 -9.7378183e-22)
(1.0567136 -0.059600758 -1.1776623e-21)
(1.2111088 -0.086103797 -7.1141748e-20)
(1.3324786 -0.112835 7.3149554e-20)
(1.4129641 -0.13629543 -2.3685078e-21)
(1.4535969 -0.15365151 -7.0052662e-21)
(1.4624702 -0.16333403 -1.505555e-20)
(1.4507492 -0.16545371 -9.2559117e-24)
(1.4278092 -0.1602567 6.2084792e-21)
(0.043406322 -0.003132909 -7.3370782e-20)
(0.13774186 -0.010674265 -8.7886613e-20)
(0.24900037 -0.021621955 2.4847813e-19)
(0.37884463 -0.036826499 -1.5030905e-19)
(0.52760341 -0.05702355 6.8479903e-20)
(0.69299149 -0.082719866 6.8528906e-24)
(0.86871168 -0.11375688 9.6615934e-20)
(1.0437119 -0.14881293 -4.2845386e-20)
(1.2032203 -0.18509269 -5.1713321e-21)
(1.3322037 -0.21857785 2.1505533e-20)
(1.4203297 -0.24504378 -3.3185012e-20)
(1.465916 -0.26156172 2.5240983e-20)
(1.4759973 -0.26748895 -6.7590432e-21)
(1.4622552 -0.26394914 -2.6936384e-20)
(1.4364492 -0.25356342 9.9459489e-21)
(1.405754 -0.23834802 1.1196244e-20)
(0.055252552 -0.011245877 -1.6169482e-21)
(0.17232141 -0.035706208 3.4016373e-19)
(0.30616298 -0.065434583 -3.1883762e-19)
(0.45678164 -0.10095732 2.8585526e-19)
(0.62228224 -0.14232139 -2.5723222e-19)
(0.79777992 -0.18882906 0)
(0.97452945 -0.23855566 1.8072232e-19)
(1.1399993 -0.28799841 -1.4700131e-19)
(1.2797858 -0.33222279 -3.0108625e-21)
(1.3816193 -0.3658858 0)
(1.4400296 -0.38502872 -1.1962096e-20)
(1.4590028 -0.38891077 5.5073309e-21)
(1.4497294 -0.38007162 -3.5378332e-20)
(1.4247407 -0.36207962 6.4383773e-20)
(1.3942667 -0.33916088 -4.1759833e-20)
(1.3623414 -0.31348039 -1.0028524e-20)
(0.063077055 -0.021600427 1.0497091e-21)
(0.19434031 -0.06701146 -1.2507645e-21)
(0.34110606 -0.11905449 0)
(0.50190442 -0.17751911 -1.4695628e-21)
(0.67310278 -0.24133052 -3.1599308e-21)
(0.84808821 -0.30821134 1.8458127e-19)
(1.0168506 -0.37428462 -1.6242766e-19)
(1.1666267 -0.43398331 0)
(1.2844364 -0.48076581 1.227537e-20)
(1.3614208 -0.5089927 8.2862856e-21)
(1.3967726 -0.51630111 7.6639571e-21)
(1.3989395 -0.50529568 -1.4033252e-20)
(1.3810273 -0.48171123 7.7679995e-21)
(1.3540265 -0.45050779 3.9516739e-20)
(1.3258538 -0.41700763 -4.1940732e-20)
(1.2984289 -0.38362568 2.1578784e-20)
(0.062469382 -0.041747287 5.5685363e-19)
(0.19024154 -0.12725727 -3.3334858e-19)
(0.33008931 -0.22106504 0)
(0.47913097 -0.321113 -1.678214e-21)
(0.63224252 -0.42369433 -2.3940282e-19)
(0.78174886 -0.52309814 2.1660085e-19)
(0.91768882 -0.61150604 1.5762722e-19)
(1.028507 -0.67906935 -8.5335512e-21)
(1.1059748 -0.71762539 -1.1052136e-19)
(1.1489212 -0.72457499 5.7005311e-21)
(1.1641569 -0.70475496 0)
(1.1625346 -0.66744243 -5.438991e-20)
(1.1535175 -0.62115405 1.8643316e-20)
(1.1429683 -0.57086995 2.5414768e-20)
(1.1340523 -0.51880178 0)
(1.1259995 -0.46839098 -1.0706794e-21)
(0.057077932 -0.051897627 -1.0084318e-21)
(0.17256816 -0.15673031 3.479814e-19)
(0.29808251 -0.26936581 -1.6472786e-19)
(0.43060092 -0.38676186 -1.4865417e-19)
(0.56517577 -0.50363608 1.3124395e-19)
(0.69492909 -0.61224407 -1.1426834e-19)
(0.81185972 -0.70315971 9.9060842e-20)
(0.90560528 -0.76508899 6.6253817e-20)
(0.97102557 -0.79232224 -5.8959556e-20)
(1.0092413 -0.7865146 0)
(1.0269658 -0.75588988 0)
(1.0325931 -0.71053523 0)
(1.0327283 -0.65800679 -2.5465738e-21)
(1.031711 -0.60205005 0)
(1.0324738 -0.54447702 -1.0970496e-20)
(1.0334216 -0.49032026 2.494928e-20)
(-0.0061289811 0.0066109033 3.2885157e-19)
(-0.019243971 0.020969941 1.5467794e-21)
(-0.034221666 0.03796004 -3.7493304e-19)
(-0.05098957 0.057795026 3.4478874e-19)
(-0.069168268 0.080511709 4.8088702e-21)
(-0.087821849 0.10574287 4.2486292e-21)
(-0.10520836 0.13246629 0)
(-0.11838172 0.15861749 1.9415766e-19)
(-0.12272733 0.18070472 -3.2445886e-19)
(-0.11123184 0.19350305 1.3442346e-19)
(-0.072282563 0.1897948 -1.0793177e-19)
(0.017851606 0.15947115 8.8679643e-20)
(0.18799617 0.09432299 6.6237267e-24)
(0.3979584 0.019072575 -1.4720025e-20)
(0.60981829 -0.054406587 -4.6326117e-20)
(0.80683954 -0.1129963 0)
(-0.0066481543 0.010118158 0)
(-0.020720118 0.031986094 -3.0559365e-21)
(-0.036478604 0.057776656 3.7078157e-19)
(-0.053763737 0.087781577 -3.3897925e-19)
(-0.072135025 0.12194052 -7.0185187e-21)
(-0.090661208 0.15956748 2.6036244e-19)
(-0.10773629 0.19896447 -8.5030775e-22)
(-0.12093084 0.2370674 -3.7108517e-19)
(-0.12694351 0.26933848 1.9825163e-20)
(-0.12157865 0.29012753 1.2560349e-19)
(-0.099318004 0.29348939 0)
(-0.052005497 0.27376193 -1.0285744e-20)
(0.032978383 0.22409904 -1.607461e-20)
(0.18587493 0.12864861 -9.4423914e-20)
(0.38436878 0.013356249 1.2577941e-19)
(0.58055059 -0.084417196 1.6374152e-20)
(-0.0077389352 0.015976883 -2.1288307e-22)
(-0.023663966 0.049453288 -7.6300459e-19)
(-0.040876401 0.087401299 3.6018319e-19)
(-0.059004352 0.12957408 -2.4406087e-21)
(-0.077434086 0.17511431 -2.8891682e-19)
(-0.095194973 0.22230447 2.4941842e-19)
(-0.11094651 0.26832492 -3.209008e-21)
(-0.12304112 0.30919426 5.3928591e-21)
(-0.12967756 0.34009375 -4.9849264e-21)
(-0.12905179 0.35615572 -7.4083267e-21)
(-0.11926622 0.35345638 1.0160943e-19)
(-0.09783872 0.32945598 -7.1843893e-20)
(-0.060804862 0.28170947 -1.4456591e-19)
(0.0020118671 0.20428246 1.2188849e-19)
(0.1299847 0.087362603 -2.1633566e-20)
(0.3003925 -0.040462437 -6.5496711e-20)
(-0.0070742571 0.020997249 -5.1083261e-22)
(-0.021412825 0.063651956 -6.1149495e-22)
(-0.036871211 0.10999643 -1.6221631e-19)
(-0.053133891 0.15893943 1.5181512e-19)
(-0.069739776 0.20865758 -1.8827525e-21)
(-0.086080046 0.25647479 1.1848799e-19)
(-0.10145915 0.2988612 -9.1926503e-20)
(-0.11515187 0.33151308 -1.6831767e-19)
(-0.12657868 0.35010829 -1.3242228e-21)
(-0.13538257 0.3513815 2.3558715e-19)
(-0.14122321 0.33402336 -9.3417298e-20)
(-0.14334075 0.29860424 0)
(-0.14018435 0.24604895 8.2049464e-21)
(-0.12814483 0.17570717 -6.566112e-20)
(-0.092379405 0.085668483 3.1542796e-20)
(0.03608973 -0.03142097 -7.8193987e-20)
(-0.0040261812 0.01952733 5.1083261e-22)
(-0.012455445 0.058600978 -1.4052737e-19)
(-0.022488188 0.1000695 1.3307861e-19)
(-0.034278378 0.142496 -1.055862e-21)
(-0.047910212 0.18371766 2.6709506e-21)
(-0.063458921 0.22079875 -6.9178725e-22)
(-0.080998677 0.25020598 -8.5817126e-20)
(-0.100634 0.26833394 -3.0843875e-21)
(-0.12248061 0.27243887 5.3710274e-20)
(-0.14647324 0.26165418 -4.9165448e-20)
(-0.17200157 0.23728712 4.0037863e-20)
(-0.19765586 0.20185362 0)
(-0.22129036 0.15749801 3.1629965e-20)
(-0.23920282 0.10523271 -2.2535237e-20)
(-0.24190882 0.046011369 9.7255624e-21)
(-0.21129589 -0.016107277 0)
(-0.00095763768 0.0098392183 -4.9723575e-20)
(-0.0037162102 0.029692364 2.9532646e-20)
(-0.0090546273 0.050959432 5.6659424e-20)
(-0.01784206 0.072897756 -5.2151001e-20)
(-0.03098417 0.094207417 -9.9149853e-22)
(-0.049448062 0.11289191 2.1070423e-20)
(-0.073996516 0.12638424 1.897716e-20)
(-0.10485964 0.13220174 2.672109e-22)
(-0.14144989 0.1291031 2.8646558e-22)
(-0.18227301 0.11796172 -3.2378444e-20)
(-0.22514275 0.10133822 3.6054446e-20)
(-0.26755792 0.081960806 5.0350529e-22)
(-0.30687654 0.061492237 -2.9437257e-21)
(-0.33977461 0.040331633 -1.0043526e-20)
(-0.36073823 0.018215985 -7.8343288e-24)
(-0.36161694 -0.0042292463 5.9141772e-21)
(-0.00085746427 -0.0081297624 -2.4294124e-20)
(-0.0034406903 -0.024593205 -2.9723706e-20)
(-0.0086647046 -0.042288226 8.3693333e-20)
(-0.017429744 -0.060598317 -5.1436184e-20)
(-0.030673872 -0.078401696 2.3725179e-20)
(-0.04939644 -0.093921611 2.4844195e-24)
(-0.074380392 -0.10482696 3.6308281e-20)
(-0.10584839 -0.10885833 -1.5476029e-20)
(-0.14316214 -0.10497441 -1.3720254e-21)
(-0.18472605 -0.094233568 1.1093011e-20)
(-0.22820886 -0.079365192 -1.5210867e-20)
(-0.2709113 -0.06323857 1.5146757e-20)
(-0.30987996 -0.047677964 -2.9052114e-21)
(-0.34148099 -0.033459747 -2.0021182e-20)
(-0.3607892 -0.021031123 7.9679471e-21)
(-0.36235691 -0.010782454 1.2304576e-20)
(-0.003871165 -0.018663142 -7.0607662e-22)
(-0.012029166 -0.055979485 1.3827799e-19)
(-0.021884884 -0.095516026 -1.2981727e-19)
(-0.033635318 -0.13585372 1.1835924e-19)
(-0.047406189 -0.17485769 -1.0694516e-19)
(-0.063311304 -0.20963101 0)
(-0.081443986 -0.23670056 8.1551517e-20)
(-0.10189692 -0.25256239 -6.6207244e-20)
(-0.12473993 -0.25463381 -2.192382e-21)
(-0.14983356 -0.24227217 0)
(-0.17649396 -0.21706505 -7.7117028e-21)
(-0.20319667 -0.18190588 4.4271251e-21)
(-0.22724434 -0.13957261 -3.1635961e-20)
(-0.24367667 -0.09213158 6.0657761e-20)
(-0.24403258 -0.041683381 -4.4693986e-20)
(-0.22105467 0.0078143275 -1.367289e-20)
(-0.0070263397 -0.020813286 4.9871667e-22)
(-0.021278533 -0.063018581 -5.9716457e-22)
(-0.036704646 -0.10875266 0)
(-0.053011021 -0.1568862 3.4299554e-21)
(-0.069760761 -0.20556375 2.1311828e-21)
(-0.086361578 -0.25204134 1.1596026e-19)
(-0.1021198 -0.29268911 -1.0173562e-19)
(-0.11634942 -0.32325321 0)
(-0.12850775 -0.33952439 -5.3006485e-22)
(-0.13824638 -0.33838876 -7.299429e-21)
(-0.14521712 -0.3187401 5.3779702e-21)
(-0.14866435 -0.28137841 5.4017207e-21)
(-0.14691879 -0.22756883 7.332574e-21)
(-0.13531345 -0.15739268 5.6932609e-20)
(-0.096650016 -0.070423062 -7.0733416e-20)
(0.029736973 0.034160155 3.8550542e-20)
(-0.0078960249 -0.016280765 0)
(-0.024113858 -0.050275669 3.7769337e-19)
(-0.041632676 -0.088636729 -7.0893617e-19)
(-0.060069344 -0.13104223 3.2135275e-19)
(-0.078797535 -0.17654933 -2.1289151e-21)
(-0.096840913 -0.22335289 -7.663768e-21)
(-0.11286877 -0.26855966 2.1515754e-19)
(-0.12526899 -0.30815834 -1.7823247e-19)
(-0.13230302 -0.33736532 -1.3411795e-19)
(-0.13225092 -0.35141383 1.2120509e-19)
(-0.12331602 -0.34652475 0)
(-0.10316368 -0.32029093 -9.2153131e-20)
(-0.068098166 -0.27033826 4.940914e-20)
(-0.008055456 -0.19109162 0)
(0.11787114 -0.075456649 0)
(0.28734984 0.043944489 0)
(-0.0069058159 -0.010509822 6.5535971e-19)
(-0.021467124 -0.033125874 -3.9258598e-19)
(-0.037705953 -0.059665447 0)
(-0.055433375 -0.090369788 -2.6315932e-21)
(-0.074174449 -0.12510801 -2.9324919e-19)
(-0.092962742 -0.16310716 2.6704202e-19)
(-0.11016786 -0.20257797 2.1266032e-19)
(-0.12336289 -0.24038559 4.9432806e-21)
(-0.12929035 -0.27197457 -1.6186206e-19)
(-0.12384552 -0.29175492 7.6881006e-21)
(-0.1016523 -0.29391654 0)
(-0.054767741 -0.27297904 -1.6401516e-19)
(0.029264725 -0.22238224 1.5022256e-20)
(0.18062954 -0.12718941 1.0556668e-19)
(0.3767892 -0.013002752 0)
(0.57254942 0.080185356 1.5235298e-20)
(-0.0062552968 -0.0067588753 1.2562752e-22)
(-0.019626 -0.021434217 7.8857201e-19)
(-0.03486638 -0.03879924 -3.7347076e-19)
(-0.051893979 -0.059066022 -3.3989315e-19)
(-0.070307653 -0.082249318 3.0203451e-19)
(-0.089148486 -0.10795035 -2.7155335e-19)
(-0.10664385 -0.1350898 2.3012652e-19)
(-0.11982501 -0.16152853 1.870181e-19)
(-0.12409066 -0.18370493 -1.7229011e-19)
(-0.1125167 -0.19637032 0)
(-0.073707555 -0.19237658 0)
(0.015441228 -0.16182789 0)
(0.18449757 -0.096193986 1.8060576e-20)