/*--------------------------------*- C++ -*----------------------------------*\
| =========                 |                                                 |
| \\      /  F ield         | foam-extend: Open Source CFD                    |
|  \\    /   O peration     | Version:     4.1                                |
|   \\  /    A nd           | Web:         http://www.foam-extend.org         |
|    \\/     M anipulation  |                                                 |
\*---------------------------------------------------------------------------*/
FoamFile
{
    version     2.0;
    format      ascii;
    class       volScalarField;
    location    "0.07";
    object      p;
}
// * * * * * * * * * * * * * * * * * * * * * * * * * * * * * * * * * * * * * //

dimensions      [0 2 -2 0 0 0 0];

internalField   nonuniform List<scalar> 
4393
(
-20.287202
-19.298527
-36.571606
-47.782391
-63.285839
-79.179467
-97.547676
-117.97002
-141.06569
-166.97521
-195.97132
-228.16311
-263.57713
-302.07426
-343.33581
-386.82547
-431.77522
-477.17999
-521.81994
-564.29506
-603.08601
-636.622
-663.369
-681.91587
-691.07896
-689.98882
-678.17956
-655.69592
-623.09314
-581.40584
-532.15266
-477.18876
-418.56133
-358.31784
-298.32514
-240.19297
-185.15901
-134.13273
-87.671269
-46.068736
-9.3847636
22.474925
49.719923
72.623013
91.485533
106.67518
118.53018
126.53913
138.15652
-17.847655
-19.005704
-35.78367
-47.092912
-62.448157
-78.25933
-96.523674
-116.86077
-139.88436
-165.74829
-194.7343
-226.96492
-262.48019
-301.15455
-342.68043
-386.52805
-431.92938
-477.87044
-523.1149
-566.23808
-605.69064
-639.8665
-667.19451
-686.22407
-695.73532
-694.82746
-683.03101
-660.33519
-627.27037
-584.92668
-534.8699
-479.02059
-419.50046
-358.42774
-297.7155
-239.00918
-183.55022
-132.24544
-85.630699
-43.979045
-7.3243089
24.448924
51.567963
74.314983
92.995417
107.92955
119.40038
127.58531
133.07711
-17.166162
-18.812598
-35.103784
-46.219677
-61.193072
-76.660385
-94.551765
-114.53785
-137.23873
-162.83777
-191.64255
-223.80791
-259.40621
-298.34302
-340.33559
-384.86811
-431.1719
-478.21271
-524.71804
-569.20972
-610.0741
-645.62951
-674.22489
-694.32258
-704.61991
-704.1352
-692.33798
-669.20456
-635.27509
-591.66539
-540.03781
-482.44181
-421.15413
-358.44019
-296.30532
-236.4683
-180.17413
-128.32329
-81.405431
-39.649598
-3.03483
28.600198
55.525108
78.053612
96.519372
111.24276
122.4732
130.7566
134.94549
-15.521171
-17.712138
-33.182115
-44.094197
-58.656088
-73.81982
-91.394341
-111.11121
-133.58852
-159.04308
-187.81202
-220.09075
-255.99429
-295.47126
-338.27492
-383.91102
-431.61203
-480.3149
-528.69559
-575.1979
-618.11556
-655.65741
-686.05907
-707.65833
-719.03694
-719.1016
-707.23697
-683.36104
-648.01239
-602.37243
-548.25329
-487.90584
-423.85135
-358.59007
-294.26335
-232.70587
-175.15787
-122.50893
-75.171345
-33.306273
3.1919938
34.552071
61.103706
83.201437
101.2066
115.43892
126.12951
133.87307
137.03856
-15.05822
-17.386064
-32.102795
-42.517571
-56.341602
-70.79706
-87.611881
-106.59466
-128.38147
-153.24519
-181.57708
-213.64073
-249.62215
-289.54042
-333.20798
-380.16712
-429.65639
-480.57229
-531.51859
-580.82778
-626.66343
-667.07881
-700.14951
-724.03074
-737.13339
-738.19477
-726.46961
-701.78153
-664.65489
-616.3442
-558.87676
-494.79159
-426.96912
-358.25846
-290.97903
-227.13539
-167.94053
-114.26769
-66.408649
-24.428551
11.900892
42.902735
68.993394
90.589134
108.09752
121.85814
132.10937
139.44573
142.03053
-13.067709
-15.395529
-28.893374
-38.781607
-51.902843
-65.79631
-82.049624
-100.54324
-121.91676
-146.49495
-174.72086
-206.92904
-243.38335
-284.18416
-329.21546
-378.06557
-429.98408
-483.81448
-538.07101
-590.94362
-640.43442
-684.40087
-720.72486
-747.33268
-762.42957
-764.54609
-752.77223
-726.81293
-687.17309
-635.18913
-573.17254
-504.04209
-431.17257
-357.908
-286.77174
-220.0079
-158.75204
-103.85453
-55.424787
-13.400075
22.615329
53.065711
78.479407
99.350625
116.14718
129.24656
138.91934
145.77804
148.10182
-12.836462
-15.121331
-27.677544
-36.78814
-48.835777
-61.646583
-76.725538
-94.045413
-114.27572
-137.82201
-165.21369
-196.89726
-233.26023
-274.53198
-320.71247
-371.46889
-426.08217
-483.3288
-541.61191
-598.93509
-653.09811
-701.70747
-742.40719
-772.81959
-790.87794
-794.82236
-783.50238
-756.39958
-713.95001
-657.56098
-589.93074
-514.48537
-435.28746
-356.39472
-280.536
-210.29982
-146.65173
-90.417828
-41.43797
0.51172885
36.048342
65.764108
90.325493
110.31802
126.27834
138.62487
147.65727
153.97168
155.99742
-10.057431
-12.064939
-22.891453
-31.133824
-42.129399
-54.060232
-68.265392
-84.800673
-104.34494
-127.37456
-154.49616
-186.26399
-223.18981
-265.6393
-313.74081
-367.25027
-425.49182
-487.14709
-550.48668
-613.27997
-673.09016
-727.21714
-773.0385
-807.79869
-829.12164
-834.91379
-823.7462
-794.84645
-748.57442
-686.37007
-611.42276
-527.78462
-440.44005
-354.47334
-272.74855
-198.35727
-131.92396
-74.256327
-24.793571
16.887845
51.697825
80.407018
103.85238
122.7276
137.6537
149.10361
157.42094
163.19867
165.04964
-10.173939
-12.097512
-21.881639
-29.141439
-38.777397
-49.275731
-61.884047
-76.756491
-94.6061
-116.00896
-141.69044
-172.3694
-208.75406
-251.43087
-300.74491
-356.61269
-418.46465
-484.86352
-553.92806
-623.12361
-689.73477
-750.6801
-803.05486
-843.62167
-869.63353
-878.54957
-868.54518
-838.35173
-788.11539
-719.20959
-635.50084
-541.85454
-444.53441
-350.16906
-261.55924
-182.5636
-113.16907
-54.198009
-4.5033963
36.567514
70.299611
97.662805
119.69075
137.18996
150.86836
161.24974
168.71647
173.84571
175.45641
-6.372554
-7.7818391
-15.218979
-21.208289
-29.349196
-38.54398
-49.841208
-63.490948
-80.221927
-100.70252
-125.76661
-156.2888
-193.16672
-237.20737
-288.98114
-348.56625
-415.53012
-488.23437
-564.6172
-641.75102
-716.61708
-785.66591
-845.72364
-892.9158
-924.07419
-936.14699
-926.88435
-894.46608
-838.85098
-761.17015
-666.15395
-559.59736
-449.46786
-344.75758
-247.7269
-163.45304
-90.775138
-30.610906
19.052402
59.123881
91.377255
117.00591
137.27628
153.11598
165.32784
174.48776
181.01686
185.46955
186.87293
-6.9872762
-8.3715322
-14.789419
-19.705625
-26.30567
-33.804546
-43.136622
-54.639382
-69.061007
-87.170095
-109.93883
-138.45873
-173.91638
-217.47979
-270.11773
-332.2231
-403.68905
-482.61392
-566.75681
-652.66239
-736.97563
-815.53754
-884.99226
-940.64624
-978.92215
-996.16688
-989.58789
-956.25158
-895.56442
-808.00876
-699.57865
-577.24336
-451.35315
-334.71519
-228.04207
-138.40235
-62.615272
-1.869039
47.112958
85.486425
115.64016
138.9889
157.05368
170.87139
181.33274
189.05332
194.48395
198.1437
199.28613
-2.0931249
-2.7037424
-6.0871941
-9.240738
-13.774569
-19.37998
-26.755704
-36.346787
-48.924197
-65.374577
-86.820339
-114.57698
-150.11878
-194.97185
-250.50844
-317.39813
-395.95818
-483.75472
-578.32272
-675.47412
-771.55173
-861.63355
-942.41297
-1008.0034
-1054.3227
-1076.9583
-1072.5663
-1036.942
-969.20753
-868.63245
-742.89487
-600.04873
-453.54379
-322.47172
-203.97291
-108.51853
-29.467498
31.36072
79.09648
115.09964
142.5523
163.08671
178.51335
189.96838
198.42669
204.53148
208.75329
211.5604
212.43941
-3.2574895
-3.9760419
-6.4901323
-8.6289741
-11.610982
-15.433454
-20.641884
-27.732308
-37.447432
-50.733933
-68.829417
-93.285853
-125.95202
-168.90309
-224.22942
-293.1768
-377.059
-472.70847
-577.53955
-686.34577
-795.21266
-898.06757
-992.04963
-1069.5505
-1126.2208
-1157.0832
-1158.4939
-1123.7048
-1050.5769
-935.67722
-789.3726
-621.00462
-448.33896
-301.33173
-169.54554
-69.23128
12.150529
71.516693
116.68455
149.07123
172.83372
189.75658
201.94161
210.57894
216.70115
220.9505
223.79807
225.64151
226.21344
2.5353487
2.8596313
4.0386041
4.2285934
4.0132801
2.883449
0.56991029
-3.5297941
-10.180946
-20.472334
-35.844679
-58.175394
-89.760195
-133.27595
-191.58516
-266.35389
-360.27254
-468.54842
-588.39012
-713.00268
-838.42792
-957.05064
-1067.604
-1159.8812
-1229.1293
-1269.3409
-1276.4205
-1240.2648
-1158.9027
-1024.6833
-851.94575
-650.10123
-442.00128
-276.55646
-128.15979
-23.342361
60.22912
116.98258
158.62744
186.38511
205.6545
218.30254
226.74802
232.19661
235.72027
237.9351
239.29517
240.10804
240.35974
1.0260606
1.0797265
2.9226996
3.9239495
5.0677788
5.5513481
5.3085827
3.7443993
0.20761069
-6.3485318
-17.369517
-34.88637
-61.557139
-100.76733
-156.61421
-231.62748
-331.64249
-449.52796
-582.76786
-722.36329
-864.83027
-999.84269
-1129.1499
-1237.8142
-1321.1298
-1373.2029
-1392.0428
-1361.8006
-1278.1048
-1123.5623
-919.12839
-674.11937
-418.11916
-234.46985
-67.836985
37.791962
120.97837
171.80265
207.48518
228.55672
241.8663
249.16067
253.12057
254.86306
255.43922
255.38691
255.1099
254.79804
254.69483
7.1214987
8.4154348
14.382924
18.241958
22.882818
27.010102
30.89145
33.869943
35.314797
34.05461
28.411829
15.907661
-6.809881
-44.17662
-101.94161
-183.06508
-298.11368
-434.6798
-590.39267
-752.38812
-918.25665
-1073.2888
-1226.6073
-1356.6743
-1459.2047
-1527.9597
-1561.6316
-1533.4663
-1442.5091
-1258.4101
-1014.2082
-712.92039
-389.04509
-187.87424
2.5583857
106.56657
188.93811
231.83558
260.29822
273.43651
279.91828
281.19188
280.20812
277.92691
275.34708
272.89433
270.90054
269.4186
268.95148
5.8616233
6.7749155
13.320454
17.73922
23.419957
28.762988
34.280307
39.370593
43.610291
46.015055
45.116743
38.545892
22.87644
-6.8846706
-58.408652
-134.97632
-257.3903
-405.45223
-578.5593
-758.43281
-946.48276
-1120.3394
-1302.3976
-1455.8764
-1575.9992
-1657.4241
-1712.165
-1701.6696
-1623.3352
-1412.917
-1120.4426
-742.12847
-316.97099
-106.12267
108.87773
200.84981
276.11381
304.49978
321.43487
323.44308
321.04821
314.95498
308.192
301.37047
295.32464
290.28848
286.47324
283.76213
282.90859
11.202394
13.330579
23.906381
31.420058
41.07176
50.866862
61.745529
73.183005
84.94293
96.095621
105.09524
109.15095
103.93582
82.742741
33.968838
-45.137243
-192.37251
-369.90757
-578.88587
-791.53248
-1014.605
-1209.9622
-1426.4366
-1608.4083
-1752.6847
-1863.6813
-1961.3599
-1964.8373
-1887.0004
-1624.3936
-1275.5246
-802.2539
-228.30579
-24.60306
225.93984
299.43026
367.89218
379.4727
384.05866
374.04227
362.28494
348.48254
335.74847
324.27916
314.71787
307.08158
301.44528
297.5121
296.2791
11.186671
12.967167
24.410396
32.401426
42.90881
53.565551
65.567927
78.428792
92.136593
106.02141
118.93945
128.56565
131.14232
120.4084
82.087574
19.094566
-139.99119
-331.62319
-563.89566
-793.34944
-1043.2113
-1249.5195
-1517.6624
-1739.2363
-1909.5403
-2020.7682
-2144.2228
-2182.2978
-2167.9685
-1888.8776
-1472.7582
-854.35481
-28.580394
136.32781
413.93533
443.23396
489.1787
471.63155
456.31528
429.59605
405.76058
382.73045
363.20657
346.67563
333.40413
323.08883
315.60677
310.44918
308.83182
14.421705
16.992538
31.541322
42.204895
56.4121
71.557425
89.382937
109.72615
133.12817
159.49852
188.3179
217.62345
243.4344
258.06135
237.97642
192.56345
-13.19406
-255.79886
-548.33458
-827.59599
-1138.7466
-1361.9449
-1680.883
-1939.1286
-2103.8804
-2250.5178
-2514.5752
-2616.4484
-2644.3301
-2224.187
-1738.4086
-975.60805
215.83527
259.51726
596.32185
571.42183
602.09699
556.31397
523.34925
481.05791
446.06707
414.42374
388.55818
367.29356
350.55489
337.74041
328.54025
322.24575
320.27649
16.842626
19.191294
35.47629
46.941957
62.340735
78.556553
97.600895
119.25919
144.19274
172.42672
203.71468
236.50568
267.64062
291.70458
279.33824
275.99687
40.14985
-221.25576
-552.2679
-833.44398
-1175.7149
-1339.7184
-1775.5017
-2100.0991
-2354.2437
-2481.1666
-2717.5998
-2833.0605
-3026.2732
-2734.9053
-2206.9758
-1151.0606
759.15704
610.5485
923.3448
788.85735
760.54924
665.17481
600.9391
536.72822
487.12949
445.38398
412.52638
386.34271
366.13833
350.90157
340.06883
332.70913
330.40539
16.738387
19.060958
36.5846
49.381266
66.986555
86.189119
109.55573
137.39867
171.32432
212.70586
263.33234
324.43778
396.21055
479.00126
528.28315
630.60202
296.08545
-72.413461
-496.97214
-852.4766
-1306.5956
-1513.6824
-2007.3435
-2473.9069
-2498.0965
-2468.4503
-3217.9498
-3568.7155
-4175.4114
-3233.7583
-2580.859
-1427.6324
1383.1385
683.98075
1156.6692
916.21627
872.66904
742.70811
659.73406
580.08951
520.01573
470.62065
432.31269
402.19941
379.17989
361.95484
349.77335
341.5308
338.95518
22.637966
24.40713
45.019813
59.286826
79.069764
100.42845
126.33912
157.05255
194.29029
239.4263
294.21885
359.69534
435.06264
524.5727
550.59743
738.8773
296.91406
-73.887304
-608.71166
-891.66563
-1492.6478
-1176.2754
-2117.9425
-2449.5877
-2860.8574
-3178.757
-3477.5166
-3777.8318
-4055.0066
-4260.5366
-4105.9647
-2266.8713
2846.0894
1706.6973
1671.1646
1244.8463
1051.1007
855.71319
728.8873
626.31059
551.59047
493.4041
449.32681
415.43159
389.84546
370.88818
357.56264
348.58563
345.77846
18.113235
19.692081
38.959438
52.62924
71.979911
93.188727
119.42342
151.27949
191.18028
241.80011
307.39057
394.22998
509.62192
684.33041
847.59468
1501.2741
882.23933
139.49801
-420.66614
-916.47589
-1349.0131
-1760.9388
0
0
0
0
0
0
0
0
0
0
4071.5207
827.59877
1801.9818
1262.6567
1107.2073
893.68681
759.62046
649.46386
569.33226
507.18504
460.20269
424.22412
397.13301
377.11684
363.07245
353.62621
350.67624
29.969181
27.079803
50.970148
66.46078
89.125098
113.84999
144.61211
182.14322
229.47411
290.00751
369.04006
475.30666
611.69867
841.70597
964.74327
1630.993
0
0
0
0
0
0
0
0
0
0
0
0
0
0
0
0
0
4397.4436
2247.3689
1711.4903
1231.5397
976.56394
796.69695
672.89657
583.36497
516.88411
467.16102
429.59673
401.4767
380.80508
366.33891
356.62838
353.59304
18.144325
19.738374
39.049753
52.746681
72.137491
93.387606
119.67341
151.59085
191.5698
242.29314
308.03037
395.09449
510.89758
686.45824
850.57939
1517.582
882.46392
141.60811
-418.66282
-916.36465
-1351.4842
-1766.4951
0
0
0
0
0
0
0
0
0
0
4173.6975
3646.136
2069.2996
1569.8507
1177.8182
947.62283
783.62436
666.71829
580.63878
515.90745
467.04125
429.938
402.05429
381.51427
367.11864
357.44787
354.4279
22.758656
24.535157
45.263343
59.598555
79.477714
100.9311
126.95239
157.79004
195.17356
240.48299
295.48925
361.23377
436.96351
527.13451
553.22489
746.41996
305.24541
-66.668619
-599.7481
-887.60776
-1486.2201
-1177.2314
-2129.8001
-2465.9382
-2880.6712
-3202.978
-3507.0404
-3812.2932
-4096.2686
-4304.0383
-4138.6312
-2277.5455
2348.4838
2182.7225
1801.7951
1431.4375
1127.8088
920.77101
766.91521
655.5479
572.48473
509.98109
462.62176
426.64464
399.56267
379.59798
365.59196
356.17733
353.23367
16.906961
19.227112
36.90976
49.810122
67.561549
86.915963
110.46454
138.5206
172.70641
214.41142
265.4523
327.09733
399.59028
483.42022
533.5695
638.99567
300.96496
-68.027325
-493.27569
-851.14773
-1305.988
-1515.3821
-2011.4211
-2479.4859
-2516.3527
-2497.8411
-3247.7518
-3606.4261
-4222.3202
-3315.1558
-2697.7001
-1732.5585
1469.2955
1484.7089
1404.016
1182.5898
991.022
836.33994
715.58598
622.37101
550.45583
494.77822
451.78739
418.679
393.51278
374.83556
361.6719
352.79607
350.02244
17.083576
19.448338
35.947539
47.551195
63.13463
79.535887
98.793955
120.69217
145.90542
174.47014
206.15971
239.44628
271.21516
296.13683
284.594
283.63712
47.337796
-214.54043
-546.29193
-829.75737
-1173.5131
-1341.1506
-1781.45
-2107.9407
-2365.756
-2496.5621
-2734.2998
-2851.1434
-3045.1579
-2756.1826
-2219.1604
-1230.7039
733.7789
922.90501
1069.7164
969.62384
864.48688
754.14717
661.4807
584.95098
523.86152
475.3347
437.22453
407.51289
384.72501
367.70375
355.6515
347.49868
344.94722
14.669987
17.261987
32.053121
42.881905
57.30975
72.680307
90.765628
111.40048
135.13963
161.90153
191.18022
221.02121
247.45329
262.78661
243.26356
198.85851
-7.8010393
-250.83864
-544.1707
-824.89029
-1137.2246
-1362.5182
-1684.327
-1945.7103
-2115.9334
-2267.2972
-2534.0826
-2639.2852
-2670.1144
-2253.5795
-1757.1526
-994.27727
315.50141
566.69322
771.82896
757.49661
718.9446
653.79238
592.39096
536.29816
489.01813
449.7888
418.07042
392.79288
373.10016
358.2234
347.60696
340.38634
338.12724
11.505795
13.324415
25.057647
33.241198
43.998716
54.904866
67.188995
80.359391
94.417869
108.7025
122.0825
132.24349
135.44175
125.41906
87.785518
25.735481
-133.52992
-325.45321
-558.42052
-789.11117
-1040.1795
-1248.2889
-1518.3173
-1741.1423
-1913.2586
-2025.8657
-2149.3708
-2187.27
-2171.7792
-1890.9248
-1466.9855
-851.31151
31.541799
311.31921
540.31513
584.11874
591.53294
561.40045
525.21555
486.84654
452.13483
421.82858
396.50787
375.83539
359.45219
346.92042
337.89933
331.72601
329.79105
11.512883
13.682654
24.566879
32.291456
42.217336
52.285718
63.470285
75.238461
87.364036
98.919185
108.36156
112.89709
108.19152
87.513104
39.168948
-39.481931
-186.91166
-364.67672
-574.18511
-787.69281
-1011.7197
-1208.4846
-1426.6742
-1610.3768
-1756.6931
-1869.0665
-1966.6716
-1968.666
-1887.4194
-1618.067
-1253.9338
-764.05537
-139.61826
132.38371
353.19856
431.63855
470.25919
469.03547
455.32552
434.03819
411.96122
390.93542
372.41077
356.70545
343.93016
333.97443
326.7161
321.70506
320.1344
6.2494412
7.2169123
14.118778
18.775079
24.760295
30.403217
36.253618
41.701669
46.335289
49.172785
48.751
42.699655
27.587178
-1.6018438
-52.603594
-128.68401
-251.0478
-399.19277
-572.62858
-753.0475
-941.68271
-1116.2822
-1299.0344
-1452.9627
-1573.4858
-1654.7804
-1708.4949
-1696.2073
-1614.5345
-1398.6499
-1095.8129
-705.25127
-247.70015
5.5273196
211.32731
309.2308
367.42175
387.06602
390.60109
383.35641
372.17807
359.53364
347.37191
336.46242
327.2557
319.89617
314.43848
310.62603
309.42773
7.4862323
8.8332161
15.164566
19.269784
24.227118
28.663747
32.884805
36.221358
38.051286
37.201503
31.994485
19.945554
-2.3072919
-39.221362
-96.588006
-177.36775
-292.33167
-428.91138
-584.81766
-747.16341
-913.45328
-1069.0299
-1222.8714
-1353.2441
-1455.7709
-1523.7304
-1555.3683
-1523.7817
-1427.4358
-1235.2664
-978.6949
-662.81418
-314.25224
-86.679263
99.848679
206.40179
276.40967
311.48198
328.89147
333.75619
332.405
327.59569
321.5395
315.32804
309.67259
304.92846
301.30167
298.71676
297.90379
1.4744874
1.5934786
3.8499197
5.1250365
6.6175767
7.4400014
7.5683291
6.3948474
3.278278
-2.8294938
-13.373392
-30.389914
-56.547249
-95.25163
-150.63555
-225.24692
-325.03802
-442.78873
-576.01131
-715.66649
-858.19566
-993.26518
-1122.5114
-1230.8834
-1313.616
-1364.5267
-1381.4049
-1348.1281
-1259.8673
-1098.7224
-884.62253
-627.77998
-353.88992
-152.00058
15.866062
124.44933
200.56804
245.94208
273.49578
287.87697
294.65121
296.60475
295.99987
294.10153
291.77861
289.5308
287.67299
286.28437
285.84372
2.9463146
3.3306069
4.9204908
5.3852341
5.5218406
4.731409
2.7866299
-0.9301414
-7.1755155
-17.041368
-31.968839
-53.840704
-84.960789
-128.02054
-185.90419
-260.29111
-353.93332
-461.99119
-581.68683
-706.1902
-831.48452
-949.91459
-1060.0955
-1151.6776
-1219.7687
-1258.0911
-1262.3256
-1222.2038
-1135.4262
-994.04776
-811.98169
-599.44254
-377.87046
-200.07111
-49.606111
56.976722
135.64494
187.87458
223.01704
245.05878
258.7007
266.58676
270.90195
272.98581
273.79573
273.92867
273.77717
273.55309
273.47935
-2.7588146
-3.4043666
-5.4578847
-7.2946914
-9.8932743
-13.347704
-18.157232
-24.833945
-34.111068
-46.938549
-64.554369
-88.515847
-120.67959
-163.13365
-217.98541
-286.49272
-370.00143
-465.31346
-569.8398
-678.33905
-786.84812
-889.25287
-982.60772
-1059.2072
-1114.5944
-1143.5943
-1142.4052
-1104.0498
-1026.1447
-905.04591
-750.88684
-573.52637
-390.32319
-233.8967
-98.923431
3.3753955
82.077535
138.29986
178.66625
206.47761
225.59783
238.42442
246.97507
252.57792
256.2133
258.52694
259.95557
260.81807
261.08224
-1.6425258
-2.1880308
-5.1203094
-7.9750785
-12.126354
-17.36597
-24.346369
-33.530179
-45.678918
-61.682614
-82.663226
-109.93984
-144.9914
-189.35172
-244.4025
-310.81966
-388.93471
-476.2922
-570.41537
-667.08007
-762.57904
-851.93427
-931.7504
-996.03883
-1040.6069
-1060.8864
-1053.4236
-1013.8997
-941.28402
-834.76878
-702.00956
-551.52008
-396.82671
-258.78038
-137.32549
-40.339038
36.982362
95.343694
139.31041
171.51384
195.05234
212.02628
224.24245
232.9649
239.15479
243.4724
246.37336
248.26117
248.85142
-6.4495578
-7.7558943
-13.675879
-18.268778
-24.458571
-31.567404
-40.479425
-51.550663
-65.519269
-83.157489
-105.43694
-133.45249
-168.39453
-211.43692
-263.55446
-325.14323
-396.10082
-474.50821
-558.10937
-643.41742
-727.03603
-804.75823
-873.15861
-927.46213
-963.99698
-978.97924
-969.5214
-932.56468
-867.41685
-774.5326
-659.95383
-531.02288
-398.35638
-275.97899
-166.24559
-74.968177
0.047863344
59.12598
105.32719
140.68416
167.63139
187.95709
203.23682
214.63274
223.05362
229.14562
233.36188
236.17049
237.04561
-5.8873043
-7.2272689
-14.178852
-19.849056
-27.581032
-36.386905
-47.264815
-60.484217
-76.763261
-96.773437
-121.34676
-151.35925
-187.70964
-231.20702
-282.42321
-341.43519
-407.80752
-479.88458
-555.58483
-631.94772
-705.9123
-773.87916
-832.61019
-878.16015
-907.28593
-916.84533
-904.53928
-868.48851
-808.60025
-726.03042
-625.60955
-513.44772
-397.81328
-288.51666
-188.77817
-103.06843
-30.742851
28.194802
75.713979
113.32875
142.91346
165.95503
183.80074
197.49432
207.8749
215.55666
220.97482
224.64396
225.80102
-9.6079465
-11.450813
-20.708468
-27.629107
-36.834093
-46.925329
-59.096541
-73.522152
-90.904096
-111.82174
-136.9983
-167.15367
-202.99624
-245.1131
-293.84866
-349.1162
-410.34009
-476.06736
-544.39726
-612.76596
-678.42125
-738.23761
-789.25517
-828.1747
-852.18235
-858.65859
-845.73487
-812.09448
-757.86664
-684.47641
-595.91095
-497.30678
-395.22566
-296.87824
-205.66983
-125.19934
-55.728247
2.4776769
50.607416
89.742954
121.297
146.47853
166.41826
182.03315
194.08104
203.13076
209.58833
214.00123
215.38676
-9.541741
-11.476429
-21.788616
-29.695153
-40.259864
-51.782404
-65.547706
-81.632315
-100.7033
-123.23964
-149.8446
-181.07184
-217.43126
-259.28659
-306.76261
-359.6091
-417.14072
-478.02239
-540.50366
-602.32518
-661.01555
-713.83472
-758.11437
-791.05102
-810.22176
-813.4815
-799.38692
-767.14905
-717.12904
-650.83258
-571.5714
-483.62302
-392.22874
-302.88109
-218.83045
-143.07101
-76.371165
-19.195295
29.091273
69.21916
102.22824
129.08313
150.72095
167.93748
181.41038
191.66089
199.06244
204.18634
205.83162
-12.251807
-14.454794
-26.46354
-35.223364
-46.824118
-59.214385
-73.842104
-90.701511
-110.44983
-133.49529
-160.3636
-191.50028
-227.29024
-267.9599
-313.50446
-363.58383
-417.46834
-473.91833
-531.31643
-587.63956
-640.65559
-687.93432
-727.07833
-755.66682
-771.59151
-773.05094
-758.88408
-728.56883
-682.56429
-622.35418
-550.7602
-471.40439
-388.57384
-306.62896
-228.56443
-156.9536
-92.839449
-36.831984
11.312711
52.045822
86.110155
114.2602
137.26254
155.79853
170.46577
181.73355
189.93597
195.65435
197.49258
-12.525719
-14.778079
-27.738463
-37.277928
-49.951157
-63.421251
-79.218522
-97.245195
-118.12796
-142.19369
-169.88078
-201.52162
-237.37608
-277.53992
-321.89062
-370.00763
-421.12847
-474.08018
-527.35674
-579.12329
-627.35346
-669.87349
-704.53225
-729.22403
-742.12578
-741.74491
-727.17391
-698.12582
-655.13715
-599.6198
-533.99927
-461.3593
-385.26155
-309.27537
-236.1122
-168.03598
-106.22495
-51.390822
-3.5628415
37.492787
72.286838
101.40004
125.45638
145.03899
160.67784
172.80205
181.71934
188.03267
190.18477
-14.463267
-16.709373
-30.86425
-40.920231
-54.285635
-68.310289
-84.662527
-103.17326
-124.46524
-148.81344
-176.60419
-208.09862
-243.4782
-282.7568
-325.73961
-371.95937
-420.64204
-470.66768
-520.62007
-568.80772
-613.36702
-652.32179
-683.71719
-705.67984
-716.59663
-715.18947
-700.71873
-673.02617
-632.67885
-581.00971
-520.15549
-452.80083
-381.987
-310.73998
-241.52129
-176.37055
-116.52567
-62.76736
-15.313632
25.904513
61.220551
91.075699
115.97761
136.42618
152.89149
165.76521
175.32472
182.15924
184.58604
-14.957076
-17.07119
-31.986197
-42.540538
-56.64226
-71.372209
-88.479442
-107.71808
-129.69239
-154.62092
-182.83519
-214.52744
-249.80727
-288.61716
-330.70221
-375.55789
-422.40362
-470.16019
-517.48443
-562.79809
-604.37079
-640.38625
-669.05551
-688.69474
-697.8697
-695.47984
-680.92129
-654.13544
-615.70628
-566.88991
-509.59923
-446.21226
-379.38796
-311.76865
-245.60743
-182.7787
-124.5388
-71.713395
-24.649076
16.601195
52.238388
82.595028
108.08701
129.14763
146.20001
159.61568
169.66568
176.94255
179.96105
-16.568438
-18.134526
-33.855432
-44.607926
-59.115006
-74.144615
-91.565367
-111.07088
-133.26708
-158.33911
-186.58875
-218.16746
-253.14189
-291.4111
-332.6838
-376.43349
-421.87815
-467.96721
-513.40908
-556.70381
-596.21423
-630.23446
-657.09032
-675.22468
-683.32191
-680.39765
-665.9369
-639.94427
-603.00846
-556.32109
-501.641
-441.134
-377.19966
-312.22399
-248.30563
-187.20379
-130.17493
-78.072182
-31.325686
9.927297
45.795708
76.535229
102.49778
124.07238
141.65379
155.61393
166.24274
174.08622
178.13652
-17.265199
-18.347136
-34.558051
-45.504516
-60.392371
-75.764064
-93.554987
-113.40789
-135.92209
-161.25299
-189.67623
-221.31058
-256.18995
-294.18188
-334.96985
-378.01314
-422.53031
-467.49137
-511.64154
-553.53556
-591.60229
-624.21381
-649.77883
-666.83072
-674.14069
-670.81019
-656.37909
-630.86944
-594.86759
-549.53321
-496.5241
-437.86846
-375.80023
-312.54461
-250.09686
-190.14225
-133.93166
-82.334211
-35.831018
5.3863134
41.366574
72.313146
98.532651
120.38005
138.22112
152.42731
163.32238
171.08529
176.44416
-19.696576
-18.627701
-35.327651
-46.174013
-61.207777
-76.660725
-94.554368
-114.49177
-137.07749
-162.45367
-190.88682
-222.48227
-257.26034
-295.07486
-335.59811
-378.2827
-422.34711
-466.7702
-510.31365
-551.55697
-588.95918
-620.92789
-645.90935
-662.4769
-669.43835
-665.92253
-651.4898
-626.21712
-590.7021
-546.05669
-493.88938
-436.16003
-375.02329
-312.62741
-250.91627
-191.53875
-135.74101
-84.398981
-38.017334
3.1865186
39.232964
70.301219
96.678715
118.7098
136.75579
151.23539
162.52773
170.12351
181.61058
841.34245
864.75604
911.90778
931.83418
915.72776
882.23933
823.93857
763.15129
688.81535
619.25199
-450.68975
-441.28949
-435.73962
-420.66614
-419.5924
-403.49969
-407.50517
-393.05731
-401.87657
-395.71071
-614.96047
-605.77974
-600.95681
-584.76062
-583.36428
-564.02542
-566.47753
-545.9507
-551.02821
-533.61159
-781.65567
-770.75464
-764.41109
-745.24989
-742.54022
-719.65361
-721.21144
-696.4889
-702.93693
-682.38877
-933.49995
-922.32637
-916.47589
-895.89061
-893.04856
-867.04077
-867.42514
-837.00237
-839.57299
-800.79974
-1089.1591
-1075.7439
-1068.2756
-1044.6267
-1041.0014
-1012.0432
-1013.016
-981.21367
-988.20571
-960.23571
-1228.7104
-1214.5517
-1207.2847
-1181.8284
-1178.151
-1145.6723
-1145.3346
-1107.0723
-1108.735
-1063.3346
-1363.142
-1349.0131
-1342.8203
-1316.0508
-1313.035
-1277.7715
-1277.7947
-1235.6402
-1236.1584
-1188.5407
-3232.3632
-3168.6357
-3164.1418
-3068.0982
-3076.1397
-2956.3834
-2967.9537
-2830.128
-2836.5033
-2676.498
-1623.7996
-1607.7745
-1602.4795
-1571.8564
-1570.2193
-1528.9357
-1530.3324
-1479.9447
-1482.2153
-1423.079
-1760.9388
-1741.7794
-1734.9471
-1700.2787
-1698.009
-1652.4354
-1654.0833
-1599.4157
-1603.021
-1542.5735
-1892.2672
-1870.1505
-1862.3476
-1824.003
-1821.6221
-1771.5686
-1773.1722
-1712.7395
-1715.4287
-1644.9307
-2011.8462
-1989.4018
-1983.2996
-1943.2722
-1942.759
-1889.6077
-1892.9652
-1828.2526
-1830.3618
-1750.752
-2134.5616
-2110.6893
-2105.5843
-2062.8906
-2063.9119
-2007.5263
-2014.0413
-1948.096
-1959.6327
-1901.3575
-2264.4438
-2236.2397
-2229.53
-2181.386
-2181.35
-2117.9425
-2122.0896
-2044.3609
-2047.5521
-1952.2124
-2385.5307
-2355.2325
-2349.4614
-2297.99
-2299.5797
-2231.9027
-2238.2334
-2156.0523
-2161.1304
-2061.0061
-2505.8137
-2473.2688
-2468.5955
-2413.4056
-2416.7151
-2344.6827
-2354.3459
-2270.0932
-2285.5158
-2204.8357
-2632.3282
-2594.7043
-2588.7395
-2527.1337
-2529.74
-2449.5877
-2457.0703
-2360.3257
-2367.0605
-2249.1054
-2751.143
-2710.2664
-2705.1272
-2638.7007
-2642.9922
-2557.0004
-2566.4859
-2463.9917
-2471.6763
-2350.2584
-2866.4015
-2822.5316
-2818.9134
-2747.5736
-2754.1487
-2662.4672
-2675.2976
-2568.9876
-2584.6355
-2476.2288
-2982.6683
-2934.1526
-2931.24
-2853.2785
-2860.8574
-2760.8476
-2773.3099
-2655.8639
-2667.0837
-2534.8436
-3099.0253
-3045.9288
-3044.4677
-2959.3571
-2968.0837
-2859.2077
-2871.824
-2744.9445
-2755.6841
-2612.9651
-1506.5737
-1488.917
-1480.4371
-1449.7768
-1446.0867
-1407.3151
-1408.1291
-1363.1166
-1367.548
-1322.1191
353.95925
358.09849
359.84624
366.06791
360.21418
357.97931
339.4871
324.8308
293.56434
264.37421
-266.74222
-258.85147
-254.95227
-242.87968
-243.51473
-231.2476
-236.74326
-226.7136
-235.67925
-230.40909
542.46319
550.14512
575.13124
594.98596
594.88987
587.99299
559.78438
529.42529
483.43534
433.91824
122.67521
129.72389
133.44061
142.34017
139.49801
143.92708
132.73688
129.80661
111.80042
104.66028
-77.734824
-70.215459
-66.703605
-56.824195
-59.3106
-51.989231
-61.808
-61.489259
-80.873457
-100.2842
2692.4948
4097.6093
4164.5783
4173.6975
3954.7779
3669.0455
3332.7617
2984.8311
2625.1286
2206.9761
-3160.7531
-1393.9902
-1104.0306
-395.68474
-86.510253
190.36524
330.68179
407.50807
429.5076
396.44369
-3332.7044
-3267.824
-3268.5141
-3166.6572
-3178.757
-3050.5757
-3064.275
-2918.7539
-2925.443
-2764.0674
-3459.3838
-3384.9902
-3385.647
-3272.6398
-3285.7003
-3145.8263
-3159.4419
-3003.0267
-3004.4691
-2833.5744
-3582.7068
-3499.1143
-3500.9078
-3376.5454
-3391.5405
-3239.691
-3254.5225
-3088.0596
-3088.8987
-2920.6037
-3704.5733
-3611.3007
-3614.5463
-3477.5166
-3494.2476
-3328.5346
-3342.9249
-3162.2663
-3158.7168
-2976.4703
-3823.9806
-3720.8751
-3726.8404
-3576.2726
-3595.2803
-3414.7525
-3428.2504
-3232.6392
-3224.7298
-3020.9929
-3951.2317
-3835.1909
-3843.3226
-3676.8505
-3697.8962
-3501.1967
-3513.1999
-3302.7483
-3288.2971
-3065.1064
-4080.5048
-3950.215
-3961.4226
-3777.8318
-3802.0633
-3589.1714
-3601.0795
-3378.3773
-3358.7922
-3126.1918
-4208.2767
-4062.6735
-4078.2576
-3875.9451
-3904.0808
-3674.2976
-3686.757
-3454.1906
-3435.7477
-3215.6204
-4339.5018
-4174.3354
-4193.5885
-3968.728
-3999.2874
-3748.8803
-3756.8366
-3506.9095
-3472.9429
-3215.0822
-4465.4593
-4279.3431
-4304.3403
-4055.0066
-4089.185
-3818.2141
-3823.512
-3562.5888
-3520.5886