/*--------------------------------*- C++ -*----------------------------------*\
| =========                 |                                                 |
| \\      /  F ield         | foam-extend: Open Source CFD                    |
|  \\    /   O peration     | Version:     4.1                                |
|   \\  /    A nd           | Web:         http://www.foam-extend.org         |
|    \\/     M anipulation  |                                                 |
\*---------------------------------------------------------------------------*/
FoamFile
{
    version     2.0;
    format      ascii;
    class       surfaceScalarField;
    location    "0.07";
    object      phi;
}
// * * * * * * * * * * * * * * * * * * * * * * * * * * * * * * * * * * * * * //

dimensions      [0 3 -1 0 0 0 0];

internalField   nonuniform List<scalar> 
8438
(
-0.60177513
0.00052838069
-0.60239546
0.00062033539
-0.60302706
0.00063159631
-0.60369402
0.00066695868
-0.60439574
0.00070171597
-0.6051427
0.00074696868
-0.60594264
0.00079993376
-0.60680439
0.00086175047
-0.60773587
0.00093147931
-0.60874414
0.0010082768
-0.60983458
0.0010904404
-0.6110102
0.0011756114
-0.61227074
0.0012605435
-0.61361185
0.0013411079
-0.61502416
0.0014123127
-0.61649265
0.0014684901
-0.61799623
0.0015035793
-0.61950779
0.0015115638
-0.62099482
0.0014870246
-0.62242041
0.0014255908
-0.62374484
0.0013244353
-0.62492742
0.001182581
-0.62592864
0.0010012125
-0.62671242
0.00078378711
-0.62724863
0.00053620279
-0.62751528
0.00026665003
-0.62750077
-1.4506967e-05
-0.6272047
-0.00029607158
-0.62663997
-0.00056472959
-0.62583364
-0.00080632546
-0.62482474
-0.0010089086
-0.62366132
-0.0011634188
-0.62239656
-0.0012647578
-0.62108411
-0.0013124477
-0.61977372
-0.0013103879
-0.61850843
-0.0012652889
-0.6173224
-0.0011860383
-0.61624071
-0.001081683
-0.61527964
-0.00096106801
-0.61444797
-0.00083167322
-0.61374832
-0.00069965083
-0.6131788
-0.00056952352
-0.61273434
-0.00044446172
-0.61240789
-0.00032644216
-0.61219123
-0.00021666658
-0.61207556
-0.00011566247
-0.61205012
-2.544439e-05
-0.61209807
4.79469e-05
0.00014688341
-0.61563545
0.00087379198
-0.61596936
0.00095424804
-0.61632012
0.00098235738
-0.6166974
0.0010442385
-0.61710945
0.0011137591
-0.61756573
0.0012032551
-0.61807486
0.0013090605
-0.6186457
0.0014325884
-0.61928642
0.0015722053
-0.62000434
0.0017261879
-0.62080511
0.0018912174
-0.62169212
0.0020626151
-0.62266549
0.0022339197
-0.62372125
0.0023968608
-0.62485033
0.0025413924
-0.62603789
0.0026560532
-0.62726285
0.0027285449
-0.6284979
0.0027466124
-0.62971008
0.0026992002
-0.63086185
0.002577359
-0.63191268
0.002375271
-0.63282095
0.002090851
-0.63354613
0.0017263922
-0.63405112
0.0012887713
-0.63430477
0.00078985282
-0.6342843
0.0002461853
-0.63397762
-0.0003211889
-0.63338597
-0.00088771882
-0.63252401
-0.00142669
-0.6314189
-0.0019114406
-0.63011004
-0.0023177662
-0.62864613
-0.0026273261
-0.62708121
-0.0028296844
-0.62546975
-0.0029239071
-0.62386203
-0.0029181084
-0.62230134
-0.0028259745
-0.6208217
-0.0026656824
-0.61944787
-0.0024555109
-0.61819562
-0.0022133208
-0.61707322
-0.0019540722
-0.61608284
-0.00169003
-0.61522224
-0.0014301182
-0.61448618
-0.0011805271
-0.61386763
-0.00094498975
-0.61335875
-0.0007255426
-0.61295149
-0.00052292652
-0.61263838
-0.00033855662
-0.61241443
-0.0001760019
-2.2744694e-05
-0.61616871
0.0012010019
-0.61648419
0.0012697275
-0.61681277
0.0013109382
-0.61716563
0.0013970935
-0.61755185
0.0014999782
-0.61798123
0.0016326386
-0.61846278
0.001790612
-0.61900571
0.0019755135
-0.61961864
0.0021851355
-0.62030943
0.0024169836
-0.62108448
0.002666263
-0.62194796
0.0029260944
-0.62290092
0.0031868792
-0.62394027
0.003436208
-0.62505775
0.0036588816
-0.62623913
0.0038374291
-0.62746358
0.0039529941
-0.62870364
0.0039866733
-0.62992582
0.003921379
-0.63109166
0.0037431988
-0.6321594
0.00344301
-0.63308588
0.0030173369
-0.63382886
0.0024693707
-0.63434931
0.0018092141
-0.63461409
0.0010546404
-0.63459852
0.00023060768
-0.6342888
-0.00063090837
-0.63368405
-0.0014924605
-0.63279777
-0.0023129703
-0.63165809
-0.003051122
-0.63030677
-0.0036690878
-0.62879589
-0.0041382021
-0.62718342
-0.0044421588
-0.62552754
-0.0045797881
-0.62388119
-0.0045644603
-0.62228938
-0.0044177857
-0.62078654
-0.0041685145
-0.61939714
-0.0038449122
-0.61813592
-0.0034745399
-0.61700991
-0.0030800844
-0.61601991
-0.0026800366
-0.6151624
-0.0022876213
-0.61443104
-0.0019118864
-0.61381794
-0.001558094
-0.61331464
-0.0012288448
-0.61291279
-0.00092477316
-0.61260508
-0.00064626435
-0.61238683
-0.00039424896
-0.00016462943
-0.61622766
0.0014997116
-0.61652721
0.0015692814
-0.61684405
0.0016277715
-0.61718579
0.0017388363
-0.6175618
0.0018759913
-0.61798139
0.002052225
-0.61845381
0.0022630344
-0.61898852
0.0025102208
-0.61959465
0.0027912637
-0.62028073
0.0031030686
-0.62105404
0.0034395672
-0.62191978
0.0037918384
-0.62288014
0.0041472399
-0.62393313
0.0044891977
-0.62507142
0.0047971706
-0.62628129
0.0050472959
-0.6275419
0.0052136049
-0.62882506
0.0052698402
-0.63009591
0.0051922266
-0.63131398
0.0049612693
-0.63243506
0.0045640842
-0.63341315
0.0039954351
-0.63420299
0.0032592106
-0.63476236
0.0023685836
-0.63505507
0.0013473426
-0.63505356
0.00022909986
-0.63474171
-0.00094275623
-0.63411713
-0.0021170412
-0.63319328
-0.0032368191
-0.6320001
-0.0042442997
-0.63058315
-0.0050860359
-0.62899984
-0.0057215202
-0.6273143
-0.0061276911
-0.62559061
-0.0063034821
-0.62388577
-0.0062692968
-0.62224743
-0.0060561261
-0.62071056
-0.0057053879
-0.61929902
-0.0052564524
-0.61802592
-0.0047476369
-0.61689634
-0.004209672
-0.61590897
-0.0036674008
-0.61505846
-0.0031381312
-0.61433689
-0.0026334554
-0.61373525
-0.0021597375
-0.61324442
-0.0017196779
-0.61285594
-0.0013132479
-0.61256294
-0.00093926501
-0.61236117
-0.00059602102
-0.00028084761
-0.61635988
0.0017901055
-0.6166524
0.0018617948
-0.61695561
0.0019309857
-0.61728135
0.0020645763
-0.61763923
0.0022338657
-0.61803949
0.0024524839
-0.6184921
0.0027156481
-0.61900736
0.0030254795
-0.61959543
0.0033793337
-0.62026612
0.0037737573
-0.62102822
0.0042016672
-0.62188869
0.0046523149
-0.62285158
0.0051101259
-0.62391668
0.005554297
-0.62507814
0.005958637
-0.62632315
0.0062922996
-0.62763091
0.0065213675
-0.62897223
0.0066111633
-0.63031029
0.0065302807
-0.63160178
0.0062527602
-0.63279903
0.0057613317
-0.63385206
0.005048468
-0.6347113
0.0041184516
-0.63532992
0.0029872036
-0.63566718
0.0016846022
-0.63569127
0.00025319124
-0.63538249
-0.0012515403
-0.63473603
-0.0027634973
-0.63376504
-0.0042078134
-0.63250166
-0.0055076723
-0.63099682
-0.0065908847
-0.62931555
-0.0074027868
-0.62753107
-0.0079121729
-0.62571597
-0.0081185773
-0.62393292
-0.0080523508
-0.62223314
-0.0077559006
-0.62065205
-0.0072864849
-0.61921245
-0.0066960455
-0.61792496
-0.0060351347
-0.61679176
-0.0053428671
-0.61580859
-0.0046505738
-0.61496741
-0.0039793091
-0.61425807
-0.0033427928
-0.61366985
-0.0027479625
-0.61319243
-0.0021970947
-0.61281675
-0.0016889259
-0.61253586
-0.0012201615
-0.61234584
-0.00078603409
-0.00038189032
-0.61649246
0.0020438578
-0.61675511
0.0021244418
-0.61703616
0.0022120378
-0.61734259
0.0023710038
-0.61768317
0.0025744461
-0.61806735
0.0028366655
-0.61850514
0.003153435
-0.61900717
0.0035275105
-0.61958437
0.0039565396
-0.62024769
0.0044370703
-0.6210074
0.0049613792
-0.6218723
0.0055172164
-0.62284847
0.0060862956
-0.62393778
0.0066436047
-0.62513616
0.0071570179
-0.6264319
0.0075880362
-0.62780431
0.0078937791
-0.62922289
0.0080297469
-0.63064833
0.0079557163
-0.6320337
0.0076381309
-0.63332696
0.0070545952
-0.63447314
0.0061946489
-0.63541736
0.0050626757
-0.63610709
0.0036769255
-0.63649603
0.002073547
-0.63654719
0.00030434728
-0.6362365
-0.0015622273
-0.63555622
-0.0034437814
-0.63451892
-0.0052451146
-0.63315939
-0.0068672005
-0.63153548
-0.0082147951
-0.62972244
-0.0092158192
-0.62780588
-0.0098287398
-0.62587019
-0.01005426
-0.62398525
-0.0099372983
-0.62220689
-0.0095342554
-0.62057052
-0.008922862
-0.6190972
-0.0081693561
-0.61779386
-0.0073384834
-0.61665874
-0.006477986
-0.61568355
-0.005625762
-0.6148568
-0.0048060577
-0.61416546
-0.0040341324
-0.61359661
-0.0033168127
-0.61313834
-0.0026553662
-0.61278046
-0.0020468026
-0.61251512
-0.0014855023
-0.61233738
-0.00096377712
-0.00047431833
-0.6167139
0.0022926671
-0.61696852
0.0023790687
-0.61723059
0.0024741064
-0.6175139
0.0026543146
-0.61782762
0.0028881662
-0.61818262
0.0031916655
-0.61858976
0.0035605723
-0.61906081
0.0039985571
-0.61960812
0.0045038576
-0.62024454
0.0050734837
-0.62098274
0.0056995778
-0.62183439
0.0063688694
-0.62280879
0.0070606991
-0.62391109
0.0077459051
-0.62514012
0.008386049
-0.62648613
0.0089340392
-0.62792896
0.0093366132
-0.62943662
0.0095374092
-0.63096671
0.0094858041
-0.63246772
0.0091391417
-0.63388216
0.0084690332
-0.63514878
0.0074612661
-0.63620608
0.0061199832
-0.6369941
0.0044649418
-0.63745915
0.002538601
-0.63755694
0.00040212941
-0.63725666
-0.0018625037
-0.63654508
-0.0041553573
-0.63543291
-0.0063572917
-0.63395772
-0.0083423887
-0.63218661
-0.0099859083
-0.6302087
-0.011193726
-0.62812676
-0.011910675
-0.6260417
-0.012139325
-0.62403227
-0.011946727
-0.62216015
-0.011406377
-0.62045977
-0.01062324
-0.61894946
-0.0096796702
-0.61763082
-0.0086571223
-0.61649686
-0.0076119429
-0.61553408
-0.0065885434
-0.61472665
-0.0056134886
-0.61405803
-0.0047027529
-0.6135127
-0.0038621367
-0.61307694
-0.0030911304
-0.61273938
-0.0023843577
-0.61249145
-0.0017334389
-0.61232756
-0.0011276664
-0.00055692724
-0.61690582
0.0024892568
-0.61711409
0.0025873427
-0.61734231
0.0027023237
-0.61759582
0.0029078266
-0.61788277
0.0031751119
-0.61821267
0.0035215676
-0.61859631
0.0039442135
-0.61904588
0.004448128
-0.61957478
0.0050327566
-0.62019744
0.0056961444
-0.62092878
0.0064309144
-0.62178328
0.0072233666
-0.62277352
0.0080509439
-0.62390815
0.0088805362
-0.62518921
0.0096671058
-0.62660914
0.010353974
-0.62814842
0.010875894
-0.62977299
0.011161978
-0.63143655
0.011149359
-0.63308184
0.010784433
-0.63464473
0.010031927
-0.63605636
0.0088728956
-0.63724742
0.0073110359
-0.63814891
0.0053664394
-0.63869854
0.0030882253
-0.63884362
0.00054721479
-0.63854604
-0.0021600881
-0.63778657
-0.0049148268
-0.63657345
-0.0075704086
-0.63494681
-0.0099690278
-0.63298499
-0.01194773
-0.63079473
-0.013383991
-0.62850168
-0.014203723
-0.62622931
-0.014411693
-0.62406663
-0.014109408
-0.62208238
-0.013390624
-0.62030823
-0.01239739
-0.61875818
-0.01122972
-0.61742633
-0.0099889752
-0.61629871
-0.0087395591
-0.61535514
-0.007532121
-0.6145744
-0.0063942263
-0.61393569
-0.0053414595
-0.61342038
-0.0043774466
-0.6130125
-0.0034990176
-0.61269913
-0.0026977219
-0.61247057
-0.0019620034
-0.61232032
-0.0012779099
-0.00063245025
-0.61720892
0.0026869492
-0.61741227
0.0027906905
-0.61761883
0.002908888
-0.61784421
0.0031332031
-0.61809709
0.0034279919
-0.61838878
0.0038132581
-0.61873091
0.0042863396
-0.61913686
0.0048540778
-0.61962166
0.0055175561
-0.62020211
0.0062766019
-0.62089642
0.0071252191
-0.6217233
0.0080502493
-0.62270045
0.0090280934
-0.6238421
0.010022184
-0.62515566
0.010980663
-0.62663764
0.011835962
-0.62827042
0.012508668
-0.63001778
0.012909344
-0.63182887
0.01296044
-0.63363939
0.012594961
-0.63537738
0.011769919
-0.63696501
0.010460524
-0.63832416
0.0086701775
-0.63937495
0.0064172374
-0.64004441
0.0037576812
-0.64026872
0.00077152965
-0.63999822
-0.0024305943
-0.63920196
-0.0057110815
-0.63788195
-0.0088904203
-0.63607968
-0.0117713
-0.63388829
-0.014139122
-0.63143825
-0.015834028
-0.6288871
-0.016754875
-0.62639041
-0.016908381
-0.62404834
-0.016451478
-0.62193825
-0.015500716
-0.62008588
-0.01424976
-0.61849872
-0.012816883
-0.6171604
-0.011327293
-0.61604802
-0.0098519426
-0.61513309
-0.0084470423
-0.61438813
-0.0071391949
-0.61378748
-0.0059421032
-0.61330918
-0.0048557505
-0.61293496
-0.0038732309
-0.61265048
-0.0029822108
-0.612445
-0.0021674739
-0.61231128
-0.001411632
-0.00069878306
-0.61743976
0.0028127284
-0.6175775
0.0029284374
-0.61773661
0.0030679932
-0.61791942
0.0033160135
-0.6181334
0.0036419703
-0.61838778
0.0040676419
-0.61869402
0.0045925808
-0.61906598
0.0052260323
-0.61952001
0.0059715877
-0.6200751
0.0068316929
-0.62075257
0.0078026873
-0.62157528
0.0088729644
-0.62256601
0.010018825
-0.62374471
0.011200882
-0.62512442
0.012360378
-0.62670595
0.013417483
-0.62847361
0.014276333
-0.63038772
0.014823456
-0.63239134
0.014964062
-0.63441126
0.014614874
-0.6363661
0.013724761
-0.63816727
0.012261694
-0.63972655
0.010229453
-0.64095041
0.0076411043
-0.64175308
0.004560351
-0.64205815
0.0010766017
-0.64180423
-0.0026845227
-0.64094837
-0.0065669366
-0.63948538
-0.010353406
-0.63745603
-0.013800652
-0.63497077
-0.01662439
-0.63218924
-0.018615553
-0.62931155
-0.019632566
-0.62653885
-0.019681086
-0.62398134
-0.019008981
-0.62172682
-0.017755235
-0.61978989
-0.016186689
-0.61816846
-0.014438317
-0.61683166
-0.012664087
-0.61574511
-0.0109385
-0.61487005
-0.0093221025
-0.6141715
-0.0078377397
-0.61361832
-0.0064952825
-0.61318482
-0.0052892492
-0.61285032
-0.0042077336
-0.61259893
-0.0032335999
-0.612419
-0.0023474071
-0.61230264
-0.0015279939
-0.00075646971
-0.61781314
0.0029488271
-0.61795312
0.0030684261
-0.61809117
0.0032060428
-0.61824409
0.0034689269
-0.6184198
0.0038176787
-0.61862948
0.004277326
-0.61888507
0.0048481746
-0.61920126
0.0055422166
-0.61959574
0.0063660675
-0.62008989
0.0073258482
-0.62070889
0.0084216799
-0.62148121
0.0096452933
-0.62243717
0.010974781
-0.62360584
0.012369547
-0.62501
0.013764541
-0.62665872
0.015066198
-0.62854175
0.016159364
-0.63061597
0.016897682
-0.63281759
0.017165684
-0.63506242
0.016859698
-0.63725825
0.015920592
-0.63930404
0.014307483
-0.64110166
0.012027077
-0.64254209
0.0090815309
-0.64352571
0.0055439767
-0.64396144
0.0015123256
-0.64376994
-0.0028760174
-0.64288362
-0.0074532554
-0.64127976
-0.011957269
-0.63899246
-0.016087949
-0.63615518
-0.019461677
-0.6329673
-0.021803429
-0.62968959
-0.02291027
-0.62659164
-0.022779041
-0.6237893
-0.021811318
-0.62138282
-0.020161721
-0.61936691
-0.0182026
-0.61772548
-0.016079744
-0.61640788
-0.013981685
-0.61536538
-0.011981002
-0.61454703
-0.010140449
-0.61390958
-0.0084751966
-0.61341607
-0.0069887846
-0.61303725
-0.0056680786
-0.61275022
-0.0044947591
-0.61253789
-0.0034459276
-0.61238792
-0.0024973838
-0.61229197
-0.0016239436
-0.00080363521
-0.61806401
0.0029919397
-0.61811754
0.0031219576
-0.61819268
0.0032811785
-0.61828756
0.00356381
-0.61840855
0.0039386668
-0.61856389
0.0044326655
-0.61876515
0.0050494429
-0.61902749
0.0058045505
-0.61937024
0.0067088147
-0.61981762
0.0077732364
-0.62039914
0.0090031955
-0.62114932
0.010395471
-0.62210629
0.01193175
-0.62330855
0.013571812
-0.62478896
0.015244954
-0.62656481
0.016842049
-0.62863155
0.018226098
-0.63093871
0.019204841
-0.63341231
0.019639284
-0.63595343
0.019400822
-0.63845736
0.018424525
-0.64080857
0.016658686
-0.64289932
0.014117831
-0.64459962
0.010781829
-0.64579127
0.0067356296
-0.6463651
0.0020861503
-0.64622407
-0.0030170466
-0.64527604
-0.0084012865
-0.64348106
-0.013752243
-0.64086004
-0.018708968
-0.63757238
-0.022749336
-0.63386371
-0.025512107
-0.63007606
-0.026697918
-0.62658195
-0.02627315
-0.62349049
-0.024902777
-0.62091749
-0.022734722
-0.61882466
-0.020295432
-0.61717638
-0.017728021
-0.61589546
-0.015262604
-0.61491545
-0.012961014
-0.61417091
-0.010884993
-0.6136093
-0.009036803
-0.61318755
-0.0074105296
-0.61287284
-0.0059827936
-0.61264033
-0.0047272721
-0.61247198
-0.0036142739
-0.61235508
-0.0026142878
-0.61228117
-0.0016978447
-0.00083985973
-0.61848989
0.0030558664
-0.61855529
0.0031873541
-0.61861324
0.0033391326
-0.61868056
0.0036311285
-0.61876373
0.0040218328
-0.61887278
0.0045417175
-0.61901896
0.0051956275
-0.61921723
0.0060028207
-0.61948715
0.0069787305
-0.61985435
0.0081404363
-0.6203517
0.0095005425
-0.62101998
0.011063749
-0.62190723
0.012819001
-0.62306592
0.014730509
-0.62454611
0.01672514
-0.62638157
0.018677508
-0.62858273
0.020427265
-0.63109208
0.021714182
-0.63382471
0.022371915
-0.63666355
0.022239662
-0.63948971
0.021250693
-0.64216973
0.019338706
-0.64458897
0.016537065
-0.64659286
0.012785725
-0.6480471
0.0081898696
-0.64882941
0.0028684529
-0.64882184
-0.0030246134
-0.64788114
-0.0093419865
-0.64592199
-0.015711389
-0.64292955
-0.021701411
-0.63909819
-0.026580694
-0.63473798
-0.02987232
-0.63031079
-0.031125108
-0.62635485
-0.030229086
-0.62294559
-0.028312045
-0.62021658
-0.025463732
-0.61807454
-0.022437471
-0.61645576
-0.019346803
-0.61524769
-0.01647067
-0.61436262
-0.013846081
-0.61371891
-0.011528708
-0.61325467
-0.0095010375
-0.61292127
-0.0077439326
-0.61268315
-0.0062209171
-0.61251434
-0.0048960777
-0.6123966
-0.0037320202
-0.61231736
-0.0026935258
-0.61226846
-0.0017467455
-0.00086351703
-0.61874493
0.003009233
-0.61870531
0.0031477368
-0.61868488
0.0033187051
-0.61867697
0.003623215
-0.61868589
0.0040307506
-0.61871771
0.0045735399
-0.61878282
0.0052607358
-0.61889628
0.0061162858
-0.61907934
0.0071617881
-0.61936106
0.0084221579
-0.6197801
0.0099195786
-0.62038603
0.011669682
-0.62123924
0.013672213
-0.62240828
0.015899546
-0.62396202
0.018278881
-0.62595063
0.020666115
-0.62840131
0.022877949
-0.63123766
0.024550528
-0.63435507
0.025489329
-0.63760925
0.025493837
-0.64086532
0.02450677
-0.64397017
0.022443555
-0.64681216
0.019379058
-0.64920336
0.015176919
-0.65098293
0.0099694427
-0.65200538
0.0038909012
-0.65212741
-0.0029025869
-0.65115096
-0.010318435
-0.64895555
-0.017906801
-0.64547645
-0.025180509
-0.6409483
-0.031108842
-0.63574589
-0.035074727
-0.63048891
-0.036382095
-0.62598041
-0.034737583
-0.62220555
-0.032086907
-0.61932167
-0.028347613
-0.61715067
-0.024608463
-0.61559183
-0.020905644
-0.61448766
-0.017574838
-0.61372561
-0.014608133
-0.61320611
-0.012048214
-0.61285775
-0.0098493931
-0.61262678
-0.0079748985
-0.61247563
-0.0063720732
-0.61237791
-0.0049937943
-0.61231579
-0.0037941369
-0.61227743
-0.002731887
-0.61225535
-0.0017688337
-0.00087391205
-0.61919208
0.002990348
-0.61917219
0.0031278529
-0.61914016
0.0032866672
-0.61911058
0.0035936416
-0.61908746
0.0040076298
-0.61907821
0.0045642903
-0.6190918
0.005274321
-0.61914155
0.0061660392
-0.61924683
0.007267064
-0.61943559
0.0086109171
-0.61974726
0.010231256
-0.62023586
0.01215828
-0.62097201
0.014408365
-0.6220429
0.016970436
-0.62354593
0.019781907
-0.62556284
0.022683022
-0.6281631
0.02547821
-0.63125121
0.027638636
-0.63470325
0.028941373
-0.63834283
0.029133412
-0.64202064
0.028184581
-0.64555539
0.025978307
-0.64884647
0.022670142
-0.65165339
0.017983831
-0.65379207
0.012108129
-0.65512405
0.0052228819
-0.65551128
-0.0025153614
-0.65465684
-0.011172872
-0.6523298
-0.020233845
-0.64833299
-0.029177313
-0.64295088
-0.036490953
-0.63665327
-0.041372337
-0.63030262
-0.042732745
-0.62515885
-0.039881357
-0.62100702
-0.036238735
-0.61802526
-0.031329374
-0.6159007
-0.026733025
-0.61447895
-0.022327391
-0.61354545
-0.018508338
-0.6129597
-0.015193881
-0.61260463
-0.012403282
-0.61240137
-0.010052656
-0.61229351
-0.0080827643
-0.61224363
-0.0064219532
-0.61222674
-0.0050106796
-0.61222676
-0.00379412
-0.61223348
-0.0027251597
-0.61224076
-0.0017615626
-0.00086971766
-0.61944569
0.0028545069
-0.61931176
0.002993921
-0.6191903
0.0031652156
-0.61907033
0.0034736652
-0.61895263
0.0038899309
-0.61883935
0.0044510115
-0.6187372
0.0051721671
-0.61865817
0.006087014
-0.61862204
0.0072309375
-0.61865957
0.0086484472
-0.6188167
0.010388377
-0.61915937
0.012500958
-0.61977757
0.015026566
-0.62078694
0.017979807
-0.62232293
0.021317891
-0.62450194
0.02486203
-0.62744731
0.028423586
-0.63100898
0.031200307
-0.63501911
0.032951504
-0.63924438
0.033358682
-0.6435152
0.032455393
-0.6476147
0.030077811
-0.65149871
0.026554149
-0.65486978
0.021354906
-0.6575104
0.014748748
-0.65927164
0.0069841212
-0.65998281
-0.001804192
-0.65919651
-0.011959171
-0.65661884
-0.022811511
-0.65190837
-0.033887787
-0.64543116
-0.042968159
-0.6377117
-0.049091799
-0.62990962
-0.05053483
-0.62404751
-0.045743469
-0.61949382
-0.040792417
-0.61645726
-0.034365937
-0.61443355
-0.02875674
-0.61320307
-0.023557871
-0.61248586
-0.01922554
-0.61211198
-0.015567767
-0.61194788
-0.012567382
-0.61190873
-0.010091806
-0.61193726
-0.0080542313
-0.61199769
-0.0063615257
-0.6120676
-0.0049407644
-0.61213356
-0.0037281671
-0.61218767
-0.0026710486
-0.61222554
-0.001723686
-0.00085046067
-0.61985783
0.0027423223
-0.61974273
0.0028788189
-0.61961286
0.003035349
-0.61947732
0.0033381261
-0.61933626
0.0037488659
-0.61919262
0.0043073707
-0.61905096
0.0050305143
-0.61892025
0.0059563022
-0.61881611
0.0071267992
-0.61876461
0.0085969471
-0.61880735
0.010431114
-0.61900845
0.012702056
-0.61946233
0.01548045
-0.62030203
0.018819505
-0.62170363
0.022719492
-0.62383689
0.026995289
-0.6269489
0.031535594
-0.63082998
0.035081388
-0.63527062
0.037392145
-0.63997482
0.038062885
-0.64477732
0.037257888
-0.64941421
0.034714698
-0.65393509
0.031075035
-0.65789142
0.025311235
-0.66098757
0.0178449
-0.66313129
0.0091278377
-0.6643068
-0.00062868119
-0.66391888
-0.012347096
-0.66143972
-0.02529067
-0.65608213
-0.039245379
-0.64825198
-0.050798306
-0.63857096
-0.058772817
-0.62868947
-0.060416324
-0.62202266
-0.052410276
-0.61713358
-0.0456815
-0.6142116
-0.037287915
-0.61246611
-0.030502224
-0.61157829
-0.024445698
-0.61119379
-0.01961004
-0.61111435
-0.015647205
-0.61119739
-0.012484346
-0.61135901
-0.0099301776
-0.61154728
-0.0078659633
-0.61173249
-0.0061763141
-0.61189801
-0.0047752503
-0.61203512
-0.003591052
-0.61213964
-0.0025665315
-0.61220978
-0.0016535428
-0.00081529397
-0.62012826
0.0025270656
-0.61990926
0.0026598153
-0.61969073
0.0028168197
-0.61945946
0.0031068588
-0.61921093
0.0035003317
-0.61894121
0.0040376507
-0.61864963
0.0047389362
-0.61833993
0.0056465986
-0.61802335
0.0068102208
-0.61772358
0.0082971732
-0.6174843
0.010191842
-0.61738046
0.012598215
-0.61753213
0.015632114
-0.61812068
0.019408054
-0.61940389
0.024002711
-0.62163133
0.029222724
-0.62523721
0.035141474
-0.62984492
0.039689099
-0.63513543
0.042682655
-0.64069162
0.043619071
-0.64632647
0.042892747
-0.65166257
0.04005079
-0.65697186
0.036384327
-0.66168509
0.030024467
-0.66546905
0.021628863
-0.6683814
0.012040189
-0.67041239
0.0014023068
-0.67044329
-0.012316195
-0.66781518
-0.027918786
-0.66135358
-0.045706972
-0.65177011
-0.060381776
-0.63957156
-0.070971367
-0.62688422
-0.073103669
-0.61948726
-0.059807237
-0.6143597
-0.050809057
-0.6116815
-0.039966119
-0.61031536
-0.031868363
-0.60983859
-0.024922463
-0.60983286
-0.01961577
-0.61007642
-0.015403645
-0.61042456
-0.012136211
-0.61079766
-0.0095570737
-0.61115189
-0.0075117373
-0.61146522
-0.0058629774
-0.61172794
-0.0045125336
-0.61193681
-0.0033821829
-0.6120918
-0.0024115395
-0.61219407
-0.0015512759
-0.00076441186
-0.62033172
0.0023124273
-0.62011382
0.0024419128
-0.61988128
0.0025842808
-0.61963356
0.0028591455
-0.61936532
0.0032320867
-0.61907289
0.0037452208
-0.61875383
0.0044198819
-0.6184091
0.0053018611
-0.61804549
0.0064466185
-0.61768024
0.0079319189
-0.61734814
0.009859744
-0.61711338
0.012363448
-0.61708624
0.015604983
-0.61744709
0.019768899
-0.61849184
0.025047463
-0.62052504
0.03125592
-0.62435252
0.038968958
-0.62940754
0.044744116
-0.6352621
0.048537218
-0.64134636
0.049703335
-0.6475622
0.049108582
-0.65343947
0.04592806
-0.65973553
0.042680393
-0.66541352
0.035702449
-0.6698171
0.026032441
-0.67300337
0.015226465
-0.6755924
0.0039913387
-0.67648605
-0.011422548
-0.6747732
-0.029631641
-0.66790144
-0.052578731
-0.65631702
-0.071966197
-0.64038424
-0.08690414
-0.62317709
-0.090310818
-0.61498102
-0.068003315
-0.60998174
-0.055808337
-0.60798296
-0.04196489
-0.6073961
-0.032455231
-0.60761839
-0.024700173
-0.6081883
-0.019045858
-0.60887777
-0.014714178
-0.60956491
-0.011449064
-0.6101917
-0.0089302877
-0.61073501
-0.006968429
-0.61118844
-0.0054095425
-0.61155411
-0.004146862
-0.61183719
-0.00309911
-0.6120435
-0.0022052271
-0.61217809
-0.0014166898
-0.00069769706
-0.62028767
0.0020344928
-0.62000215
0.002156396
-0.61970042
0.0022825527
-0.61937082
0.0025295396
-0.61900198
0.0028632537
-0.61858226
0.0033254927
-0.61809967
0.0039372982
-0.61754308
0.0047452652
-0.61690431
0.0058078538
-0.6161831
0.0072107032
-0.61539643
0.009073075
-0.61459659
0.011563616
-0.61390227
0.014910663
-0.61354726
0.019413885
-0.61399115
0.025491348
-0.61573343
0.032998202
-0.62027421
0.043509737
-0.62651434
0.050984246
-0.63369787
0.055720749
-0.64104969
0.057055161
-0.64851932
0.056578205
-0.65521342
0.052622166
-0.66249962
0.049966587
-0.66900228
0.04220511
-0.67376608
0.030796243
-0.67802775
0.01948814
-0.68311543
0.0090790194
-0.68579844
-0.0087395454
-0.68462181
-0.030808267
-0.67573231
-0.061468229
-0.66136144
-0.086337072
-0.64098579
-0.10727979
-0.61786852
-0.11342809
-0.60979345
-0.076078384
-0.60542709
-0.060174702
-0.6043184
-0.043073579
-0.60459364
-0.032179991
-0.60551332
-0.023780495
-0.60664137
-0.017917808
-0.60775321
-0.013602336
-0.60876003
-0.010442246
-0.60962506
-0.0080652582
-0.61034583
-0.0062476606
-0.61093056
-0.0048248127
-0.61139256
-0.0036848526
-0.61174492
-0.0027467516
-0.61199904
-0.001951112
-0.61216364
-0.001252086
-0.00061638916
-0.61844798
0.0017091241
-0.6181215
0.00182992
-0.61778218
0.0019432327
-0.61741569
0.0021630436
-0.6170092
0.0024567668
-0.61654975
0.0028660409
-0.61602424
0.0034117924
-0.61542009
0.004141117
-0.61472709
0.0051148511
-0.61394157
0.0064251767
-0.61307455
0.0082060583
-0.6121676
0.010656671
-0.61132263
0.014065687
-0.61073974
0.018830999
-0.61087782
0.025629426
-0.6121287
0.034249079
-0.61707867
0.048459707
-0.62402803
0.057933608
-0.63198075
0.063673466
-0.63966372
0.064738137
-0.6473703
0.064284783
-0.65372957
0.058981437
-0.66253704
0.058774057
-0.67083193
0.050499995
-0.67708109
0.037045409
-0.6814231
0.02383015
-0.68616824
0.013824156
-0.68961164
-0.0052961439
-0.69116588
-0.029254028
-0.68434236
-0.068291754
-0.66862574
-0.10205369
-0.64165132
-0.1342542
-0.60799557
-0.14708384
-0.59977335
-0.084300601
-0.59758357
-0.062364477
-0.59849971
-0.042157447
-0.60055788
-0.030121819
-0.60273909
-0.021599287
-0.60475766
-0.015899233
-0.6064727
-0.011887301
-0.60789172
-0.0090232259
-0.60903929
-0.0069176814
-0.60995632
-0.005330633
-0.61067859
-0.0041025432
-0.61123739
-0.0031260527
-0.61165727
-0.0023268714
-0.61195699
-0.0016513901
-0.61214987
-0.0010592097
-0.00052130733
-0.61468
0.0013809894
-0.61434173
0.0014916543
-0.61396856
0.0015700619
-0.61355375
0.0017482308
-0.61307903
0.001982047
-0.61252466
0.0023116746
-0.61186555
0.0027526811
-0.61107095
0.0033465148
-0.61010301
0.0041469142
-0.60891654
0.0052387087
-0.60746156
0.0067510795
-0.60569401
0.0088891195
-0.60361348
0.011985152
-0.6013211
0.016538619
-0.59942586
0.023734187
-0.59873483
0.033558048
-0.60459184
0.054316716
-0.6136268
0.066968574
-0.62341597
0.073462637
-0.63270054
0.074022702
-0.64226053
0.073844771
-0.64992286
0.066643774
-0.66005164
0.068902835
-0.66956468
0.060013038
-0.67281361
0.040294335
-0.67555975
0.026576288
-0.68783776
0.026102166
-0.69838546
0.0052515611
-0.70477479
-0.022864697
-0.69145777
-0.081608774
-0.66947018
-0.12404129
-0.63660791
-0.16711647
-0.59326251
-0.19042924
-0.59071056
-0.086852553
-0.59175126
-0.061323774
-0.59429538
-0.039613336
-0.59769154
-0.026725659
-0.60071188
-0.018578942
-0.60334906
-0.013262054
-0.60548751
-0.0097488516
-0.60720891
-0.0073018218
-0.60857024
-0.0055563554
-0.60964036
-0.0042605129
-0.61047231
-0.0032705956
-0.61110958
-0.0024887785
-0.6115848
-0.0018516479
-0.61192215
-0.0013140405
-0.61213842
-0.00084294594
-0.00041492502
-0.60889915
0.00094259478
-0.60847699
0.0010694931
-0.60804396
0.0011370258
-0.60756855
0.001272822
-0.60703066
0.0014441562
-0.60640564
0.0016866633
-0.60566622
0.0020132581
-0.60477915
0.0024594454
-0.60370483
0.0030725887
-0.60239759
0.0039314743
-0.60081055
0.0051640334
-0.5989081
0.0069866715
-0.59672152
0.0097985734
-0.5943718
0.014188895
-0.59258167
0.021944058
-0.59141415
0.032390527
-0.5990311
0.061933665
-0.60983157
0.077769051
-0.62181584
0.085446905
-0.63158791
0.083794768
-0.64170925
0.083966112
-0.6440268
0.068961322
-0.65511051
0.038652725
-0.66330666
0.035304785
-0.67098763
0.018377242
-0.68257992
0.0097963185
-0.69423311
0.02172212
-0.70185265
0.011938564
-0.70208616
-0.0014271694
-0.69550477
-0.051803915
-0.66919167
-0.077816156
-0.62604552
-0.095781261
-0.5649135
-0.25156126
-0.56642665
-0.085339401
-0.57744642
-0.05030401
-0.58562145
-0.031438298
-0.59262417
-0.019722945
-0.59771925
-0.013483855
-0.60153665
-0.0094446596
-0.60436759
-0.0069179135
-0.60650068
-0.0051687297
-0.60811761
-0.0039394208
-0.60935088
-0.0030272482
-0.61029037
-0.0023311021
-0.61099982
-0.0017793324
-0.61152372
-0.0013277421
-0.61189318
-0.0009445833
-0.61212905
-0.00060707494
-0.00029902667
-0.59741962
0.00059997238
-0.59708887
0.00073874565
-0.59670836
0.00075651543
-0.59627801
0.00084247241
-0.59577504
0.0009411868
-0.59517432
0.001085941
-0.59444191
0.0012808418
-0.59353227
0.0015498062
-0.59238256
0.0019228853
-0.59090307
0.0024519851
-0.58896206
0.0032230168
-0.586354
0.0043786195
-0.58278703
0.0062316008
-0.57760887
0.0090107313
-0.57041437
0.014749563
-0.56099691
0.022973061
-0.57315779
0.038016396
-0.58994803
0.043107674
-0.59541278
0.047121636
-0.58118023
0.042625399
-0.48614137
0.043807455
-0.20207768
0.024238854
0
0
0
0
0
0
0
0
0
0
0
0
0
0
0
0
0
0
-0.25087106
0
-0.51606815
-0.1466396
-0.56674523
-0.034662325
-0.57828496
-0.038764279
-0.58398317
-0.025740089
-0.59145656
-0.012249553
-0.59672595
-0.0082144619
-0.60082551
-0.0053451057
-0.60385402
-0.003889404
-0.60614079
-0.0028819569
-0.60786866
-0.0022115471
-0.60918275
-0.0017131654
-0.61018054
-0.0013333082
-0.61093181
-0.0010280576
-0.61148523
-0.0007743242
-0.61187473
-0.00055508328
-0.61212304
-0.00035876912
-0.00017715944
-0.42161971
-0.00039715602
-0.42034743
-0.00053353709
-0.41904304
-0.00054787672
-0.41757372
-0.00062684365
-0.41591612
-0.00071641651
-0.41398122
-0.00084896336
-0.41167174
-0.0010286311
-0.40884316
-0.0012787787
-0.4052913
-0.0016289729
-0.40070898
-0.0021303328
-0.39461827