/*--------------------------------*- C++ -*----------------------------------*\
| =========                 |                                                 |
| \\      /  F ield         | foam-extend: Open Source CFD                    |
|  \\    /   O peration     | Version:     4.1                                |
|   \\  /    A nd           | Web:         http://www.foam-extend.org         |
|    \\/     M anipulation  |                                                 |
\*---------------------------------------------------------------------------*/
FoamFile
{
    version     2.0;
    format      ascii;
    class       volVectorField;
    location    "0.07";
    object      U;
}
// * * * * * * * * * * * * * * * * * * * * * * * * * * * * * * * * * * * * * //

dimensions      [0 1 -1 0 0 0 0];

internalField   nonuniform List<vector> 
4393
(
(147.32059 -0.076934098 0)
(147.5274 -0.089375772 0)
(147.65521 -0.090903528 0)
(147.82425 -0.094942143 0)
(147.98722 -0.098478571 0)
(148.16591 -0.10276209 0)
(148.35415 -0.10745809 0)
(148.5575 -0.11267299 0)
(148.77658 -0.11831075 0)
(149.01387 -0.12430292 0)
(149.27069 -0.13051422 0)
(149.54822 -0.13676462 0)
(149.8468 -0.14280782 0)
(150.16595 -0.14833155 0)
(150.50402 -0.15295803 0)
(150.85807 -0.15625708 0)
(151.22367 -0.1577696 0)
(151.5949 -0.1570403 0)
(151.9644 -0.15366151 0)
(152.32359 -0.14730954 0)
(152.66296 -0.13778348 0)
(152.97254 -0.12502938 0)
(153.24238 -0.10916383 0)
(153.46306 -0.090481105 0)
(153.62632 -0.069463054 0)
(153.72565 -0.046762961 0)
(153.75679 -0.023182533 0)
(153.71836 0.00046046685 0)
(153.61155 0.023035625 0)
(153.44146 0.043295219 0)
(153.21632 0.060267895 0)
(152.94703 0.073221919 0)
(152.64625 0.081756882 0)
(152.32736 0.085848125 0)
(152.00324 0.085826226 0)
(151.68541 0.082252584 0)
(151.38337 0.075864223 0)
(151.10438 0.067413242 0)
(150.85344 0.057634038 0)
(150.63354 0.0471508 0)
(150.44598 0.036479355 0)
(150.29075 0.026004625 0)
(150.16693 0.016004943 0)
(150.07298 0.0066699629 0)
(150.007 -0.0018571762 0)
(149.9668 -0.0094530382 0)
(149.95002 -0.015756174 0)
(149.95723 -0.020128114 0)
(149.96526 -0.025376221 0)
(150.75864 -0.097962313 0)
(150.88455 -0.1134815 0)
(150.94815 -0.1159074 0)
(151.0453 -0.12320757 0)
(151.13778 -0.13097914 0)
(151.24517 -0.14138033 0)
(151.36223 -0.1538963 0)
(151.49428 -0.16877657 0)
(151.6421 -0.18581967 0)
(151.80819 -0.20482011 0)
(151.99394 -0.22536121 0)
(152.2006 -0.24685548 0)
(152.42863 -0.26849167 0)
(152.67762 -0.28923542 0)
(152.94603 -0.30783601 0)
(153.23096 -0.32287033 0)
(153.52802 -0.33281932 0)
(153.83127 -0.33617159 0)
(154.13327 -0.331562 0)
(154.42528 -0.31788447 0)
(154.69765 -0.29441412 0)
(154.94018 -0.26088302 0)
(155.14266 -0.21755851 0)
(155.29543 -0.16527126 0)
(155.38999 -0.10546055 0)
(155.41957 -0.040138675 0)
(155.37979 0.028139765 0)
(155.2691 0.096481583 0)
(155.08968 0.16163545 0)
(154.84656 0.22027133 0)
(154.54805 0.2694555 0)
(154.20515 0.30696113 0)
(153.83074 0.33152001 0)
(153.43841 0.34299762 0)
(153.04122 0.34233737 0)
(152.65077 0.33116883 0)
(152.2766 0.31166049 0)
(151.92588 0.28601608 0)
(151.60352 0.25639255 0)
(151.31237 0.22461014 0)
(151.0536 0.19216448 0)
(150.82712 0.16015 0)
(150.63193 0.1293278 0)
(150.46646 0.10016092 0)
(150.32885 0.072909695 0)
(150.21709 0.047674806 0)
(150.12925 0.024794832 0)
(150.06382 0.0050540512 0)
(150.01828 -0.016043743 0)
(150.89303 -0.18599255 0)
(151.01241 -0.19769052 0)
(151.07202 -0.20426019 0)
(151.16293 -0.21732795 0)
(151.24943 -0.23237827 0)
(151.35025 -0.2513763 0)
(151.46065 -0.27360069 0)
(151.58587 -0.29926224 0)
(151.72684 -0.3280179 0)
(151.88616 -0.35950346 0)
(152.06538 -0.39304428 0)
(152.26596 -0.42769378 0)
(152.48855 -0.46214783 0)
(152.73298 -0.49473609 0)
(152.99791 -0.52342755 0)
(153.28064 -0.54589734 0)
(153.57688 -0.55965206 0)
(153.88071 -0.56220149 0)
(154.18459 -0.55129998 0)
(154.47962 -0.52513321 0)
(154.75587 -0.48252878 0)
(155.0028 -0.42307702 0)
(155.20981 -0.34726477 0)
(155.36678 -0.25651327 0)
(155.46471 -0.15326653 0)
(155.49636 -0.040928154 0)
(155.45689 0.07616461 0)
(155.34439 0.19293257 0)
(155.16036 0.30392525 0)
(154.90992 0.4037252 0)
(154.60178 0.48735744 0)
(154.24769 0.55105249 0)
(153.86145 0.59266483 0)
(153.45767 0.61201765 0)
(153.05017 0.6108195 0)
(152.65113 0.59190889 0)
(152.27031 0.55905965 0)
(151.91489 0.51603955 0)
(151.5896 0.46652955 0)
(151.29698 0.41359682 0)
(151.0379 0.35975285 0)
(150.81192 0.30681648 0)
(150.61774 0.25604504 0)
(150.45356 0.20818802 0)
(150.31732 0.16363679 0)
(150.20692 0.12250639 0)
(150.12052 0.084917013 0)
(150.05553 0.051250599 0)
(150.01396 0.019805608 0)
(150.91306 -0.20750428 0)
(151.02315 -0.21800378 0)
(151.08164 -0.22511551 0)
(151.16894 -0.24003751 0)
(151.25318 -0.25843521 0)
(151.35142 -0.28252954 0)
(151.45953 -0.31163789 0)
(151.58258 -0.34607964 0)
(151.72169 -0.38549215 0)
(151.87954 -0.42943501 0)
(152.05792 -0.47702794 0)
(152.25849 -0.5269808 0)
(152.48219 -0.577472 0)
(152.72914 -0.62612651 0)
(152.99825 -0.67001876 0)
(153.287 -0.70576458 0)
(153.59119 -0.72970446 0)
(153.90479 -0.73815195 0)
(154.22003 -0.72776551 0)
(154.52756 -0.69581073 0)
(154.81691 -0.64047502 0)
(155.07688 -0.56102589 0)
(155.29614 -0.45801185 0)
(155.46381 -0.3333007 0)
(155.57012 -0.19024227 0)
(155.60706 -0.033571056 0)
(155.56918 0.13061627 0)
(155.45403 0.2951609 0)
(155.26291 0.45209514 0)
(155.00112 0.59335751 0)
(154.67809 0.71155925 0)
(154.30672 0.801098 0)
(153.90227 0.85877921 0)
(153.48094 0.884383 0)
(153.05777 0.88056957 0)
(152.64578 0.85155332 0)
(152.25511 0.80296013 0)
(151.89289 0.74025594 0)
(151.56355 0.66876964 0)
(151.26917 0.59284746 0)
(151.0101 0.51602244 0)
(150.78539 0.44079906 0)
(150.59335 0.36888039 0)
(150.43183 0.30124222 0)
(150.29853 0.23835318 0)
(150.19129 0.18031707 0)
(150.10831 0.12714519 0)
(150.04691 0.07890726 0)
(150.01055 0.035432339 0)
(150.94715 -0.28092444 0)
(151.05464 -0.29329875 0)
(151.11114 -0.30500307 0)
(151.19435 -0.32650637 0)
(151.27457 -0.35311071 0)
(151.36808 -0.3868854 0)
(151.47139 -0.42699081 0)
(151.58956 -0.47368335 0)
(151.724 -0.52648352 0)
(151.87767 -0.58480624 0)
(152.05268 -0.64753475 0)
(152.25112 -0.71303151 0)
(152.47438 -0.77897655 0)
(152.72301 -0.84232168 0)
(152.99637 -0.89927908 0)
(153.29224 -0.94542719 0)
(153.60655 -0.97594927 0)
(153.93315 -0.98595422 0)
(154.2639 -0.97101574 0)
(154.58886 -0.9275023 0)
(154.89677 -0.85302109 0)
(155.1755 -0.74659736 0)
(155.41272 -0.60896 0)
(155.59644 -0.44255067 0)
(155.71573 -0.25180168 0)
(155.76151 -0.042969314 0)
(155.72733 0.17586463 0)
(155.60995 0.39513163 0)
(155.4103 0.60419612 0)
(155.13388 0.79224068 0)
(154.79106 0.94919281 0)
(154.39638 1.0674198 0)
(153.96725 1.1425718 0)
(153.52218 1.1745029 0)
(153.07797 1.1672269 0)
(152.64877 1.1266444 0)
(152.2452 1.0606745 0)
(151.87424 0.97671273 0)
(151.53988 0.88195734 0)
(151.24348 0.78210284 0)
(150.98465 0.68173529 0)
(150.76175 0.58400401 0)
(150.57248 0.49099194 0)
(150.41418 0.40379972 0)
(150.28422 0.32283835 0)
(150.1802 0.24799333 0)
(150.10027 0.1788667 0)
(150.04168 0.11486739 0)
(150.00862 0.055318479 0)
(150.98712 -0.30563476 0)
(151.08145 -0.31673004 0)
(151.1339 -0.32803284 0)
(151.21131 -0.35004804 0)
(151.28743 -0.37852475 0)
(151.37672 -0.41580057 0)
(151.4763 -0.46122011 0)
(151.59096 -0.51523271 0)
(151.72241 -0.57747634 0)
(151.87375 -0.64742601 0)
(152.04747 -0.72390483 0)
(152.24604 -0.80506 0)
(152.47133 -0.88814497 0)
(152.72444 -0.96943238 0)
(153.0052 -1.0441747 0)
(153.31177 -1.1067203 0)
(153.64025 -1.1508228 0)
(153.98437 -1.1700448 0)
(154.33548 -1.158547 0)
(154.6829 -1.1114753 0)
(155.01436 -1.0255755 0)
(155.31659 -0.89935562 0)
(155.57597 -0.73347981 0)
(155.77916 -0.53069186 0)
(155.91382 -0.29630273 0)
(155.96954 -0.037928499 0)
(155.93866 0.23440788 0)
(155.81701 0.50872805 0)
(155.60502 0.77123522 0)
(155.30838 1.0076642 0)
(154.93863 1.2044872 0)
(154.5125 1.3514607 0)
(154.05026 1.4427094 0)
(153.57368 1.4781873 0)
(153.10188 1.4638085 0)
(152.65046 1.4075061 0)
(152.23058 1.3200887 0)
(151.8489 1.2111253 0)
(151.50872 1.0899453 0)
(151.21038 0.96363248 0)
(150.95253 0.8378404 0)
(150.73257 0.71629752 0)
(150.54742 0.60140323 0)
(150.3938 0.49432159 0)
(150.26865 0.39538235 0)
(150.16921 0.30427908 0)
(150.09341 0.2203182 0)
(150.03835 0.14250471 0)
(150.00775 0.069838774 0)
(151.04243 -0.35967798 0)
(151.13512 -0.37480261 0)
(151.18441 -0.39153414 0)
(151.25623 -0.42153551 0)
(151.32634 -0.45973202 0)
(151.40862 -0.50850754 0)
(151.50085 -0.56706389 0)
(151.60787 -0.63583435 0)
(151.73176 -0.71438686 0)
(151.87601 -0.80209751 0)
(152.04363 -0.89759638 0)
(152.23775 -0.99870998 0)
(152.461 -1.1021867 0)
(152.71529 -1.2035612 0)
(153.00124 -1.2970731 0)
(153.31765 -1.375774 0)
(153.66097 -1.431908 0)
(154.02478 -1.4573691 0)
(154.39987 -1.4448526 0)
(154.77459 -1.3882506 0)
(155.13543 -1.283505 0)
(155.46765 -1.1286907 0)
(155.75608 -0.92458409 0)
(155.98562 -0.67440362 0)
(156.1421 -0.38466273 0)
(156.21328 -0.064690379 0)
(156.18978 0.27315842 0)
(156.0658 0.61390428 0)
(155.84076 0.94022189 0)
(155.52036 1.2340426 0)
(155.11765 1.4777803 0)
(154.65229 1.6581376 0)
(154.14848 1.7674008 0)
(153.63262 1.8057943 0)
(153.12685 1.7821163 0)
(152.64859 1.7068287 0)
(152.20956 1.5945578 0)
(151.81576 1.4573681 0)
(151.46953 1.3071043 0)
(151.16977 1.1522812 0)
(150.91388 0.99963483 0)
(150.69803 0.85335922 0)
(150.51821 0.71604302 0)
(150.37039 0.58875413 0)
(150.25096 0.47158069 0)
(150.15682 0.36385798 0)
(150.08567 0.26445376 0)
(150.03455 0.17187748 0)
(150.00675 0.084740951 0)
(151.10036 -0.39222622 0)
(151.17375 -0.40555907 0)
(151.21634 -0.42067693 0)
(151.2795 -0.4495303 0)
(151.34316 -0.48754719 0)
(151.41896 -0.5375014 0)
(151.50528 -0.5988966 0)
(151.60671 -0.67251053 0)
(151.72564 -0.75822435 0)
(151.86583 -0.8557065 0)
(152.03077 -0.96378774 0)
(152.2242 -1.0803399 0)
(152.44952 -1.2019049 0)
(152.7095 -1.3234639 0)
(153.00563 -1.4382666 0)
(153.33738 -1.537898 0)
(153.70163 -1.6127547 0)
(154.09178 -1.6525335 0)
(154.49785 -1.6479974 0)
(154.90699 -1.5913101 0)
(155.30414 -1.4772513 0)
(155.67278 -1.3030931 0)
(155.99588 -1.0694192 0)
(156.25626 -0.77944899 0)
(156.43752 -0.44052628 0)
(156.52534 -0.063265539 0)
(156.50837 0.33795269 0)
(156.37911 0.74557727 0)
(156.13584 1.1380853 0)
(155.78405 1.4924449 0)
(155.33847 1.7854493 0)
(154.82242 1.9996113 0)
(154.26521 2.1245574 0)
(153.69963 2.1607905 0)
(153.15166 2.1214858 0)
(152.64081 2.0201324 0)
(152.17931 1.8764611 0)
(151.77197 1.7052945 0)
(151.41974 1.5214264 0)
(151.11954 1.3347434 0)
(150.86716 1.1530232 0)
(150.65721 0.98074437 0)
(150.48454 0.82053317 0)
(150.34422 0.67320992 0)
(150.23199 0.53851297 0)
(150.14431 0.41534133 0)
(150.07853 0.30207895 0)
(150.03159 0.19670447 0)
(150.00617 0.097296568 0)
(151.17443 -0.4172181 0)
(151.24837 -0.43558702 0)
(151.28739 -0.45694455 0)
(151.34403 -0.49512795 0)
(151.40016 -0.54452021 0)
(151.46694 -0.60811158 0)
(151.54348 -0.68533078 0)
(151.63438 -0.77704751 0)
(151.74245 -0.88317574 0)
(151.87188 -1.0033885 0)
(152.02687 -1.136417 0)
(152.21209 -1.279878 0)
(152.43209 -1.4298178 0)
(152.69098 -1.580393 0)
(152.99165 -1.7236034 0)
(153.3348 -1.849295 0)
(153.71814 -1.9457536 0)
(154.13502 -2.0000954 0)
(154.57459 -2.0010088 0)
(155.02251 -1.9388129 0)
(155.46188 -1.8072143 0)
(155.87407 -1.6027463 0)
(156.23993 -1.3260488 0)
(156.53987 -0.98043768 0)
(156.75475 -0.5746211 0)
(156.86764 -0.12114577 0)
(156.86446 0.36280072 0)
(156.73458 0.85583799 0)
(156.47385 1.3315117 0)
(156.08688 1.7613454 0)
(155.59038 2.1153139 0)
(155.01259 2.3709188 0)
(154.38973 2.5142961 0)
(153.76391 2.5463363 0)
(153.16597 2.487175 0)
(152.6177 2.3538474 0)
(152.13172 2.1731413 0)
(151.71075 1.9628802 0)
(151.35383 1.7414316 0)
(151.0552 1.5199466 0)
(150.80865 1.30721 0)
(150.60691 1.1077498 0)
(150.44353 0.92403602 0)
(150.31256 0.75643479 0)
(150.2091 0.6041753 0)
(150.12915 0.46560062 0)
(150.06977 0.3385547 0)
(150.02783 0.22050432 0)
(150.00537 0.10911575 0)
(151.24603 -0.46505949 0)
(151.29312 -0.48108015 0)
(151.32255 -0.49976768 0)
(151.36706 -0.53512444 0)
(151.41383 -0.58207985 0)
(151.47113 -0.64405554 0)
(151.53877 -0.72086359 0)
(151.62101 -0.81386409 0)
(151.72105 -0.92350924 0)
(151.84343 -1.0500782 0)
(151.99303 -1.1929032 0)
(152.17538 -1.3501073 0)
(152.39619 -1.5179934 0)
(152.66092 -1.6905365 0)
(152.97393 -1.8588917 0)
(153.33717 -2.0112052 0)
(153.74931 -2.1333515 0)
(154.20348 -2.209009 0)
(154.68754 -2.2241647 0)
(155.18528 -2.1665918 0)
(155.67749 -2.028536 0)
(156.14302 -1.8053363 0)
(156.56032 -1.4975034 0)
(156.90681 -1.1077043 0)
(157.15997 -0.64555108 0)
(157.29983 -0.12462274 0)
(157.30929 0.43617394 0)
(157.17476 1.0135469 0)
(156.8895 1.575523 0)
(156.4566 2.086248 0)
(155.89474 2.5055289 0)
(155.23803 2.8035741 0)
(154.53142 2.9610706 0)
(153.8304 2.9789789 0)
(153.17177 2.8887156 0)
(152.57948 2.7111434 0)
(152.06631 2.4829352 0)
(151.63144 2.2248517 0)
(151.2714 1.959491 0)
(150.97673 1.6988602 0)
(150.73878 1.4525432 0)
(150.54797 1.2246881 0)
(150.39637 1.0172932 0)
(150.27687 0.82997632 0)
(150.18387 0.66124396 0)
(150.11291 0.50871673 0)
(150.06074 0.36957503 0)
(150.02419 0.24066886 0)
(150.00468 0.11914624 0)
(151.33547 -0.44835756 0)
(151.38661 -0.46946109 0)
(151.41284 -0.49454094 0)
(151.45073 -0.53972159 0)
(151.48921 -0.59898688 0)
(151.5362 -0.67616904 0)
(151.59217 -0.77120314 0)
(151.66129 -0.88576282 0)
(151.74709 -1.0205687 0)
(151.85451 -1.1761455 0)
(151.98919 -1.3519556 0)
(152.15779 -1.5460542 0)
(152.36764 -1.7543417 0)
(152.62628 -1.9698983 0)
(152.94049 -2.1822897 0)
(153.3145 -2.3771683 0)
(153.74901 -2.5373128 0)
(154.23731 -2.6418661 0)
(154.76582 -2.6738437 0)
(155.31606 -2.6182345 0)
(155.86607 -2.4661269 0)
(156.39173 -2.2117133 0)
(156.86899 -1.8557968 0)
(157.27216 -1.3998743 0)
(157.57483 -0.85508547 0)
(157.75383 -0.23701996 0)
(157.78838 0.4321429 0)
(157.65915 1.1244821 0)
(157.3537 1.8006594 0)
(156.87127 2.4171436 0)
(156.23257 2.9212511 0)
(155.47978 3.2746599 0)
(154.66962 3.4504163 0)
(153.87807 3.4488575 0)
(153.14933 3.3200874 0)
(152.50863 3.0882979 0)
(151.96857 2.8042932 0)
(151.52245 2.4913022 0)
(151.1635 2.1771272 0)
(150.87727 1.8740805 0)
(150.65232 1.5923849 0)
(150.47632 1.3353541 0)
(150.33979 1.1042213 0)
(150.23445 0.89757917 0)
(150.15407 0.71303353 0)
(150.09375 0.54736628 0)
(150.05005 0.39704585 0)
(150.0198 0.25830793 0)
(150.00381 0.12782722 0)
(151.41641 -0.52122759 0)
(151.43263 -0.54008081 0)
(151.44603 -0.56223256 0)
(151.46777 -0.60370976 0)
(151.49322 -0.65893748 0)
(151.52669 -0.7320713 0)
(151.56943 -0.82339319 0)
(151.62519 -0.93510327 0)
(151.69793 -1.0686126 0)
(151.79305 -1.2253547 0)
(151.91708 -1.4058819 0)
(152.07794 -1.6094412 0)
(152.28465 -1.8330244 0)
(152.54691 -2.0703958 0)
(152.87402 -2.3109167 0)
(153.27244 -2.5385313 0)
(153.74518 -2.7331206 0)
(154.28515 -2.8677685 0)
(154.87631 -2.9218103 0)
(155.49702 -2.876349 0)
(156.12191 -2.7209845 0)
(156.72336 -2.4480422 0)
(157.27493 -2.0589978 0)
(157.74718 -1.5529756 0)
(158.1082 -0.94290688 0)
(158.33071 -0.24537762 0)
(158.38968 0.51675245 0)
(158.2604 1.3172044 0)
(157.92509 2.11037 0)
(157.37783 2.8422434 0)
(156.64066 3.4398754 0)
(155.76493 3.851588 0)
(154.82137 4.0377741 0)
(153.9169 3.9959222 0)
(153.10444 3.808181 0)
(152.40827 3.5003431 0)
(151.84061 3.1437797 0)
(151.3853 2.7627387 0)
(151.03159 2.3911372 0)
(150.75831 2.0403159 0)
(150.55083 1.7205537 0)
(150.39355 1.433459 0)
(150.27539 1.1789376 0)
(150.18684 0.95408686 0)
(150.12106 0.75530429 0)
(150.07284 0.5783188 0)
(150.03857 0.41875155 0)
(150.0152 0.27213771 0)
(150.00293 0.1346285 0)
(151.51649 -0.44904897 0)
(151.54085 -0.47156151 0)
(151.55208 -0.49870485 0)
(151.56801 -0.54843146 0)
(151.58551 -0.61471825 0)
(151.60857 -0.70240107 0)
(151.63896 -0.81228032 0)
(151.68011 -0.9472949 0)
(151.73604 -1.1096258 0)
(151.81226 -1.3015089 0)
(151.91586 -1.524216 0)
(152.05585 -1.7774888 0)
(152.24323 -2.0583447 0)
(152.4906 -2.3598041 0)
(152.8113 -2.6692749 0)
(153.21587 -2.9668922 0)
(153.71229 -3.2279382 0)
(154.29423 -3.4161522 0)
(154.94282 -3.5066824 0)
(155.63275 -3.4762667 0)
(156.33463 -3.3141877 0)
(157.01641 -3.0112287 0)
(157.64955 -2.5710669 0)
(158.20067 -1.9878146 0)
(158.63169 -1.2760893 0)
(158.91277 -0.45387155 0)
(159.01613 0.45307787 0)
(158.90738 1.4143764 0)
(158.55565 2.3716319 0)
(157.94243 3.2609551 0)
(157.08973 3.9845855 0)
(156.06203 4.4769652 0)
(154.94883 4.680155 0)
(153.90727 4.5837888 0)
(153.00078 4.3248816 0)
(152.24712 3.9248111 0)
(151.65792 3.4849693 0)
(151.20147 3.0275361 0)
(150.86241 2.5939669 0)
(150.61051 2.1930623 0)
(150.42786 1.8347589 0)
(150.29521 1.5181842 0)
(150.20006 1.2415137 0)
(150.13179 1.0000164 0)
(150.08324 0.78870031 0)
(150.04901 0.60213939 0)
(150.02552 0.43507291 0)
(150.00994 0.28233937 0)
(150.00191 0.13959013 0)
(151.6022 -0.55696777 0)
(151.58483 -0.5787498 0)
(151.58008 -0.60437499 0)
(151.5757 -0.65157524 0)
(151.57581 -0.71434775 0)
(151.58016 -0.79757328 0)
(151.59128 -0.90214732 0)
(151.612 -1.0313275 0)
(151.64676 -1.1878725 0)
(151.70157 -1.3749807 0)
(151.78464 -1.5953427 0)
(151.90675 -1.8506109 0)
(152.08141 -2.1400727 0)
(152.32475 -2.459048 0)
(152.65468 -2.7964716 0)
(153.08572 -3.1315502 0)
(153.6318 -3.4373981 0)
(154.28583 -3.6653657 0)
(155.02305 -3.7862581 0)
(155.81233 -3.7707859 0)
(156.61891 -3.6080299 0)
(157.40552 -3.2851259 0)
(158.14351 -2.8094417 0)
(158.79613 -2.1665711 0)
(159.31565 -1.376574 0)
(159.66744 -0.46119805 0)
(159.81881 0.5535471 0)
(159.72428 1.6507764 0)
(159.3424 2.7694579 0)
(158.64061 3.8347127 0)
(157.63943 4.7046518 0)
(156.41699 5.2884684 0)
(155.08086 5.4962477 0)
(153.8679 5.2984426 0)
(152.85289 4.9302055 0)
(152.03586 4.3980267 0)
(151.42971 3.8479743 0)
(150.97833 3.2946162 0)
(150.66208 2.7878437 0)
(150.4388 2.3308152 0)
(150.2874 1.9317492 0)
(150.18444 1.5857256 0)
(150.11627 1.2882734 0)
(150.07122 1.0321726 0)
(150.04203 0.81066065 0)
(150.02328 0.61693358 0)
(150.01154 0.44473875 0)
(150.00437 0.28817584 0)
(150.00084 0.142392 0)
(151.70595 -0.4179288 0)
(151.69952 -0.43985332 0)
(151.69387 -0.46654347 0)
(151.68513 -0.51687603 0)
(151.67873 -0.58530426 0)
(151.67407 -0.67769615 0)
(151.67401 -0.79604178 0)
(151.68071 -0.94500412 0)
(151.69825 -1.1290055 0)
(151.73215 -1.3531773 0)
(151.79053 -1.6223072 0)
(151.88465 -1.9401021 0)
(152.02968 -2.3074155 0)
(152.2451 -2.7200291 0)
(152.55498 -3.165208 0)
(152.98039 -3.6161634 0)
(153.54795 -4.039826 0)
(154.25285 -4.3647819 0)
(155.06346 -4.5563396 0)
(155.94236 -4.5777306 0)
(156.84932 -4.4212109 0)
(157.74014 -4.0717505 0)
(158.58736 -3.5480251 0)
(159.34909 -2.8200424 0)
(159.96318 -1.9109235 0)
(160.39564 -0.84191534 0)
(160.62084 0.36417683 0)
(160.58121 1.6955108 0)
(160.20685 3.0615736 0)
(159.42717 4.376852 0)
(158.25262 5.4450173 0)
(156.78265 6.1585605 0)
(155.14744 6.3818921 0)
(153.72073 6.0422407 0)
(152.5912 5.5467144 0)
(151.71611 4.8580687 0)
(151.11264 4.1878262 0)
(150.6849 3.5323109 0)
(150.40995 2.951661 0)
(150.22978 2.4400054 0)
(150.12108 2.0031567 0)
(150.05614 1.6311225 0)
(150.02092 1.3163965 0)
(150.00326 1.0490163 0)
(149.99629 0.82036698 0)
(149.99494 0.62226006 0)
(149.99622 0.44749131 0)
(149.99825 0.28948341 0)
(149.99965 0.14294016 0)
(151.7928 -0.56706591 0)
(151.74204 -0.59176516 0)
(151.71831 -0.62077032 0)
(151.68604 -0.67308155 0)
(151.658 -0.74239293 0)
(151.62893 -0.83426731 0)
(151.60216 -0.95033522 0)
(151.57889 -1.0950798 0)
(151.56324 -1.272948 0)
(151.561 -1.4894977 0)
(151.58134 -1.7505721 0)
(151.63767 -2.061867 0)
(151.74886 -2.4273621 0)
(151.94012 -2.8472074 0)
(152.24447 -3.31363 0)
(152.69001 -3.8013832 0)
(153.32049 -4.2818078 0)
(154.12961 -4.6537988 0)
(155.06948 -4.880156 0)
(156.0908 -4.9150577 0)
(157.14429 -4.7575434 0)
(158.17492 -4.3836896 0)
(159.16408 -3.8264614 0)
(160.07188 -3.0219494 0)
(160.81662 -2.0079958 0)
(161.36401 -0.82301416 0)
(161.68879 0.49702041 0)
(161.70314 1.9832565 0)
(161.31408 3.5636958 0)
(160.41731 5.1632156 0)
(159.01675 6.4843968 0)
(157.23219 7.3695399 0)
(155.19439 7.5978484 0)
(153.5016 7.0022188 0)
(152.25442 6.3052551 0)
(151.32096 5.3858751 0)
(150.73669 4.551476 0)
(150.34485 3.7653334 0)
(150.12437 3.0967713 0)
(149.99689 2.5246451 0)
(149.93855 2.0492559 0)
(149.91703 1.6530494 0)
(149.91865 1.324072 0)
(149.93102 1.0488121 0)
(149.94805 0.81639003 0)
(149.96525 0.61706038 0)
(149.98026 0.44262181 0)
(149.99192 0.28584713 0)
(149.99844 0.14104699 0)
(151.88872 -0.35780548 0)
(151.84756 -0.37689654 0)
(151.82353 -0.40003614 0)
(151.78798 -0.44585339 0)
(151.7553 -0.50959079 0)
(151.71962 -0.59791775 0)
(151.68452 -0.71404657 0)
(151.65028 -0.86452647 0)
(151.62026 -1.0565832 0)
(151.59907 -1.2994411 0)
(151.5947 -1.6036069 0)
(151.61963 -1.9803865 0)
(151.69267 -2.4397756 0)
(151.84107 -2.9872902 0)
(152.10572 -3.617674 0)
(152.52153 -4.2973227 0)
(153.16584 -4.9939671 0)
(154.03933 -5.5426664 0)
(155.07393 -5.9010908 0)
(156.20814 -6.0096688 0)
(157.38754 -5.8796759 0)
(158.54527 -5.4789275 0)
(159.68088 -4.8855957 0)
(160.749 -3.9933519 0)
(161.6197 -2.8537348 0)
(162.25988 -1.5136095 0)
(162.68833 0.028712778 0)
(162.82287 1.8703071 0)
(162.52037 3.8523123 0)
(161.56706 5.8867523 0)
(159.91449 7.5316274 0)
(157.71499 8.6453314 0)
(155.09107 8.8959464 0)
(153.04513 7.9215357 0)
(151.7001 7.0066434 0)
(150.73364 5.8288365 0)
(150.21909 4.834463 0)
(149.90209 3.9246304 0)
(149.76998 3.1798547 0)
(149.71876 2.5583585 0)
(149.7275 2.0544713 0)
(149.76029 1.6425355 0)
(149.80582 1.3062556 0)
(149.85263 1.0287878 0)
(149.89635 0.79723643 0)
(149.93372 0.60054155 0)
(149.96342 0.429712 0)
(149.98525 0.27705098 0)
(149.99715 0.13661355 0)
(151.97679 -0.54453151 0)
(151.89646 -0.57174915 0)
(151.85487 -0.60334525 0)
(151.79545 -0.659241 0)
(151.73894 -0.73297264 0)
(151.67474 -0.83080478 0)
(151.60624 -0.95523655 0)
(151.53197 -1.1121638 0)
(151.45423 -1.3080695 0)
(151.37662 -1.5514915 0)
(151.30689 -1.8525308 0)
(151.25882 -2.2228746 0)
(151.25515 -2.6743643 0)
(151.33137 -3.2170637 0)
(151.54675 -3.854563 0)
(151.94748 -4.5576512 0)
(152.66553 -5.3276481 0)
(153.70028 -5.9191891 0)
(154.93371 -6.2988392 0)
(156.28019 -6.3927359 0)
(157.67238 -6.2484258 0)
(159.01003 -5.811294 0)
(160.32456 -5.2219089 0)
(161.59277 -4.2345444 0)
(162.63132 -2.9326042 0)
(163.44132 -1.4001599 0)
(164.09466 0.26580701 0)
(164.40268 2.2389361 0)
(164.15152 4.4446101 0)
(163.04252 6.9355938 0)
(161.03431 9.0661355 0)
(158.32455 10.574708 0)
(154.8969 10.890786 0)
(152.42578 9.242096 0)
(151.04231 7.9485123 0)
(150.0559 6.3740565 0)
(149.64924 5.1431137 0)
(149.4233 4.0690495 0)
(149.39482 3.2305226 0)
(149.42792 2.5554362 0)
(149.50939 2.0249096 0)
(149.59974 1.6018433 0)
(149.69115 1.2634717 0)
(149.77348 0.98882045 0)
(149.84446 0.76261179 0)
(149.90223 0.57243464 0)
(149.94667 0.40857379 0)
(149.97865 0.26298671 0)
(149.99589 0.1295897 0)
(152.02641 -0.27628905 0)
(151.94717 -0.29096557 0)
(151.90389 -0.30771613 0)
(151.84015 -0.34394558 0)
(151.77948 -0.39550522 0)
(151.71001 -0.46926585 0)
(151.63558 -0.56905564 0)
(151.55384 -0.70265425 0)
(151.46642 -0.87961905 0)
(151.37551 -1.1133595 0)
(151.28702 -1.4214843 0)
(151.21226 -1.8268196 0)
(151.17107 -2.3565958 0)
(151.19607 -3.0403562 0)
(151.35412 -3.9038283 0)
(151.68114 -4.9153496 0)
(152.39916 -6.1047888 0)
(153.53073 -7.0271203 0)
(154.89466 -7.6521215 0)
(156.37547 -7.8904965 0)
(157.90725 -7.8205098 0)
(159.36048 -7.3381144 0)
(160.86377 -6.7200053 0)
(162.40838 -5.6222662 0)
(163.6471 -4.1636769 0)
(164.53774 -2.5986258 0)
(165.26905 -0.86084407 0)
(165.75938 1.6430693 0)
(165.79477 4.5799422 0)
(164.7983 7.9858793 0)
(162.49665 10.644601 0)
(159.10057 12.567996 0)
(154.37773 12.954034 0)
(151.25571 10.231782 0)
(149.95509 8.6077415 0)
(149.03149 6.6485766 0)
(148.85121 5.2466602 0)
(148.79671 4.0588843 0)
(148.9314 3.1692139 0)
(149.0861 2.471496 0)
(149.2633 1.9366402 0)
(149.42454 1.5183494 0)
(149.56926 1.1892679 0)
(149.69104 0.92572841 0)
(149.79123 0.7110307 0)
(149.87028 0.53210101 0)
(149.9298 0.37896809 0)
(149.972 0.2435847 0)
(149.99461 0.11995982 0)
(152.02902 -0.48131746 0)
(151.9258 -0.51011076 0)
(151.86947 -0.54183181 0)
(151.78641 -0.5976057 0)
(151.70432 -0.67079011 0)
(151.60726 -0.76848789 0)
(151.49796 -0.89415312 0)
(151.37105 -1.0553236 0)
(151.225 -1.2609717 0)
(151.0579 -1.5235152 0)
(150.87108 -1.8589679 0)
(150.6717 -2.2879753 0)
(150.47782 -2.8351998 0)
(150.32575 -3.5283363 0)
(150.3158 -4.3990312 0)
(150.49104 -5.4029439 0)
(151.26298 -6.7050701 0)
(152.66667 -7.6318569 0)
(154.34807 -8.2141828 0)
(156.14765 -8.3131779 0)
(158.00962 -8.1541354 0)
(159.69902 -7.5535393 0)
(161.41153 -7.1467333 0)
(163.225 -5.9825098 0)
(164.55912 -4.3501853 0)
(165.53764 -2.3366985 0)
(166.79625 -0.25176874 0)
(167.89859 2.3219289 0)
(168.27611 5.2551999 0)
(167.05188 9.1341309 0)
(164.13196 12.792825 0)
(159.98895 15.828789 0)
(153.53302 16.683248 0)
(149.73659 12.125674 0)
(148.82661 9.7041867 0)
(147.98305 7.1168093 0)
(148.08516 5.3846613 0)
(148.19804 4.0270557 0)
(148.49543 3.0610217 0)
(148.76485 2.3396559 0)
(149.03276 1.8055258 0)
(149.26051 1.3998704 0)
(149.45531 1.0874796 0)
(149.61409 0.84150302 0)
(149.74164 0.64359343 0)
(149.84058 0.48020138 0)
(149.91415 0.34130956 0)
(149.96587 0.21909551 0)
(149.99343 0.10784122 0)
(151.58808 -0.18421579 0)
(151.46785 -0.19458598 0)
(151.40485 -0.20360142 0)
(151.31158 -0.22720301 0)
(151.22095 -0.26111429 0)
(151.11426 -0.31150736 0)
(150.99501 -0.38150021 0)
(150.85708 -0.47825438 0)
(150.69875 -0.61121039 0)
(150.51741 -0.79500397 0)
(150.31337 -1.0514327 0)
(150.09199 -1.4136855 0)
(149.86815 -1.9309016 0)
(149.66927 -2.6734258 0)
(149.60965 -3.7531887 0)
(149.6331 -5.1805513 0)
(150.38479 -7.3587643 0)
(151.96791 -8.939034 0)
(153.84873 -9.9455358 0)
(155.78203 -10.347209 0)
(157.73886 -10.40997 0)
(159.31153 -9.8139687 0)
(161.15289 -9.2860619 0)
(163.47567 -7.9394626 0)
(165.25227 -5.6226851 0)
(166.43272 -3.8982256 0)
(167.54714 -2.963999 0)
(168.60403 0.13692705 0)
(169.50644 4.3475731 0)
(169.07583 11.045427 0)
(166.35473 15.568965 0)
(161.38702 19.191203 0)
(151.98987 20.253145 0)
(146.82393 12.454347 0)
(146.73795 9.8240188 0)
(146.27773 6.8566019 0)
(146.92436 5.0775363 0)
(147.3846 3.7110312 0)
(147.94624 2.7761426 0)
(148.39029 2.0947725 0)
(148.77885 1.6007387 0)
(149.08844 1.2320594 0)
(149.33998 0.95189663 0)
(149.53834 0.7337168 0)
(149.69378 0.55959344 0)
(149.81231 0.41673393 0)
(149.89939 0.295825 0)
(149.96009 0.1897509 0)
(149.99232 0.093368903 0)
(150.66569 -0.36944881 0)
(150.5444 -0.39893281 0)
(150.47585 -0.42565262 0)
(150.37226 -0.47406795 0)
(150.26796 -0.53667613 0)
(150.14175 -0.62147488 0)
(149.9955 -0.7324214 0)
(149.81925 -0.87837355 0)
(149.60606 -1.0706657 0)
(149.34512 -1.3261798 0)
(149.02449 -1.6689642 0)
(148.63179 -2.1338097 0)
(148.15844 -2.7695933 0)
(147.59603 -3.6388201 0)
(147.08277 -4.8552496 0)
(146.45838 -6.2884787 0)
(147.06777 -8.719174 0)
(149.17437 -10.128775 0)
(151.54777 -10.976287 0)
(153.86598 -10.804328 0)
(156.28104 -10.568914 0)
(158.23583 -9.0737361 0)
(160.33857 -9.7749881 0)
(163.23499 -8.2299961 0)
(164.71313 -6.6533537 0)
(164.66727 -4.4054664 0)
(166.7789 -1.2627178 0)
(170.02721 2.1551753 0)
(172.82526 6.2981396 0)
(171.86049 10.976879 0)
(167.23228 17.109865 0)
(161.21489 24.421907 0)
(148.90116 28.195508 0)
(143.45772 15.74538 0)
(145.31163 10.751373 0)
(144.97541 7.0731243 0)
(146.12665 4.823557 0)
(146.79068 3.3811216 0)
(147.54233 2.4334936 0)
(148.10466 1.7966807 0)
(148.58103 1.3505905 0)
(148.95153 1.0294993 0)
(149.24688 0.79021185 0)
(149.47654 0.60675678 0)
(149.65446 0.46167409 0)
(149.789 0.34337073 0)
(149.8872 0.2435793 0)
(149.95534 0.1561893 0)
(149.99141 0.076844393 0)
(149.27186 -0.090637411 0)
(149.11139 -0.096818548 0)
(149.03314 -0.099141929 0)
(148.91269 -0.11013363 0)
(148.79444 -0.12531616 0)
(148.65164 -0.14900135 0)
(148.48719 -0.18236003 0)
(148.28986 -0.22953037 0)
(148.0524 -0.29595959 0)
(147.76358 -0.39103232 0)
(147.41159 -0.53039489 0)
(146.98526 -0.74164447 0)
(146.48123 -1.0771568 0)
(145.88405 -1.6242591 0)
(145.44018 -2.6247957 0)
(144.6371 -4.1838181 0)
(145.41023 -8.5694989 0)
(148.0303 -11.550573 0)
(150.93641 -12.770389 0)
(153.54926 -13.357871 0)
(156.37022 -13.347477 0)
(157.28992 -13.465272 0)
(159.18681 -12.746825 7.8592216e-18)
(161.41052 -11.687142 4.6002438e-18)
(163.21144 -6.201682 4.9668232e-18)
(165.17748 -3.4543216 -2.6461468e-20)
(168.9089 -7.4253694 -3.9193292e-18)
(170.90794 -4.3413488 0)
(172.69975 -0.13327109 -4.8564522e-18)
(171.20846 16.230039 7.0710602e-18)
(169.99186 24.503221 0)
(159.71805 30.486869 8.3240588e-19)
(143.22925 33.442154 0)
(136.17143 11.08407 0)
(140.83714 8.9199943 0)
(142.33786 5.5883952 0)
(144.53151 3.8039813 0)
(145.87985 2.6277239 0)
(146.98644 1.8721628 0)
(147.76781 1.3737963 0)
(148.36817 1.0278383 0)
(148.81626 0.78200279 0)
(149.15992 0.59971872 0)
(149.42131 0.46064717 0)
(149.62034 0.35078 0)
(149.76918 0.26118176 0)
(149.87695 0.18547511 0)
(149.95135 0.11903803 0)
(149.99064 0.058589183 0)
(146.43911 -0.20262729 0)
(146.31558 -0.24043727 0)
(146.24947 -0.25448849 0)
(146.14174 -0.28540445 0)
(146.03309 -0.32271659 0)
(145.89783 -0.37498353 0)
(145.7378 -0.44479868 0)
(145.53961 -0.53995715 0)
(145.29217 -0.67085559 0)
(144.97683 -0.85486892 0)
(144.56796 -1.120313 0)
(144.02611 -1.5147932 0)
(143.29858 -2.1281379 0)
(142.24123 -3.0744001 0)
(140.97031 -4.7918466 0)
(137.88921 -7.0995388 0)
(137.38818 -12.138278 0)
(142.53521 -14.036567 -1.3051003e-18)
(145.85464 -15.401521 1.5129233e-19)
(145.30553 -13.970148 0)
(138.93359 -14.353063 -8.0638427e-18)
(98.74535 -7.9647131 1.1866617e-17)
(0 0 0)
(0 0 0)
(0 0 0)
(0 0 0)
(0 0 0)
(0 0 0)
(0 0 0)
(0 0 0)
(0 0 0)
(0 0 0)
(126.84641 50.934889 1.1912631e-16)
(133.28397 20.255975 0)
(142.33371 7.8929006 0)
(141.71574 5.0861697 0)
(144.27516 2.7428702 0)
(145.58864 1.84248 0)
(146.78684 1.2375248 0)
(147.61988 0.89879638 0)
(148.2642 0.66613675 0)
(148.74376 0.50755875 0)
(149.11037 0.39039342 0)
(149.3884 0.30140216 0)