/*--------------------------------*- C++ -*----------------------------------*\
| =========                 |                                                 |
| \\      /  F ield         | foam-extend: Open Source CFD                    |
|  \\    /   O peration     | Version:     4.1                                |
|   \\  /    A nd           | Web:         http://www.foam-extend.org         |
|    \\/     M anipulation  |                                                 |
\*---------------------------------------------------------------------------*/
FoamFile
{
    version     2.0;
    format      ascii;
    class       volScalarField;
    location    "0.02";
    object      rAU;
}
// * * * * * * * * * * * * * * * * * * * * * * * * * * * * * * * * * * * * * //

dimensions      [0 0 1 0 0 0 0];

internalField   nonuniform List<scalar> 
4393
(
4.4618548e-05
4.4614117e-05
4.4609978e-05
4.4605457e-05
4.4600517e-05
4.4595109e-05
4.4589152e-05
4.4582598e-05
4.4575397e-05
4.456751e-05
4.4558908e-05
4.4549583e-05
4.4539552e-05
4.4528861e-05
4.4517587e-05
4.4505882e-05
4.4493897e-05
4.4481852e-05
4.4470015e-05
4.4458677e-05
4.4448151e-05
4.4438757e-05
4.4430807e-05
4.4424582e-05
4.4420317e-05
4.4418187e-05
4.4418187e-05
4.441828e-05
4.4420597e-05
4.4425038e-05
4.443139e-05
4.4439345e-05
4.4448524e-05
4.445851e-05
4.4468877e-05
4.4479234e-05
4.4489238e-05
4.449862e-05
4.4507179e-05
4.4514786e-05
4.452137e-05
4.4526909e-05
4.4531419e-05
4.4534938e-05
4.4537522e-05
4.4539236e-05
4.454015e-05
4.4539966e-05
4.453827e-05
4.4510954e-05
4.4507442e-05
4.4504606e-05
4.4501386e-05
4.4497818e-05
4.4493804e-05
4.448927e-05
4.4484155e-05
4.4478408e-05
4.4471983e-05
4.4464858e-05
4.445703e-05
4.4448528e-05
4.4439421e-05
4.4429815e-05
4.4419898e-05
4.4409863e-05
4.4399974e-05
4.439054e-05
4.4381887e-05
4.4374355e-05
4.4368277e-05
4.436396e-05
4.4361667e-05
4.4361595e-05
4.4363859e-05
4.4365893e-05
4.4366067e-05
4.436859e-05
4.4373458e-05
4.4380553e-05
4.4389637e-05
4.4400367e-05
4.4412324e-05
4.4425047e-05
4.4438089e-05
4.4451036e-05
4.4463549e-05
4.4475361e-05
4.4486287e-05
4.449621e-05
4.4505078e-05
4.4512881e-05
4.4519645e-05
4.4525414e-05
4.4530246e-05
4.4534188e-05
4.4536869e-05
4.4538115e-05
4.4505043e-05
4.4501572e-05
4.4498645e-05
4.4495279e-05
4.4491514e-05
4.4487248e-05
4.448241e-05
4.4476938e-05
4.4470782e-05
4.4463902e-05
4.445628e-05
4.4447925e-05
4.4438883e-05
4.4429247e-05
4.4419153e-05
4.440883e-05
4.4398515e-05
4.438852e-05
4.4379202e-05
4.4370929e-05
4.4364073e-05
4.4358987e-05
4.4355982e-05
4.4355309e-05
4.4357134e-05
4.4361522e-05
4.4361026e-05
4.4358978e-05
4.4359474e-05
4.4362616e-05
4.4368374e-05
4.4376566e-05
4.4386863e-05
4.439882e-05
4.4411915e-05
4.4425625e-05
4.4439451e-05
4.4452977e-05
4.4465867e-05
4.4477886e-05
4.4488879e-05
4.4498768e-05
4.450753e-05
4.4515185e-05
4.4521778e-05
4.452737e-05
4.4532015e-05
4.4535741e-05
4.4538157e-05
4.4502237e-05
4.4498897e-05
4.4495936e-05
4.4492432e-05
4.4488445e-05
4.4483876e-05
4.4478659e-05
4.4472733e-05
4.4466049e-05
4.445857e-05
4.4450282e-05
4.4441203e-05
4.4431395e-05
4.4420974e-05
4.4410109e-05
4.4399069e-05
4.4388143e-05
4.4377701e-05
4.4368156e-05
4.435993e-05
4.435344e-05
4.434907e-05
4.434715e-05
4.4347929e-05
4.4351551e-05
4.435804e-05
4.4355027e-05
4.4350672e-05
4.4349107e-05
4.4350549e-05
4.4355058e-05
4.4362505e-05
4.4372566e-05
4.4384748e-05
4.4398445e-05
4.4413038e-05
4.4427925e-05
4.4442608e-05
4.445668e-05
4.4469857e-05
4.4481949e-05
4.4492863e-05
4.4502565e-05
4.4511077e-05
4.4518448e-05
4.4524744e-05
4.4530028e-05
4.4534346e-05
4.4537235e-05
4.4499067e-05
4.4495689e-05
4.4492649e-05
4.4489028e-05
4.4484873e-05
4.4480076e-05
4.4474565e-05
4.4468273e-05
4.4461145e-05
4.445314e-05
4.4444241e-05
4.443447e-05
4.4423898e-05
4.4412656e-05
4.4400946e-05
4.4389079e-05
4.4377398e-05
4.4366336e-05
4.4356376e-05
4.4348004e-05
4.4341692e-05
4.433787e-05
4.4336894e-05
4.4339027e-05
4.4344402e-05
4.4353008e-05
4.4347573e-05
4.4340734e-05
4.4336987e-05
4.433668e-05
4.4339978e-05
4.4346802e-05
4.4356822e-05
4.4369475e-05
4.438403e-05
4.4399755e-05
4.4415918e-05
4.4431932e-05
4.4447311e-05
4.446173e-05
4.4474971e-05
4.448693e-05
4.4497576e-05
4.4506939e-05
4.4515079e-05
4.4522078e-05
4.4528016e-05
4.4532961e-05
4.4536434e-05
4.4496047e-05
4.4492852e-05
4.4489861e-05
4.4486161e-05
4.4481832e-05
4.4476772e-05
4.4470913e-05
4.4464184e-05
4.445653e-05
4.4447902e-05
4.4438281e-05
4.4427688e-05
4.44162e-05
4.4403965e-05
4.4391213e-05
4.4378301e-05
4.4365632e-05
4.4353715e-05
4.4343111e-05
4.4334383e-05
4.4328071e-05
4.4324662e-05
4.432455e-05
4.4328022e-05
4.4335206e-05
4.4346064e-05
4.4338432e-05
4.4328955e-05
4.4322924e-05
4.432084e-05
4.4322994e-05
4.4329361e-05
4.4339598e-05
4.4353039e-05
4.4368785e-05
4.4385958e-05
4.4403666e-05
4.4421223e-05
4.4438062e-05
4.4453819e-05
4.4468256e-05
4.4481271e-05
4.4492843e-05
4.4503019e-05
4.4511882e-05
4.4519533e-05
4.452608e-05
4.4531621e-05
4.4535702e-05
4.4492556e-05
4.448926e-05
4.4486197e-05
4.4482418e-05
4.4477981e-05
4.4472764e-05
4.4466689e-05
4.4459671e-05
4.4451639e-05
4.4442531e-05
4.4432314e-05
4.4420996e-05
4.440865e-05
4.4395432e-05
4.4381594e-05
4.4367538e-05
4.4353731e-05
4.4340771e-05
4.432931e-05
4.4320006e-05
4.4313482e-05
4.4310296e-05
4.4310892e-05
4.4315597e-05
4.432455e-05
4.4337698e-05
4.4328068e-05
4.4315609e-05
4.4307023e-05
4.4302998e-05
4.4303982e-05
4.4310015e-05
4.4320725e-05
4.4335304e-05
4.4352613e-05
4.4371592e-05
4.4391147e-05
4.4410484e-05
4.4428948e-05
4.4446147e-05
4.4461834e-05
4.447592e-05
4.4488407e-05
4.449937e-05
4.450892e-05
4.4517187e-05
4.4524304e-05
4.45304e-05
4.4535047e-05
4.4489415e-05
4.4486431e-05
4.4483534e-05
4.4479764e-05
4.4475233e-05
4.4469823e-05
4.4463461e-05
4.4456055e-05
4.4447524e-05
4.4437789e-05
4.4426801e-05
4.4414554e-05
4.4401113e-05
4.4386638e-05
4.4371403e-05
4.4355859e-05
4.4340551e-05
4.4326182e-05
4.4313516e-05
4.4303327e-05
4.4296333e-05
4.429318e-05
4.4294377e-05
4.430031e-05
4.4311135e-05
4.4326795e-05
4.4315613e-05
4.429991e-05
4.4288562e-05
4.4282484e-05
4.4282335e-05
4.4288236e-05
4.4299786e-05
4.4315986e-05
4.4335347e-05
4.4356597e-05
4.4378374e-05
4.439978e-05
4.4420061e-05
4.4438814e-05
4.4455797e-05
4.4470955e-05
4.4484326e-05
4.4496025e-05
4.4506202e-05
4.4515025e-05
4.4522659e-05
4.4529267e-05
4.4534449e-05
4.4485705e-05
4.4482542e-05
4.4479558e-05
4.447574e-05
4.4471159e-05
4.4465672e-05
4.4459185e-05
4.4451584e-05
4.4442765e-05
4.4432621e-05
4.4421073e-05
4.4408084e-05
4.4393692e-05
4.4378043e-05
4.4361423e-05
4.4344323e-05
4.4327367e-05
4.4311389e-05
4.4297284e-05
4.4285963e-05
4.4278261e-05
4.4274929e-05
4.4276547e-05
4.4283583e-05
4.4296229e-05
4.431444e-05
4.4302099e-05
4.428257e-05
4.4267964e-05
4.4259489e-05
4.425809e-05
4.4263995e-05
4.4276764e-05
4.4295136e-05
4.4317102e-05
4.4341149e-05
4.4365555e-05
4.438933e-05
4.4411614e-05
4.4432023e-05
4.4450333e-05
4.4466547e-05
4.4480754e-05
4.4493126e-05
4.4503858e-05
4.4513161e-05
4.4521237e-05
4.4528281e-05
4.4533924e-05
4.4482619e-05
4.4479954e-05
4.4477295e-05
4.447361e-05
4.4469054e-05
4.4463486e-05
4.445682e-05
4.4448927e-05
4.4439683e-05
4.442895e-05
4.4416614e-05
4.4402601e-05
4.4386916e-05
4.4369688e-05
4.4351208e-05
4.4332021e-05
4.4312843e-05
4.4294681e-05
4.4278589e-05
4.4265654e-05
4.4256839e-05
4.4253025e-05
4.4254872e-05
4.4262968e-05
4.4277553e-05
4.4298614e-05
4.4285947e-05
4.4262182e-05
4.4243954e-05
4.4232834e-05
4.423017e-05
4.4236344e-05
4.4250903e-05
4.4272241e-05
4.4297565e-05
4.4325106e-05
4.4352657e-05
4.4379172e-05
4.4403677e-05
4.4425849e-05
4.4445508e-05
4.4462745e-05
4.4477724e-05
4.4490685e-05
4.4501884e-05
4.4511581e-05
4.4520019e-05
4.4527428e-05
4.4533467e-05
4.4478824e-05
4.4475874e-05
4.4473084e-05
4.4469369e-05
4.4464817e-05
4.4459252e-05
4.4452562e-05
4.444459e-05
4.4435177e-05
4.4424145e-05
4.4411328e-05
4.4396595e-05
4.4379891e-05
4.4361295e-05
4.4341075e-05
4.4319808e-05
4.4298297e-05
4.4277764e-05
4.425945e-05
4.4244653e-05
4.4234484e-05
4.4229974e-05
4.4231857e-05
4.4240885e-05
4.4257345e-05
4.4281271e-05
4.426904e-05
4.4240091e-05
4.4217373e-05
4.4202942e-05
4.4198736e-05
4.4205339e-05
4.4222306e-05
4.4247572e-05
4.4277106e-05
4.4308923e-05
4.4340145e-05
4.436975e-05
4.4396644e-05
4.442063e-05
4.4441606e-05
4.4459785e-05
4.4475427e-05
4.448886e-05
4.4500408e-05
4.4510385e-05
4.4519079e-05
4.4526753e-05
4.4533094e-05
4.4475975e-05
4.4473752e-05
4.4471487e-05
4.4468074e-05
4.4463714e-05
4.4458242e-05
4.4451552e-05
4.4443467e-05
4.4433795e-05
4.4422308e-05
4.4408777e-05
4.4392997e-05
4.4374837e-05
4.4354309e-05
4.4331654e-05
4.430749e-05
4.4282727e-05
4.4258899e-05
4.4237488e-05
4.4220063e-05
4.420789e-05
4.420218e-05
4.4203717e-05
4.4213501e-05
4.4231893e-05
4.4259006e-05
4.4248718e-05
4.4213968e-05
4.4186154e-05
4.4167903e-05
4.4162019e-05
4.4169393e-05
4.41897e-05
4.4220325e-05
4.4255242e-05
4.4292401e-05
4.4327977e-05
4.4361117e-05
4.4390605e-05
4.4416463e-05
4.443871e-05
4.4457731e-05
4.4473908e-05
4.4487679e-05
4.4499444e-05
4.4509579e-05
4.4518417e-05
4.4526256e-05
4.4532807e-05
4.4472277e-05
4.4469636e-05
4.4467174e-05
4.4463729e-05
4.4459414e-05
4.4454019e-05
4.4447409e-05
4.4439372e-05
4.4429678e-05
4.4418045e-05
4.4404173e-05
4.4387763e-05
4.4368577e-05
4.4346514e-05
4.4321725e-05
4.4294822e-05
4.4266769e-05
4.4239519e-05
4.4214821e-05
4.4194577e-05
4.4180208e-05
4.4173143e-05
4.4174158e-05
4.4184615e-05
4.4204913e-05
4.4235203e-05
4.4228328e-05
4.4186266e-05
4.4151827e-05
4.4128451e-05
4.4120282e-05
4.41286e-05
4.4153339e-05
4.4191203e-05
4.4232839e-05
4.4276517e-05
4.4317063e-05
4.4354069e-05
4.4386207e-05
4.4413857e-05
4.4437208e-05
4.4456875e-05
4.4473385e-05
4.4487302e-05
4.4499109e-05
4.4509247e-05
4.4518089e-05
4.452597e-05
4.4532621e-05
4.4469828e-05
4.4468156e-05
4.4466443e-05
4.4463505e-05
4.4459608e-05
4.4454556e-05
4.4448226e-05
4.4440384e-05
4.4430754e-05
4.4418983e-05
4.4404669e-05
4.4387383e-05
4.4366733e-05
4.4342458e-05
4.4314578e-05
4.4283708e-05
4.4250865e-05
4.4218681e-05
4.418927e-05
4.4164993e-05
4.4147399e-05
4.4138182e-05
4.4137939e-05
4.4148604e-05
4.4170624e-05
4.4204245e-05
4.4203441e-05
4.4153139e-05
4.4111103e-05
4.4081577e-05
4.4070691e-05
4.4080301e-05
4.4111022e-05
4.4158964e-05
4.4209132e-05
4.4260956e-05
4.4307296e-05
4.4348626e-05
4.4383517e-05
4.4412889e-05
4.4437171e-05
4.4457272e-05
4.4473899e-05
4.4487757e-05
4.4499423e-05
4.45094e-05
4.4518106e-05
4.4525902e-05
4.4532539e-05
4.4466483e-05
4.4464258e-05
4.4462274e-05
4.4459293e-05
4.4455468e-05
4.4450558e-05
4.4444407e-05
4.4436746e-05
4.442726e-05
4.4415534e-05
4.4401077e-05
4.4383336e-05
4.4361749e-05
4.4335842e-05
4.4305413e-05
4.4270978e-05
4.4233408e-05
4.4196301e-05
4.416214e-05
4.4133843e-05
4.4112992e-05
4.4101632e-05
4.409995e-05
4.4110877e-05
4.4134833e-05
4.4171898e-05
4.4180033e-05
4.4119167e-05
4.4066781e-05
4.4028383e-05
4.4013411e-05
4.4024395e-05
4.4063125e-05
4.4125311e-05
4.4186091e-05
4.4247788e-05
4.4300459e-05
4.4346223e-05
4.4383607e-05
4.4414329e-05
4.4439132e-05
4.4459286e-05
4.4475692e-05
4.4489206e-05
4.4500493e-05
4.4510111e-05
4.4518511e-05
4.4526077e-05
4.4532573e-05
4.4464524e-05
4.4463461e-05
4.4462439e-05
4.446018e-05
4.4457035e-05
4.4452785e-05
4.4447305e-05
4.4440307e-05
4.4431434e-05
4.4420184e-05
4.4405929e-05
4.4387908e-05
4.4365276e-05
4.433721e-05
4.430313e-05
4.4263412e-05
4.4218603e-05
4.4174029e-05
4.413273e-05
4.4098466e-05
4.4072752e-05
4.4058146e-05
4.4053761e-05
4.4064048e-05
4.408925e-05
4.4129181e-05
4.4150697e-05
4.4077742e-05
4.4013514e-05
4.3964237e-05
4.3944125e-05
4.395647e-05
4.4005689e-05
4.4088379e-05
4.4162397e-05
4.4236325e-05
4.4296122e-05
4.4346606e-05
4.4386327e-05
4.4418085e-05
4.4443038e-05
4.4462883e-05
4.4478745e-05
4.4491639e-05
4.4502312e-05
4.4511375e-05
4.4519305e-05
4.4526499e-05
4.4532727e-05
4.4461946e-05
4.4460236e-05
4.4458901e-05
4.4456592e-05
4.4453556e-05
4.4449519e-05
4.4444326e-05
4.4437657e-05
4.4429113e-05
4.4418131e-05
4.4403988e-05
4.4385769e-05
4.4362401e-05
4.4332717e-05
4.4295665e-05
4.4251364e-05
4.4199343e-05
4.4147553e-05
4.4099493e-05
4.405991e-05
4.4029777e-05
4.4012373e-05
4.4004741e-05
4.401445e-05
4.4041733e-05
4.4085445e-05
4.4126159e-05
4.4038064e-05
4.3957024e-05
4.3890677e-05
4.3862022e-05
4.3875183e-05
4.3938738e-05
4.4052367e-05
4.4142728e-05
4.4231079e-05
4.4297904e-05
4.4352437e-05
4.4393507e-05
4.4425354e-05
4.4449641e-05
4.4468522e-05
4.4483332e-05
4.4495214e-05
4.4504974e-05
4.4513248e-05
4.4520519e-05
4.4527183e-05
4.4533007e-05
4.446041e-05
4.445991e-05
4.4459674e-05
4.445825e-05
4.4456137e-05
4.4453088e-05
4.4449013e-05
4.4443601e-05
4.4436448e-05
4.4426933e-05
4.4414198e-05
4.4397068e-05
4.4374034e-05
4.4343247e-05
4.4302681e-05
4.4251899e-05
4.4188373e-05
4.4124964e-05
4.406601e-05
4.4017848e-05
4.3980577e-05
4.3959092e-05
4.3946287e-05
4.3954486e-05
4.3983032e-05
4.4028055e-05
4.4083376e-05
4.3987749e-05
4.3887548e-05
4.3800457e-05
4.3761441e-05
4.3773807e-05
4.3854902e-05
4.4014718e-05
4.4124445e-05
4.4229968e-05
4.4304102e-05
4.4362408e-05
4.4404217e-05
4.4435492e-05
4.4458517e-05
4.4475926e-05
4.4489276e-05
4.4499819e-05
4.4508409e-05
4.4515687e-05
4.452213e-05
4.4528121e-05
4.4533412e-05
4.4459915e-05
4.4458739e-05
4.4458223e-05
4.4456784e-05
4.4454868e-05
4.4452165e-05
4.4448564e-05
4.4443719e-05
4.4437184e-05
4.4428274e-05
4.4416026e-05
4.4399089e-05
4.4375663e-05
4.434342e-05
4.4299431e-05
4.4242918e-05
4.4167007e-05
4.409244e-05
4.4023934e-05
4.3969744e-05
4.3927474e-05
4.3904179e-05
4.3884014e-05
4.3889351e-05
4.3920204e-05
4.3969722e-05
4.4032106e-05
4.3947924e-05
4.3820838e-05
4.3697711e-05
4.3638221e-05
4.3645855e-05
4.3751337e-05
4.398622e-05
4.4119679e-05
4.4243334e-05
4.4322469e-05
4.4381678e-05
4.4421714e-05
4.4450428e-05
4.4470763e-05
4.4485692e-05
4.4496886e-05
4.450561e-05
4.4512688e-05
4.4518723e-05
4.4524151e-05
4.4529316e-05
4.4533942e-05
4.4461452e-05
4.4461286e-05
4.4461883e-05
4.4461384e-05
4.4460542e-05
4.4459067e-05
4.4456954e-05
4.4453933e-05
4.4449642e-05
4.4443459e-05
4.4434432e-05
4.4421077e-05
4.4401166e-05
4.4371397e-05
4.4326645e-05
4.426458e-05
4.4168987e-05
4.4075646e-05
4.3990707e-05
4.3925043e-05
4.3872192e-05
4.3845279e-05
4.3814347e-05
4.381808e-05
4.3855868e-05
4.3906338e-05
4.3953841e-05
4.3896758e-05
4.3736304e-05
4.3570362e-05
4.349083e-05
4.3486615e-05
4.3615457e-05
4.3963981e-05
4.4121227e-05
4.4263418e-05
4.4346712e-05
4.4405556e-05
4.4442863e-05
4.4468128e-05
4.4485113e-05
4.4497039e-05
4.4505687e-05
4.4512294e-05
4.4517636e-05
4.4522253e-05
4.4526522e-05
4.4530739e-05
4.4534588e-05
4.4477268e-05
4.4476502e-05
4.4477007e-05
4.4476651e-05
4.4476258e-05
4.4475473e-05
4.4474298e-05
4.4472434e-05
4.4469494e-05
4.4464791e-05
4.4457259e-05
4.4445194e-05
4.4425953e-05
4.4395579e-05
4.4347159e-05
4.4278957e-05
4.4158384e-05
4.4046457e-05
4.3948427e-05
4.3879061e-05
4.38236e-05
4.3805273e-05
4.3758206e-05
4.3754202e-05
4.3793822e-05
4.3847389e-05
4.3891037e-05
4.3893894e-05
4.369814e-05
4.3453454e-05
4.3317627e-05
4.327854e-05
4.3435296e-05
4.3978028e-05
4.4165417e-05
4.4316348e-05
4.4394757e-05
4.4444712e-05
4.4473738e-05
4.449185e-05
4.4503238e-05
4.4510779e-05
4.4516048e-05
4.4520021e-05
4.4523301e-05
4.452628e-05
4.4529235e-05
4.4532379e-05
4.4535343e-05
4.4508483e-05
4.4508307e-05
4.4509923e-05
4.4510563e-05
4.4511356e-05
4.4511948e-05
4.4512474e-05
4.4512779e-05
4.451269e-05
4.4511809e-05
4.4509448e-05
4.4504348e-05
4.4494199e-05
4.4475039e-05
4.4436663e-05
4.4374667e-05
4.4217387e-05
4.4073333e-05
4.3953202e-05
4.3873557e-05
4.3803691e-05
4.3785714e-05
4.3709853e-05
4.3700455e-05
4.3778635e-05
4.3859109e-05
4.3841667e-05
4.3867009e-05
4.3643024e-05
4.3299622e-05
4.314689e-05
4.3071108e-05
4.3220509e-05
4.4028648e-05
4.4219232e-05
4.4369496e-05
4.4444221e-05
4.4484652e-05
4.4505784e-05
4.4516607e-05
4.4522299e-05
4.4525294e-05
4.4527041e-05
4.4528256e-05
4.452937e-05
4.4530625e-05
4.4532188e-05
4.4534186e-05
4.4536187e-05
4.4556148e-05
4.4555239e-05
4.4556762e-05
4.4557599e-05
4.4559046e-05
4.4560725e-05
4.4562805e-05
4.4565163e-05
4.4567661e-05
4.4569927e-05
4.4571244e-05
4.4570197e-05
4.4563835e-05
4.4547205e-05
4.4505116e-05
4.4437695e-05
4.4215083e-05
4.4032742e-05
4.3890115e-05
4.3810833e-05
4.3734745e-05
4.3772284e-05
3.5424195e-05
3.5320192e-05
3.5250608e-05
3.5167496e-05
3.4927779e-05
3.4834615e-05
3.4772598e-05
3.4971055e-05
3.5248927e-05
3.574411e-05
4.2977053e-05
4.4229931e-05
4.4418425e-05
4.4502685e-05
4.4539844e-05
4.454879e-05
4.4550449e-05
4.4547956e-05
4.4544845e-05
4.4541717e-05
4.4539124e-05
4.4537155e-05
4.4535871e-05
4.4535268e-05
4.4535351e-05
4.4536134e-05
4.4537108e-05
4.4647051e-05
4.4645573e-05
4.4648109e-05
4.465002e-05
4.4652632e-05
4.4655575e-05
4.4659087e-05
4.46632e-05
4.4668022e-05
4.4673601e-05
4.467993e-05
4.4686885e-05
4.4693582e-05
4.4700526e-05
4.4696534e-05
4.4689341e-05
3.6027405e-05
3.6061783e-05
3.6037056e-05
3.620983e-05
3.6736558e-05
3.9776332e-05
4.8052745e-05
4.9995665e-05
4.9995665e-05
4.9995665e-05
4.9995665e-05
4.9995665e-05
4.9981395e-05
4.9482918e-05
4.9229418e-05
4.9055942e-05
3.4930819e-05
4.4628028e-05
4.4503191e-05
4.4560901e-05
4.460852e-05
4.4598558e-05
4.4588672e-05
4.457609e-05
4.4565861e-05
4.455741e-05
4.4550889e-05
4.4545946e-05
4.4542373e-05
4.4539965e-05
4.4538588e-05
4.4538152e-05
4.4538075e-05
4.5890117e-05
4.591158e-05
4.5942965e-05
4.5974559e-05
4.6007977e-05
4.6042292e-05
4.607787e-05
4.6115107e-05
4.615497e-05
4.6199029e-05
4.6249868e-05
4.6311667e-05
4.6391195e-05
4.6500799e-05
4.6657046e-05
3.5705244e-05
4.8509797e-05
4.9995665e-05
4.9995665e-05
4.9995665e-05
4.9995665e-05
4.9995665e-05
4.9995665e-05
4.9995665e-05
4.9995665e-05
4.9995665e-05
4.9995665e-05
4.9995665e-05
4.9995665e-05
4.9995665e-05
4.9995665e-05
4.9995665e-05
4.7255632e-05
3.0984187e-05
4.5063721e-05
4.4849348e-05
4.4746327e-05
4.4681003e-05
4.4638753e-05
4.4609199e-05
4.4588722e-05
4.4573796e-05
4.4562873e-05
4.4554798e-05
4.4548895e-05
4.4544685e-05
4.4541858e-05
4.4540206e-05
4.453907e-05
4.4662229e-05
4.4661061e-05
4.4663778e-05
4.4665911e-05
4.4668719e-05
4.4671867e-05
4.4675584e-05
4.4679916e-05
4.4684978e-05
4.469083e-05
4.4697481e-05
4.4704831e-05
4.4712029e-05
4.4719678e-05
4.471685e-05
4.4711624e-05
3.6055481e-05
3.6090314e-05
3.6067437e-05
3.6239318e-05
3.6769117e-05
3.9802712e-05
4.8059135e-05
4.9995665e-05
4.9995665e-05
4.9995665e-05
4.9995665e-05
4.9995665e-05
4.9979001e-05
4.9485283e-05
4.9234085e-05
4.9066603e-05
3.4913948e-05
4.4501162e-05
4.4960998e-05
4.4811439e-05
4.4725365e-05
4.4673719e-05
4.4636301e-05
4.4609654e-05
4.4590282e-05
4.4575857e-05
4.4565009e-05
4.4556819e-05
4.4550679e-05
4.4546167e-05
4.4542998e-05
4.454098e-05
4.453946e-05
4.4570399e-05
4.456979e-05
4.4571537e-05
4.4572631e-05
4.4574323e-05
4.4576258e-05
4.4578602e-05
4.4581238e-05
4.4584036e-05
4.458663e-05
4.4588314e-05
4.4587681e-05
4.4581794e-05
4.4565702e-05
4.4524198e-05
4.4457689e-05
4.4233882e-05
4.4051078e-05
4.3908224e-05
4.3827906e-05
4.3751472e-05
4.3787477e-05
3.5443352e-05
3.5337155e-05
3.5265788e-05
3.5180535e-05
3.4941373e-05
3.484595e-05
3.4781186e-05
3.4978829e-05
3.5258541e-05
3.5727032e-05
4.2874918e-05
4.4075873e-05
4.4556762e-05
4.4608596e-05
4.4623788e-05
4.4610734e-05
4.4596286e-05
4.4582907e-05
4.4571794e-05
4.4562878e-05
4.4555808e-05
4.45503e-05
4.4546093e-05
4.4543004e-05
4.4540903e-05
4.4539714e-05
4.4538861e-05
4.4519211e-05
4.4519361e-05
4.4521286e-05
4.4522246e-05
4.4523354e-05
4.4524268e-05
4.4525122e-05
4.4525773e-05
4.4526053e-05
4.4525576e-05
4.452367e-05
4.4519091e-05
4.4509549e-05
4.4491096e-05
4.4453486e-05
4.4392342e-05
4.4234494e-05
4.4090455e-05
4.3970657e-05
4.3891189e-05
4.3821947e-05
4.3804337e-05
4.3728896e-05
4.3720424e-05
4.3798309e-05
4.387903e-05
4.3863361e-05
4.3878523e-05
4.3640102e-05
4.3290233e-05
4.3124665e-05
4.3029844e-05
4.3119e-05
4.3951558e-05
4.4342221e-05
4.4464157e-05
4.4523538e-05
4.4543453e-05
4.4550389e-05
4.455081e-05
4.4548907e-05
4.4546242e-05
4.4543587e-05
4.4541286e-05
4.4539488e-05
4.4538263e-05
4.4537651e-05
4.4537694e-05
4.4537897e-05
4.4479046e-05
4.4478531e-05
4.4479309e-05
4.4479232e-05
4.4479121e-05
4.4478624e-05
4.4477742e-05
4.4476181e-05
4.4473555e-05
4.4469185e-05
4.4462008e-05
4.4450327e-05
4.4431504e-05
4.4401584e-05
4.4353624e-05
4.4285952e-05
4.4165254e-05
4.4053407e-05
4.395549e-05
4.3886115e-05
4.3830849e-05
4.3812489e-05
4.3765429e-05
4.3761973e-05
4.3802118e-05
4.3856987e-05
4.390293e-05
4.3885482e-05
4.3686329e-05
4.3437247e-05
4.3293542e-05
4.3242864e-05
4.3366647e-05
4.3920418e-05
4.4218158e-05
4.4367664e-05
4.4449793e-05
4.4490416e-05
4.4511864e-05
4.4522592e-05
4.4528033e-05
4.4530683e-05
4.4531965e-05
4.4532633e-05
4.4533122e-05
4.4533696e-05
4.4534533e-05
4.4535771e-05
4.4536988e-05
4.4458955e-05
4.4459012e-05
4.4459866e-05
4.4459626e-05
4.445905e-05
4.4457846e-05
4.445601e-05
4.4453272e-05
4.4449273e-05
4.4443393e-05
4.4434682e-05
4.4421656e-05
4.4402083e-05
4.4372646e-05
4.4328176e-05
4.4266342e-05
4.4170564e-05
4.4077151e-05
4.3992165e-05
4.3926432e-05
4.3873665e-05
4.3846794e-05
4.3816001e-05
4.3820083e-05
4.385815e-05
4.3909492e-05
4.3958714e-05
4.3880171e-05
4.371588e-05
4.3545114e-05
4.345901e-05
4.3448609e-05
4.3566161e-05
4.3934756e-05
4.4160603e-05
4.4305094e-05
4.4393085e-05
4.4445367e-05
4.4477085e-05
4.449628e-05
4.4508213e-05
4.4515791e-05
4.452081e-05
4.4524336e-05
4.4527041e-05
4.452936e-05
4.4531595e-05
4.4533979e-05
4.4536153e-05
4.4455309e-05
4.4454329e-05
4.4454053e-05
4.4452855e-05
4.4451193e-05
4.4448748e-05
4.4445412e-05
4.4440837e-05
4.4434579e-05
4.4425952e-05
4.4413995e-05
4.4397358e-05
4.4374237e-05
4.4342294e-05
4.4298578e-05
4.4242304e-05
4.4166402e-05
4.4091871e-05
4.4023389e-05
4.3969216e-05
4.3927069e-05
4.3903934e-05
4.3884116e-05
4.3890132e-05
4.3921902e-05
4.39729e-05
4.4037437e-05
4.3931937e-05
4.3802015e-05
4.3675573e-05
4.3611971e-05
4.3616039e-05
4.3716371e-05
4.3964785e-05
4.413878e-05
4.4269013e-05
4.4355433e-05
4.4412572e-05
4.4450049e-05
4.4474786e-05
4.4491402e-05
4.4502811e-05
4.4510899e-05
4.4516876e-05
4.4521539e-05
4.4525431e-05
4.4528942e-05
4.4532373e-05
4.4535414e-05
4.4454809e-05
4.4454489e-05
4.445448e-05
4.4453282e-05
4.445141e-05
4.4448608e-05
4.4444785e-05
4.443963e-05
4.4432738e-05
4.4423486e-05
4.4411016e-05
4.439415e-05
4.437137e-05
4.4340819e-05
4.4300448e-05
4.4249816e-05
4.4186303e-05
4.4122925e-05
4.4064002e-05
4.4015891e-05
4.3978755e-05
4.3957457e-05
4.3944979e-05
4.3953725e-05
4.3983052e-05
4.4029362e-05
4.4077208e-05
4.3970024e-05
4.3867583e-05
4.3778234e-05
4.3737178e-05
4.3749083e-05
4.3830828e-05
4.4002853e-05
4.413834e-05
4.4250351e-05
4.4330672e-05
4.4388255e-05
4.4428562e-05
4.4456916e-05
4.447701e-05
4.4491487e-05
4.4502153e-05
4.4510252e-05
4.4516647e-05
4.4521949e-05
4.4526607e-05
4.4530975e-05
4.4534781e-05
4.4455849e-05
4.4454309e-05
4.445319e-05
4.4451098e-05
4.4448295e-05
4.4444497e-05
4.4439553e-05
4.4433138e-05
4.4424853e-05
4.4414136e-05
4.440026e-05
4.4382311e-05
4.435921e-05
4.4329784e-05
4.4292968e-05
4.4248873e-05
4.4196983e-05
4.414533e-05
4.4097418e-05
4.4058022e-05
4.4028171e-05
4.401115e-05
4.4004084e-05
4.4014606e-05
4.4042974e-05
4.4088183e-05
4.4112314e-05
4.4022554e-05
4.3939776e-05
4.3871771e-05
4.3841823e-05
4.3855045e-05
4.3920214e-05
4.4042791e-05
4.414977e-05
4.4244585e-05
4.4317253e-05
4.4372607e-05
4.441341e-05
4.4443516e-05
4.4465744e-05
4.4482346e-05
4.4494941e-05
4.4504718e-05
4.4512532e-05
4.4519017e-05
4.4524652e-05
4.4529817e-05
4.4534268e-05
4.4457857e-05
4.4456949e-05
4.4456126e-05
4.4454068e-05
4.4451141e-05
4.4447116e-05
4.4441868e-05
4.4435108e-05
4.4426476e-05
4.4415469e-05
4.4401457e-05
4.4383675e-05
4.4361276e-05
4.433343e-05
4.429955e-05
4.426001e-05
4.4215338e-05
4.4170911e-05
4.4129777e-05
4.4095721e-05
4.4070295e-05
4.4056075e-05
4.4052236e-05
4.4063289e-05
4.4089536e-05
4.4130918e-05
4.4136509e-05
4.4062368e-05
4.3997061e-05
4.3947001e-05
4.3926728e-05
4.3940256e-05
4.3992248e-05
4.4082203e-05
4.4167464e-05
4.4246915e-05
4.4311456e-05
4.4363144e-05
4.4403022e-05
4.4433665e-05
4.4457095e-05
4.4475128e-05
4.4489146e-05
4.4500227e-05
4.4509184e-05
4.4516641e-05
4.4523084e-05
4.4528907e-05
4.4533877e-05
4.4459524e-05
4.4457449e-05
4.4455657e-05
4.4452871e-05
4.4449257e-05
4.4444565e-05
4.4438643e-05
4.4431218e-05
4.4421973e-05
4.4410492e-05
4.4396283e-05
4.437879e-05
4.435745e-05
4.4331785e-05
4.4301587e-05
4.4267373e-05
4.4230005e-05
4.4193118e-05
4.4159205e-05
4.413121e-05
4.411075e-05
4.4099893e-05
4.4098871e-05
4.4110659e-05
4.4135715e-05
4.4174189e-05
4.4167117e-05
4.410529e-05
4.4052084e-05
4.4013189e-05
4.3998331e-05
4.4010572e-05
4.4051982e-05
4.4119788e-05
4.4188498e-05
4.4255032e-05
4.4311813e-05
4.4359182e-05
4.4397171e-05
4.442737e-05
4.4451165e-05
4.4469955e-05
4.4484876e-05
4.4496867e-05
4.4506666e-05
4.4514864e-05
4.4521931e-05
4.4528257e-05
4.4533612e-05
4.4462432e-05
4.4460891e-05
4.445935e-05
4.4456589e-05
4.4452886e-05
4.4448037e-05
4.4441919e-05
4.4434296e-05
4.4424889e-05
4.4413344e-05
4.4399257e-05
4.4382198e-05
4.4361773e-05
4.4337718e-05
4.4310055e-05
4.4279397e-05
4.4246764e-05
4.4214809e-05
4.4185661e-05
4.4161702e-05
4.4144512e-05
4.4135808e-05
4.4136231e-05
4.4147756e-05
4.4170878e-05
4.4205901e-05
4.4190912e-05
4.4140043e-05
4.4097639e-05
4.4068106e-05
4.405781e-05
4.4068955e-05
4.4102338e-05
4.4154784e-05
4.4210709e-05
4.4266527e-05
4.4316209e-05
4.4359122e-05
4.4394731e-05
4.4423893e-05
4.4447487e-05
4.4466546e-05
4.4481969e-05
4.4494545e-05
4.4504928e-05
4.4513656e-05
4.4521175e-05
4.4527859e-05
4.4533469e-05
4.4464658e-05
4.4462147e-05
4.4459851e-05
4.4456577e-05
4.4452449e-05
4.4447251e-05
4.4440847e-05
4.4433025e-05
4.4423552e-05
4.4412144e-05
4.43985e-05
4.4382321e-05
4.4363368e-05
4.4341539e-05
4.4316984e-05
4.4290317e-05
4.426251e-05
4.4235529e-05
4.4211139e-05
4.4191262e-05
4.417734e-05
4.4170828e-05
4.417253e-05
4.4183839e-05
4.4205183e-05
4.4236748e-05
4.4216653e-05
4.4174176e-05
4.4139534e-05
4.4116306e-05
4.4108825e-05
4.4118619e-05
4.4145745e-05
4.4187236e-05
4.4233251e-05
4.4280317e-05
4.4323709e-05
4.4362302e-05
4.4395279e-05
4.4422986e-05
4.4445932e-05
4.4464839e-05
4.4480398e-05
4.4493255e-05
4.450397e-05
4.4513021e-05
4.4520817e-05
4.452771e-05
4.4533446e-05
4.4468032e-05
4.446592e-05
4.44638e-05
4.446054e-05
4.4456351e-05
4.445106e-05
4.4444561e-05
4.4436674e-05
4.4427207e-05
4.441593e-05
4.4402612e-05
4.4387049e-05
4.4369108e-05
4.4348804e-05
4.4326377e-05
4.430245e-05
4.4277938e-05
4.425439e-05
4.4233302e-05
4.4216258e-05
4.4204549e-05
4.4199408e-05
4.4201645e-05
4.4212286e-05
4.4231721e-05
4.4260084e-05
4.4237727e-05
4.4202818e-05
4.4175056e-05
4.4157179e-05
4.415213e-05
4.4160959e-05
4.4183407e-05
4.4216976e-05
4.4255271e-05
4.429522e-05
4.4333141e-05
4.4367724e-05
4.4398034e-05
4.4424079e-05
4.4446093e-05
4.4464556e-05
4.4479977e-05
4.4492871e-05
4.4503707e-05
4.4512902e-05
4.4520824e-05
4.4527792e-05
4.4533534e-05
4.4470716e-05
4.4467876e-05
4.4465227e-05
4.4461659e-05
4.4457269e-05
4.4451877e-05
4.4445371e-05
4.4437591e-05
4.4428377e-05
4.4417551e-05
4.4404945e-05
4.4390428e-05
4.4373945e-05
4.4355575e-05
4.4335591e-05
4.4314571e-05
4.4293326e-05
4.4273088e-05
4.4255112e-05
4.4240709e-05
4.4231009e-05
4.4227061e-05
4.4229618e-05
4.4239452e-05
4.4256869e-05
4.4281917e-05
4.4258704e-05
4.4229708e-05
4.4207147e-05
4.4193171e-05
4.418982e-05
4.419778e-05
4.4216638e-05
4.4244348e-05
4.4276594e-05
4.4310767e-05
4.4343987e-05
4.4374925e-05
4.4402634e-05
4.4426908e-05
4.4447793e-05
4.446558e-05
4.4480633e-05
4.449335e-05
4.4504116e-05
4.4513287e-05
4.4521184e-05
4.4528097e-05
4.4533729e-05
4.4474279e-05
4.4471706e-05
4.4469167e-05
4.4465613e-05
4.4461204e-05
4.4455794e-05
4.4449298e-05
4.4441583e-05
4.4432525e-05
4.4421985e-05
4.4409849e-05
4.4396042e-05
4.438057e-05
4.4363563e-05
4.4345316e-05
4.4326378e-05
4.4307472e-05
4.4289615e-05
4.4273872e-05
4.4261343e-05
4.4253008e-05
4.4249765e-05
4.4252289e-05
4.4261185e-05
4.4276705e-05
4.429884e-05
4.4276359e-05
4.4252695e-05
4.4234753e-05
4.4224173e-05
4.4222376e-05
4.4229806e-05
4.4246017e-05
4.426938e-05
4.4296889e-05
4.4326386e-05
4.4355606e-05
4.4383296e-05
4.4408552e-05
4.4431045e-05
4.4450696e-05
4.4467657e-05
4.4482174e-05
4.4494549e-05
4.450509e-05
4.4514097e-05
4.4521848e-05
4.4528595e-05
4.4534017e-05
4.4477243e-05
4.4474172e-05
4.4471303e-05
4.4467609e-05
4.4463167e-05
4.445783e-05
4.4451504e-05
4.4444073e-05
4.4435433e-05
4.4425475e-05
4.441412e-05
4.4401331e-05
4.4387148e-05
4.4371718e-05
4.4355329e-05
4.4338477e-05
4.4321793e-05
4.4306119e-05
4.4292358e-05
4.4281435e-05
4.4274197e-05
4.4271408e-05
4.4273661e-05
4.4281437e-05
4.4294935e-05
4.4314115e-05
4.4293082e-05
4.4273735e-05
4.4259481e-05
4.4251583e-05
4.4251034e-05
4.4258097e-05
4.4272326e-05
4.4292416e-05
4.4316199e-05
4.4341906e-05
4.4367737e-05
4.439256e-05
4.441554e-05
4.443629e-05
4.4454653e-05
4.4470682e-05
4.4484533e-05
4.4496427e-05
4.4506608e-05
4.4515325e-05
4.4522811e-05
4.4529284e-05
4.4534395e-05
4.4480794e-05
4.4477882e-05
4.4475083e-05
4.4471421e-05
4.4467015e-05
4.4461741e-05
4.4455527e-05
4.444828e-05
4.4439916e-05
4.4430357e-05
4.4419553e-05
4.4407499e-05
4.4394261e-05
4.4380001e-05
4.4364996e-05
4.4349702e-05
4.4334668e-05
4.4320607e-05
4.4308291e-05
4.4298503e-05
4.4291975e-05
4.4289363e-05
4.4291185e-05
4.4297835e-05
4.4309475e-05
4.4325776e-05
4.4307311e-05
4.4291875e-05
4.4280939e-05
4.4275458e-05
4.4276124e-05
4.4283078e-05
4.4295903e-05
4.4313553e-05
4.433442e-05
4.4357062e-05
4.4380039e-05
4.4402354e-05
4.4423255e-05
4.4442336e-05
4.4459401e-05
4.4474433e-05
4.4487523e-05
4.4498831e-05
4.4508547e-05
4.4516872e-05
4.4524002e-05
4.4530121e-05
4.4534849e-05
4.4483851e-05
4.4480626e-05
4.4477654e-05
4.4473976e-05
4.4469655e-05
4.4464564e-05
4.4458627e-05
4.4451757e-05
4.4443883e-05
4.4434941e-05
4.4424899e-05
4.4413766e-05
4.4401615e-05
4.4388605e-05
4.4374989e-05
4.4361173e-05
4.4347632e-05
4.4334968e-05
4.4323843e-05
4.4314922e-05
4.4308838e-05
4.4306157e-05
4.4307334e-05
4.4312701e-05
4.4322399e-05
4.4335569e-05
4.4320304e-05
4.4308168e-05
4.4300035e-05
4.4296619e-05
4.4298389e-05
4.4305391e-05
4.4317234e-05
4.4333064e-05
4.435165e-05
4.4371814e-05
4.4392393e-05
4.4412522e-05