/*--------------------------------*- C++ -*----------------------------------*\
| =========                 |                                                 |
| \\      /  F ield         | foam-extend: Open Source CFD                    |
|  \\    /   O peration     | Version:     4.1                                |
|   \\  /    A nd           | Web:         http://www.foam-extend.org         |
|    \\/     M anipulation  |                                                 |
\*---------------------------------------------------------------------------*/
FoamFile
{
    version     2.0;
    format      ascii;
    class       volScalarField;
    location    "0.55";
    object      p;
}
// * * * * * * * * * * * * * * * * * * * * * * * * * * * * * * * * * * * * * //

dimensions      [0 2 -2 0 0 0 0];

internalField   nonuniform List<scalar> 
16796
(
2.9259693
6.1507069
8.3167884
9.8791493
10.904675
11.396842
11.327499
10.657598
9.3446257
7.3461254
4.6214573
1.1327643
-3.1544103
-8.2704356
-14.241615
-21.091654
-28.841926
-37.50897
-47.104339
-57.635752
-69.107205
-81.518927
-94.867371
-109.14512
-124.34092
-140.43961
-157.4221
-175.26531
-193.94213
-213.42144
-233.66811
-254.64315
-276.30365
-298.60321
-321.49212
-344.91778
-368.82521
-393.15762
-417.8571
-442.86537
-468.12458
-493.57813
-519.17158
-544.8533
-570.57525
-596.29346
-621.96842
-647.56514
-673.05297
-698.40515
-723.59787
-748.60911
-773.41707
-797.9982
-822.32504
-846.3637
-870.0713
-893.39322
-916.2606
-938.58761
-960.26925
-981.17943
-1001.1698
-1020.0697
-1037.6858
-1053.8022
-1068.1808
-1080.5678
-1090.7162
-1098.3675
-1103.2407
-1105.0601
-1103.5627
-1098.5022
-1089.6553
-1076.8276
-1059.8596
-1038.6317
-1013.0686
-983.14251
-948.87559
-910.34065
-867.66088
-821.00824
-770.60062
-716.69795
-659.59735
-599.62753
-537.1427
-472.5161
-406.13345
-338.38656
-269.66719
-200.36135
-130.84422
-61.475711
7.4032228
75.473563
142.4404
208.03442
272.01275
334.15915
394.28376
452.22233
507.83513
561.00554
611.63848
659.65874
705.00917
747.64894
787.55183
824.70506
859.10829
890.77109
919.70859
945.94761
969.53977
990.57
1009.123
1025.1495
1038.539
1050.1762
1063.9632
1081.9762
4.7725826
6.6892077
8.6491745
10.14837
11.161725
11.658577
11.600296
10.943843
9.6450447
7.6606768
4.9497145
1.4741299
-2.8005519
-7.9046464
-13.864499
-20.704714
-28.44789
-37.1105
-46.703726
-57.235285
-68.709071
-81.125287
-94.480342
-108.76679
-123.97336
-140.08481
-157.08199
-174.94171
-193.63677
-213.13585
-233.40367
-254.401
-276.08472
-298.40814
-321.32126
-344.77117
-368.70257
-393.05833
-417.78022
-442.80962
-468.08842
-493.55974
-519.16894
-544.86426
-570.5976
-596.32505
-622.00723
-647.60944
-673.10146
-698.45705
-723.65311
-748.66845
-773.4822
-798.0719
-822.4112
-846.4674
-870.19884
-893.55208
-916.45938
-938.83576
-960.57699
-981.5579
-1001.6312
-1020.6274
-1038.3531
-1054.5929
-1069.1121
-1081.6591
-1091.9621
-1099.7453
-1104.74
-1106.675
-1105.2862
-1100.3249
-1091.5648
-1078.809
-1061.8954
-1040.7022
-1015.1526
-985.21756
-950.91876
-912.32902
-869.57215
-822.82129
-772.29601
-718.25836
-661.00795
-600.87624
-538.22035
-473.41651
-406.85339
-338.92565
-270.02771
-200.548
-130.86382
-61.336894
7.6903684
75.897817
142.98974
208.69633
272.77449
335.00802
395.20727
453.2084
508.87218
562.08256
612.74509
660.78516
706.14613
748.7876
788.68365
825.82131
860.19898
891.82504
920.71834
946.90498
970.42728
991.3527
1009.7326
1025.5155
1038.7056
1050.0664
1061.5426
1071.7584
5.9528269
7.2359014
9.0261971
10.501416
11.562803
12.139346
12.17465
11.617128
10.417946
8.5309905
5.9131754
2.5247849
-1.6704067
-6.7051647
-12.60872
-19.404574
-27.110734
-35.743637
-45.316763
-55.838671
-67.314039
-79.743344
-93.123146
-107.44593
-122.70018
-138.87028
-155.9365
-173.87495
-192.65755
-212.25199
-232.62183
-253.72659
-275.52179
-297.95932
-320.98768
-344.55246
-368.59682
-393.06216
-417.8888
-443.01681
-468.38684
-493.941
-519.62376
-545.38278
-571.16958
-596.94018
-622.65548
-648.28135
-673.78853
-699.15207
-724.35054
-749.36471
-774.176
-798.76447
-823.10652
-847.17226
-870.92291
-894.30779
-917.26164
-939.70188
-961.52662
-982.61301
-1002.8137
-1021.9573
-1039.8488
-1056.2717
-1070.9905
-1083.7531
-1094.289
-1102.3175
-1107.5577
-1109.7311
-1108.5673
-1103.812
-1095.2333
-1082.6288
-1065.8316
-1044.716
-1019.2017
-989.25771
-954.90453
-916.21503
-873.31419
-826.37737
-775.62737
-721.33032
-663.79057
-603.34487
-540.35592
-475.2057
-408.28859
-340.00473
-270.75366
-200.92849
-130.91062
-61.065236
8.2624062
76.749989
144.10028
210.04253
274.33329
336.7565
397.12307
455.27009
511.05954
564.37685
615.12918
663.24363
708.6654
751.35587
791.29088
828.45904
862.86002
894.50313
923.40759
949.60143
973.12748
994.04005
1012.3661
1028.0835
1041.3365
1052.6807
1062.4322
1068.1979
6.6167653
7.8134458
9.5735818
11.057937
12.16412
12.806106
12.917388
12.440403
11.322876
9.5166207
6.9771902
3.66391
-0.46019079
-5.4284792
-11.270887
-18.012697
-25.674024
-34.271325
-43.818032
-54.32333
-65.79223
-78.22556
-91.620095
-105.96845
-121.25911
-137.4763
-154.60003
-172.6059
-191.46521
-211.14484
-231.60739
-252.81121
-274.71058
-297.25596
-320.39439
-344.06987
-368.22399
-392.79655
-417.72635
-442.95199
-468.41283
-494.04985
-519.80664
-545.63024
-571.47187
-597.28766
-623.03896
-648.69256
-674.22056
-699.59983
-724.81119
-749.83811
-774.66509
-799.27559
-823.64964
-847.76115
-871.57511
-895.04447
-918.10742
-940.68491
-962.67864
-983.96646
-1004.401
-1023.8101
-1041.9973
-1058.7428
-1073.8057
-1086.9266
-1097.8305
-1106.232
-1111.8425
-1114.3749
-1113.5504
-1109.1058
-1100.8007
-1088.4248
-1071.8039
-1050.8062
-1025.3468
-995.39138
-960.95882
-922.12213
-879.00811
-831.79554
-780.71211
-726.03011
-668.06109
-607.14979
-543.66736
-478.00442
-410.56395
-341.75435
-271.98289
-201.64969
-131.14231
-60.831212
8.9341034
77.828022
145.55096
211.83074
276.42326
339.11254
399.7102
458.05452
514.00908
567.46118
618.32008
666.51504
711.9934
754.71867
794.66862
831.83353
866.21441
897.82139
926.67337
952.79804
976.23498
997.02511
1015.1819
1030.7174
1043.8381
1054.8683
1063.4441
1067.6058
7.0196309
8.3244161
10.177386
11.760175
12.980754
13.748734
13.99184
13.647815
12.66092
10.980407
8.5598574
5.3570002
1.3335336
-3.5448099
-9.3083637
-15.983147
-23.590689
-32.148242
-41.669613
-52.164366
-63.637901
-76.091296
-89.521417
-103.92079
-119.27765
-135.57574
-152.7944
-170.90839
-189.88792
-209.6986
-230.30155
-251.6535
-273.70692
-296.41033
-319.70872
-343.54397
-367.85553
-392.58107
-417.6573
-443.02089
-468.60941
-494.3623
-520.22193
-546.13444
-572.05063
-597.92664
-623.72438
-649.41181
-674.96276
-700.35647
-725.57675
-750.61067
-775.44685
-800.07333
-824.47511
-848.63125
-872.51189
-896.07504
-919.26394
-942.00477
-964.20273
-985.73676
-1006.4612
-1026.2041
-1044.7676
-1061.9289
-1077.4416
-1091.0391
-1102.4375
-1111.3422
-1117.4531
-1120.4713
-1120.1061
-1116.0824
-1108.1482
-1096.0823
-1079.7007
-1058.8635
-1033.4792
-1003.5093
-968.97031
-929.93554
-886.53416
-838.94958
-787.41607
-732.21424
-673.66536
-612.1249
-547.97541
-481.61917
-413.47068
-343.94945
-273.4731
-202.45115
-131.2794
-60.335274
10.026057
79.474654
147.70789
214.45176
279.46141
342.52111
403.44353
462.06871
518.26251
571.91491
622.93809
671.26437
716.84414
759.64381
799.64382
836.83671
871.22522
902.82047
931.64132
957.71389
981.0714
1001.741
1019.7278
1035.0584
1047.9135
1058.3936
1065.958
1069.3102
7.3956506
8.8759374
10.875264
12.591758
13.948215
14.855955
15.240756
15.037761
14.18889
12.641457
10.347434
7.2631603
3.3490617
-1.4302699
-7.1060727
-13.705291
-21.250587
-29.760268
-39.248763
-49.726114
-61.198176
-73.666366
-87.127747
-101.57488
-116.99585
-133.37406
-150.68829
-168.91251
-188.01594
-207.96295
-228.71321
-250.22177
-272.43921
-295.31205
-318.78304
-342.7918
-367.2754
-392.16912
-417.40736
-442.92455
-468.65624
-494.54007
-520.51693
-546.53194
-572.53533
-598.48324
-624.33823
-650.06959
-675.65321
-701.07117
-726.31085
-751.36366
-776.22319
-800.88311
-825.33439
-849.56236
-873.54349
-897.24202
-920.6076
-943.57273
-966.04517
-987.90667
-1009.0127
-1029.1908
-1048.2409
-1065.9356
-1082.0223
-1096.2259
-1108.2527
-1117.7959
-1124.5423
-1128.1783
-1128.398
-1124.9111
-1117.4509
-1105.7823
-1089.7091
-1069.0807
-1043.7974
-1013.8151
-979.14771
-939.86864
-896.11019
-848.06167
-795.96579
-740.11376
-680.83926
-618.51144
-553.52739
-486.30418
-417.27099
-346.86138
-275.50612
-203.62656
-131.62889
-59.899309
11.199947
81.333549
150.19512
217.50842
283.02778
346.53785
407.85276
466.81484
523.29295
577.18058
628.39375
676.8688
722.56022
765.43845
805.48772
842.70405
877.0932
908.66881
937.45162
963.46813
986.74815
1007.3126
1025.1679
1040.3488
1052.9872
1063.033
1069.9479
1072.8808
7.7536369
9.4604276
11.671368
13.58337
15.130119
16.225785
16.795667
16.773228
16.098453
14.716802
12.578559
9.6385387
5.8558043
1.1937328
-4.379952
-10.893247
-18.369912
-26.829174
-36.285986
-46.750983
-58.230384
-70.725833
-84.234442
-98.748635
-114.25613
-130.73979
-148.17757
-166.5424
-185.80219
-205.91977
-226.85303
-248.55498
-270.97397
-294.05405
-317.73538
-341.95485
-366.64671
-391.74341
-417.17656
-442.87793
-468.78059
-494.81999
-520.93526
-547.07016
-573.17422
-599.2035
-625.12127
-650.89836
-676.5131
-701.95095
-727.20362
-752.26776
-777.14305
-801.83005
-826.32709
-850.62736
-874.71502
-898.56254
-922.1279
-945.35029
-968.14184
-990.38842
-1011.9472
-1032.6457
-1052.2808
-1070.6199
-1087.4025
-1102.3431
-1115.1352
-1125.4574
-1132.9796
-1137.3706
-1138.3058
-1135.4762
-1128.5968
-1117.4156
-1101.721
-1081.3493
-1056.1908
-1026.1946
-991.37112
-951.79401
-907.59944
-858.98398
-806.20076
-749.55409
-689.39292
-626.10327
-560.10007
-491.81861
-421.70604
-350.21315
-277.78673
-204.86257
-131.85949
-59.17429
12.822273
83.788414
153.4133
221.4181
287.55624
351.61293
413.4041
472.77494
529.59794
583.77077
635.21405
683.86888
729.69452
772.66602
812.77196
850.01221
884.39584
915.93913
944.66467
970.59919
993.77
1014.1955
1031.8861
1046.8787
1059.2669
1068.9332
1075.4075
1078.0973
8.1434461
10.10118
12.557815
14.698179
16.464294
17.773294
18.550863
18.729583
18.248058
17.050221
15.08483
12.305225
8.6690883
4.1384683
-1.3200916
-7.7357546
-15.133459
-23.533457
-32.951454
-43.398776
-54.882151
-67.40356
-80.960252
-95.544598
-111.14403
-127.74087
-145.31229
-163.83015
-183.26101
-203.56608
-224.70131
-246.61753
-269.26062
-292.57194
-316.48877
-340.94491
-365.87143
-391.19758
-416.85177
-442.76267
-468.86047
-495.07808
-521.35244
-547.62574
-573.84652
-599.97069
-625.9622
-651.79357
-677.44585
-702.90835
-728.17775
-753.25672
-778.15204
-802.87232
-827.42443
-851.81091
-876.0251
-900.04915
-923.85075
-947.37648
-970.54463
-993.24559
-1015.3389
-1036.6519
-1056.9787
-1076.0808
-1093.6884
-1109.504
-1123.2064
-1134.4564
-1142.9044
-1148.1976
-1149.9893
-1147.948
-1141.767
-1131.1733
-1115.9371
-1095.8791
-1070.8773
-1040.8724
-1005.8708
-965.94647
-921.24015
-871.9572
-818.36328
-760.7785
-699.57021
-635.14471
-567.93836
-498.40827
-427.0231
-354.2542
-280.5674
-206.41563
-132.23259
-58.42751
14.618916
86.557486
157.07234
225.88185
292.73865
357.42889
419.77098
479.61372
536.8342
591.33534
643.04344
691.90554
737.88683
780.96814
821.1435
858.41778
892.80438
924.32321
952.9995
978.86087
1001.9336
1022.2353
1039.779
1054.5973
1066.7572
1076.1196
1082.2908
1084.8283
8.5706979
10.815442
13.563227
15.978102
18.007325
19.570127
20.592581
21.00661
20.749615
19.764084
17.997251
15.400929
11.931336
7.5490784
2.2194057
-4.0881003
-11.399614
-19.736444
-29.114915
-39.547114
-51.040224
-63.596479
-77.213184
-91.882551
-107.59161
-124.322
-142.04995
-160.74607
-180.37537
-200.89719
-222.2653
-244.42805
-267.32854
-290.90508
-315.09165
-339.81857
-365.0133
-390.60138
-416.50754
-442.65689
-468.97625
-495.39551
-521.84905
-548.27711
-574.62704
-600.8544
-626.92387
-652.80978
-678.49627
-703.97701
-729.2544
-754.33814
-779.24326
-803.98782
-828.58879
-853.05973
-877.40506
-901.61847
-925.67913
-949.54283
-973.13524
-996.3524
-1019.0569
-1041.0762
-1062.2011
-1082.1863
-1100.7518
-1117.5858
-1132.3495
-1144.6835
-1154.2148
-1160.5655
-1163.3626
-1162.2481
-1156.8892
-1146.9887
-1132.2946
-1112.6093
-1087.796
-1057.7857
-1022.5798
-982.25257
-936.95033
-886.88888
-832.34878
-773.66889
-711.23839
-645.48766
-576.87841
-505.89354
-433.02708
-358.77455
-283.62411
-208.04869
-132.49929
-57.399562
16.858416
89.916993
161.45469
231.18684
298.86539
364.27785
427.24564
487.62199
545.28944
600.15714
652.1581
701.24628
747.39386
790.58847
830.83059
868.13108
902.50875
933.98823
962.59856
988.36979
1011.3296
1031.4976
1048.8896
1063.5346
1075.485
1084.6024
1090.5559
1092.9908
9.0404705
11.59805
14.669571
17.392053
19.716375
21.563154
22.858752
23.534547
23.526882
22.776895
21.230323
18.837425
15.552885
11.33575
6.1498531
-0.036614171
-7.2511571
-15.516271
-24.849103
-35.262647
-46.764586
-59.357515
-73.038869
-87.800747
-103.62979
-120.50696
-138.40749
-157.30067
-177.14985
-197.91234
-219.53955
-241.9771
-265.16502
-289.03824
-313.52707
-338.55792
-364.05416
-389.93715
-416.12741
-442.54594
-469.11568
-495.76297
-522.41916
-549.02212
-575.51764
-601.86074
-628.0167
-653.96174
-679.68334
-705.17999
-730.46046
-755.54239
-780.45022
-805.21276
-829.8587
-854.41419
-878.89678
-903.31363
-927.65735
-951.89443
-975.9596
-999.75591
-1023.15
-1045.9699
-1068.0032
-1088.9971
-1108.6599
-1126.6638
-1142.6501
-1156.2353
-1167.0196
-1174.5961
-1178.561
-1178.5251
-1174.1252
-1165.0355
-1150.9784
-1131.7341
-1107.149
-1077.1421
-1041.7092
-1000.9249
-954.94204
-903.98856
-848.3626
-788.42507
-724.59076
-657.31822
-587.09884
-514.44561
-439.88206
-363.93174
-287.1086
-209.9086
-132.80251
-56.230292
19.403143
93.730804
166.42515
237.19846
305.80232
372.02618
435.69532
496.66837
554.83445
610.11011
662.43623
711.77491
758.10642
801.42628
841.74243
879.07264
913.44196
944.88051
973.42187
999.0995
1021.9438
1041.9778
1059.22
1073.6981
1085.4599
1094.3771
1100.1669
1102.5277
9.5637126
12.469248
15.904282
18.974257
21.632408
23.800007
25.403403
26.373344
26.645088
26.158399
24.857463
22.690902
19.611755
15.577401
10.550113
4.4965809
-2.6120828
-10.79963
-20.084228
-30.479646
-41.994027
-54.630344
-68.386134
-83.253341
-99.218154
-116.26078
-134.35534
-153.46969
-173.56534
-194.59738
-216.51461
-239.25967
-262.76917
-286.9743
-311.80129
-337.17218
-363.00575
-389.21862
-415.72655
-442.44585
-469.29495
-496.1961
-523.07707
-549.87288
-576.52739
-602.9948
-629.24085
-655.24375
-680.99454
-706.49706
-731.76721
-756.83158
-781.7253
-806.48944
-831.16628
-855.79631
-880.41263
-905.03847
-929.68167
-954.32107
-978.90273
-1003.3382
-1027.4991
-1051.2146
-1074.2693
-1096.4021
-1117.3082
-1136.6418
-1154.0213
-1169.0361
-1181.2553
-1190.2383
-1195.5458
-1196.7526
-1193.4601
-1185.3092
-1171.992
-1153.2635
-1128.9498
-1098.9562
-1063.272
-1021.972
-975.21651
-923.248
-866.385
-805.0141
-739.57998
-670.57398
-598.52195
-523.97177
-447.48103
-369.60555
-290.88888
-211.8532
-132.9917
-54.762738
22.41454
98.162905
172.14836
244.08021
313.71008
380.8301
445.27038
506.89609
565.60415
621.31983
673.99326
723.59599
770.11773
813.56313
853.94885
891.30077
925.65134
957.03728
985.49781
1011.0711
1033.7915
1053.6865
1070.778
1085.0943
1096.6847
1105.4335
1111.094
1113.398
10.134805
13.418072
17.251112
20.703054
23.728809
26.249799
28.192102
29.485725
30.064786
29.867617
28.836781
26.919163
24.066027
20.232959
15.380493
9.4736989
2.4821789
-5.6192967
-14.850138
-25.224808
-36.75209
-49.435404
-63.272445
-78.255034
-94.368921
-111.59352
-129.90182
-149.26011
-169.62795
-190.95804
-213.19635
-236.28222
-260.14859
-284.72248
-309.92559
-335.67512
-361.8847
-388.46563
-415.32825
-442.38352
-469.54473
-496.72932
-523.86088
-550.87097
-577.70102
-604.30404
-630.64602
-656.70707
-682.48198
-707.98036
-733.22594
-758.25523
-783.11545
-807.86134
-832.55085
-857.2407
-881.98217
-906.81737
-931.77101
-956.8368
-981.97479
-1007.1066
-1032.1105
-1056.8177
-1081.0096
-1104.4168
-1126.7199
-1147.5529
-1166.5084
-1183.1447
-1196.9958
-1207.5822
-1214.4239
-1217.054
-1215.033
-1207.9632
-1195.5018
-1177.3739
-1153.3826
-1123.4173
-1087.4589
-1045.583
-997.95865
-944.84483
-886.58388
-823.59222
-756.34913
-685.38391
-611.26219
-534.57196
-455.90995
-375.86883
-295.0258
-213.93268
-133.10786
-53.030094
25.865803
103.19159
178.6066
251.81738
322.57622
390.67886
455.96138
518.29679
577.59121
633.78004
686.82407
736.70569
783.42536
826.99814
867.45056
904.81772
939.14053
970.46331
998.83195
1024.2904
1046.8785
1066.6287
1083.5673
1097.7254
1109.157
1117.7591
1123.312
1125.5698
10.765815
14.462525
18.732189
22.604106
26.034539
28.944663
31.260033
32.909746
33.826659
33.947559
33.213259
31.568767
28.963414
25.350846
20.689675
14.943222
8.0794357
0.071424976
-9.1015369
-19.454599
-30.997229
-43.733323
-57.660742
-72.771183
-89.049926
-106.47556
-125.01984
-144.64741
-165.31573
-186.97493
-209.56791
-233.03045
-257.29143
-282.27334
-307.89288
-334.06187
-360.68819
-387.67721
-414.93315
-442.36089
-469.86782
-497.36587
-524.77367
-552.0187
-579.03938
-605.78704
-632.22764
-658.3431
-684.13213
-709.6105
-734.81052
-759.77969
-784.57877
-809.27784
-833.95272
-858.67875
-883.52803
-908.56419
-933.83178
-959.34238
-985.07196
-1010.9545
-1036.8767
-1062.673
-1088.1219
-1112.9452
-1136.8077
-1159.3211
-1180.0487
-1198.514
-1214.2108
-1226.6154
-1235.201
-1239.4529
-1238.8845
-1233.0534
-1221.5767
-1204.1451
-1180.5344
-1150.6155
-1114.3604
-1071.8449
-1023.2482
-968.84853
-909.01574
-844.20078
-774.92289
-701.75514
-625.30893
-546.21827
-465.12458
-382.66247
-299.44722
-216.06398
-133.0592
-50.934202
29.859212
108.92111
185.90407
260.51231
332.49968
401.66666
467.85671
530.95223
590.87017
647.5577
700.98791
751.15563
798.07354
841.76851
882.2783
919.64841
953.92933
985.17403
1013.4361
1038.7664
1061.2109
1080.8081
1097.5894
1111.5902
1122.8712
1131.3403
1136.7991
1139.0171
11.449562
15.592397
20.335234
24.663127
28.533495
31.867003
34.588479
36.625955
37.910883
38.378364
37.967308
36.620676
34.285686
30.913869
26.461695
20.890586
14.16667
6.2611836
-2.8481057
-13.177121
-24.736069
-37.529405
-51.555222
-66.805123
-83.263945
-100.90943
-119.71207
-139.63477
-160.63276
-182.65343
-205.63638
-229.51355
-254.20939
-279.64143
-305.72091
-332.35366
-359.44122
-386.88227
-414.57419
-442.41495
-470.30521
-498.15048
-525.86366
-553.3673
-580.5961
-607.49913
-634.04187
-660.20784
-685.99971
-711.43976
-736.56957
-761.44868
-786.15285
-810.76936
-835.39417
-860.12388
-885.05431
-910.27378
-935.8501
-961.81572
-988.16543
-1014.8484
-1041.7616
-1068.7442
-1095.5729
-1121.96
-1147.5536
-1171.9402
-1194.6511
-1215.1702
-1232.9457
-1247.4039
-1257.9643
-1264.0576
-1265.1431
-1260.7269
-1250.3798
-1233.7526
-1210.5899
-1180.7411
-1144.1674
-1100.9451
-1051.265
-995.42771
-933.8347
-866.97675
-795.41922
-719.78548
-640.73942
-558.9677
-475.1626
-390.00629
-304.15689
-218.23685
-132.82375
-48.443564
34.433586
115.39555
194.08827
270.21432
343.53017
413.84248
481.00372
544.90742
605.4832
662.69181
716.52039
766.97788
814.09079
857.8993
898.4537
935.81118
970.03296
1001.1817
1029.3198
1054.5059
1076.7931
1096.2266
1112.8437
1126.6854
1137.8193
1146.163
1151.5355
1153.7174
12.197086
16.822486
22.07743
26.899249
31.246612
35.039514
38.201889
40.660536
42.345335
43.189522
43.129908
42.107205
40.066295
36.956393
32.731589
27.351227
20.779427
12.985362
3.9450625
-6.3581505
-17.935266
-30.791369
-44.924831
-60.32717
-76.982797
-94.868591
-113.95373
-134.19932
-155.55823
-177.97492
-201.38549
-225.71772
-250.89129
-276.81833
-303.40407
-330.54778
-358.14397
-386.08386
-414.25715
-442.55402
-470.86742
-499.09556
-527.14456
-554.93118
-582.38554
-609.45374
-636.10024
-662.30984
-688.08913
-713.46721
-738.4956
-763.247
-787.81376
-812.3023
-836.83127
-861.52143
-886.49562
-911.87048
-937.74087
-964.16347
-991.15528
-1018.6837
-1046.6586
-1074.9258
-1103.261
-1131.3671
-1158.874
-1185.3412
-1210.2638
-1233.0815
-1253.1912
-1269.962
-1282.7527
-1290.9312
-1293.8949
-1291.0911
-1282.0368
-1266.3369
-1243.7001
-1213.9508
-1177.0376
-1133.0374
-1082.1544
-1024.7146
-961.1564
-892.01633
-817.9128
-739.527
-657.58293
-572.82732
-486.01024
-397.86757
-309.1056
-220.38828
-132.32748
-45.476011
39.676512
122.70537
203.25026
281.01307
355.75432
427.28858
495.47928
560.23314
621.49451
679.23981
733.47218
784.21653
831.5149
875.42235
916.00313
953.32743
987.46835
1018.4994
1046.4925
1071.5151
1093.6284
1112.8846
1129.3279
1143.0052
1153.9915
1162.2128
1167.5026
1169.6501
13.002378
18.144958
23.95022
29.303357
34.164347
38.452422
42.090489
45.003956
47.12095
48.372632
48.693495
48.021761
46.29973
43.474069
39.496223
34.323249
27.917055
20.244557
11.279754
1.0051419
-10.591136
-23.514896
-37.764836
-53.332417
-70.201682
-88.348664
-107.74122
-128.33855
-150.09111
-172.94027
-196.81836
-221.64875
-247.34594
-273.81623
-300.95828
-328.66416
-356.8206
-385.31055
-414.0151
-442.81563
-471.59637
-500.24705
-528.66599
-556.76302
-584.46269
-611.70723
-638.45937
-664.70473
-690.45361
-715.74215
-740.63243
-765.21137
-789.58951
-813.89458
-838.27061
-862.86575
-887.83357
-913.3232
-939.46072
-966.33101
-993.97739
-1022.3891
-1051.4922
-1081.1413
-1111.1126
-1141.0998
-1170.7135
-1199.4835
-1226.8651
-1252.2483
-1274.9724
-1294.3416
-1309.6456
-1320.1809
-1325.2738
-1324.3038
-1316.7265
-1302.094
-1280.0729
-1250.4591
-1213.1865
-1168.3324
-1116.1165
-1056.8943
-991.14635
-919.46211
-842.52096
-761.07045
-675.90337
-587.83488
-497.68064
-406.23711
-314.26444
-222.47268
-131.5113
-41.962099
45.664764
130.93189
213.47341
292.99183
369.25349
442.08296
511.3569
576.99759
638.96649
697.25791
751.89321
802.91525
850.38348
894.36947
934.95296
972.21844
1006.2521
1037.1393
1064.9626
1089.7989
1111.7183
1130.7808
1147.0375
1160.542
1171.3767
1179.4746
1184.6822
1186.7959
13.874641
19.571339
25.966511
31.889484
37.301851
42.122055
46.271878
49.675174
52.258111
53.949534
54.68135
54.389011
53.011945
50.493998
46.783677
41.835511
35.608932
28.068428
19.185715
8.942345
-2.674592
-15.67155
-30.04761
-45.794264
-62.895234
-81.325723
-101.05225
-122.03211
-144.21319
-167.53364
-191.92183
-217.29639
-243.5663
-270.63152
-298.38359
-326.7067
-355.47901
-384.5743
-413.86403
-443.21972
-472.51566
-501.63191
-530.45767
-558.89466
-586.86063
-614.29291
-641.15159
-667.42246
-693.11927
-718.28525
-742.99359
-767.34658
-791.47458
-815.52899
-839.68199
-864.11291
-889.01022
-914.56017
-940.92469
-968.22149
-996.52487
-1025.8503
-1056.1438
-1087.2716
-1119.0121
-1151.0506
-1182.9773
-1214.2898
-1244.3992
-1272.6405
-1298.2876
-1320.5719
-1338.7043
-1351.8998
-1359.4035
-1360.5173
-1354.6258
-1341.2203
-1319.9192
-1290.4848
-1252.8343
-1207.0454
-1153.3552
-1092.1534
-1023.9691
-949.45281
-869.35397
-784.49629
-695.75124
-604.01194
-510.16837
-415.08516
-319.58267
-224.42192
-130.29343
-37.810037
52.496662
140.1768
224.85998
306.25107
384.12442
458.31713
528.72175
595.27886
657.96964
716.80892
771.8386
823.12169
870.737
914.7744
955.33068
992.50599
1026.4008
1057.1133
1084.7377
1109.3612
1131.0632
1149.912
1165.9664
1179.2867
1189.9622
1197.9327
1203.0563
1205.1355
14.809768
21.096288
28.120725
34.65203
40.653662
46.043292
50.74149
54.670393
57.753976
59.918498
61.092972
61.209761
60.205099
58.019694
54.598812
49.894159
43.862379
36.465442
27.672682
17.464043
5.8254717
-7.2498153
-21.761468
-37.70111
-55.052218
-73.789217
-93.877312
-115.27186
-137.91814
-161.75092
-186.69442
-212.66224
-239.55744
-267.27319
-295.69328
-324.69333
-354.14204
-383.90309
-413.83721
-443.80482
-473.66896
-503.29864
-532.57251
-561.38269
-589.63878
-617.27186
-644.23832
-670.52325
-696.14334
-721.14884
-745.6245
-769.68907
-793.4943
-817.21793
-841.06311
-865.24457
-889.99052
-915.52965
-942.06462
-969.75149
-998.70115
-1028.9604
-1060.4997
-1093.2007
-1126.8462
-1161.1137
-1195.5728
-1229.686
-1262.8158
-1294.2358
-1323.1467
-1348.6974
-1370.0094
-1386.2049
-1396.436
-1399.9156
-1395.9469
-1383.9509
-1363.4902
-1334.2883
-1296.2429
-1249.4318
-1194.1125
-1130.7138
-1059.8208
-982.1544
-898.54469
-809.90278
-717.19017
-621.38876
-523.47268
-424.38324
-325.00793
-226.16392
-128.58637
-32.921157
60.278111
150.54966
237.52011
320.89887
400.47102
476.08917
547.6649
615.16017
678.57894
737.95933
793.36643
844.88576
892.61762
936.672
977.16436
1014.2119
1047.9306
1078.4326
1105.8244
1130.2043
1151.6616
1170.2734
1186.1065
1199.2279
1209.734
1217.5701
1222.6059
1224.6491
15.81491
22.728154
30.42188
37.600617
44.230138
50.22741
55.511721
60.003304
63.623678
66.296189
67.946605
68.503825
67.900516
66.073875
62.965623
58.524246
52.703338
45.462225
36.767662
26.597154
14.935781
1.7766182
-12.880746
-29.028161
-46.648955
-65.716853
-86.195787
-108.03919
-131.18965
-155.57848
-181.12552
-207.7391
-235.31599
-263.74203
-292.89269
-322.63422
-352.82501
-383.31755
-413.96067
-444.60236
-475.09296
-505.28882
-535.05645
-564.27669
-592.84935
-620.69776
-647.77321
-674.05903
-699.57411
-724.37547
-748.55976
-772.26323
-795.66056
-818.95878
-842.39459
-866.22329
-890.71868
-916.15783
-942.78823
-970.81169
-1000.3821
-1031.5836
-1064.4164
-1098.782
-1134.4706
-1171.1537
-1208.379
-1245.5719
-1282.0415
-1316.9928
-1349.5448
-1378.7529
-1403.6374
-1423.2145
-1436.5301
-1442.695
-1440.9187
-1430.541
-1411.0602
-1382.1549
-1343.6996
-1295.7724
-1238.6538
-1172.8178
-1098.9145
-1017.7455
-930.23403
-837.39157
-740.28264
-639.9903
-537.58396
-434.09106
-330.4738
-227.61111
-126.28637
-27.180335
69.131134
162.17541
251.5782
337.05629
418.40874
495.50724
568.28602
636.73197
700.87522
760.78032
816.5384
868.26005
916.06926
960.09815
1000.4825
1037.358
1070.8572
1101.1072
1128.2278
1152.3291
1173.5105
1191.8585
1207.448
1220.3529
1230.6764
1238.3689
1243.3112
1245.3163
16.887813
24.463555
32.866342
40.731644
48.027976
54.671687
60.580707
65.673157
69.867789
73.084666
75.245897
76.276495
76.105141
74.665098
71.894224
67.73734
62.144804
55.073015
46.485582
36.357333
24.6728
11.424602
-3.3884989
-19.758673
-37.669225
-57.093275
-77.993545
-100.32158
-124.01729
-149.00842
-175.21029
-202.52566
-230.84465
-260.04529
-289.99408
-320.5471
-351.55151
-382.84746
-414.2706
-445.65499
-476.83669
-507.65765
-537.97033
-567.64241
-596.56199
-624.64283
-651.82946
-678.10206
-703.48074
-728.02878
-751.85487
-775.11372
-798.00441
-820.76647
-843.67274
-867.02521
-891.15059
-916.3779
-943.00581
-971.29159
-1001.4389
-1033.5761
-1067.7398
-1103.8563
-1141.7277
-1181.0206
-1221.2615
-1261.8356
-1301.9936
-1340.8648
-1377.476
-1410.7775
-1439.6745
-1463.0625
-1479.8661
-1489.0787
-1489.8018
-1481.282
-1462.9427
-1434.4104
-1395.5326
-1346.3872
-1287.2815
-1218.7414
-1141.4919
-1056.428
-964.58031
-867.07576
-765.0969
-659.84207
-552.48854
-444.16052
-335.90317
-228.66311
-123.27559
-20.4578
79.192361
175.19309
267.1719
354.85646
438.06384
516.68894
590.69283
660.09141
724.94475
785.34732
841.41939
893.29935
941.1373
985.08945
1025.3136
1061.9654
1095.1953
1125.1461
1151.9518
1175.7345
1196.6048
1214.6585
1229.9789
1242.6468
1252.7717
1260.3094
1265.1512
1267.1154
18.033666
26.307791
35.459397
44.050532
52.053039
59.382769
65.9562
71.689088
76.497049
80.296418
83.005167
84.543928
84.83692
83.812997
81.405774
77.55594
72.210397
65.322295
56.851606
46.770156
35.062027
21.719389
6.7400416
-9.8686243
-28.089999
-47.896755
-69.250522
-92.101028
-116.38551
-142.02809
-168.93944
-197.01653
-226.14245
-256.18692
-287.00681
-318.44726
-350.34314
-382.52111
-414.8022
-447.00501
-478.94945
-510.46113
-541.37639
-571.54755
-600.84881
-629.18216
-656.48342
-682.72789
-707.93555
-732.17521
-755.56745
-778.28631
-800.55676
-822.65393
-844.89061
-867.62094
-891.2306
-916.10786
-942.61172
-971.06207
-1001.7211
-1034.77
-1070.2892
-1108.2366
-1148.4304
-1190.536
-1234.0581
-1278.3398
-1322.568
-1365.7876
-1406.9226
-1444.8046
-1478.2082
-1505.8914
-1526.6397
-1539.3119
-1542.8852
-1536.4982
-1519.4878
-1491.4196
-1452.1098
-1401.6354
-1340.3342
-1268.7925
-1187.8216
-1098.4248
-1001.7564
-899.07655
-791.70305
-680.9658
-568.16423
-454.53111
-341.20366
-229.20243
-119.41813
-12.605563
90.61615
189.75842
284.45418
374.4463
459.5746
539.76214
615.00166
685.34265
750.87935
811.73997
868.07731
920.0605
967.86821
1011.6829
1051.6861
1088.0549
1120.9585
1150.5568
1176.9981
1200.4178
1220.9373
1238.6626
1253.6851
1266.0925
1276.0007
1283.37
1288.1031
1290.023
19.251573
28.258442
38.197963
47.553967
56.302223
64.358206
71.636812
78.051112
83.513143
87.93499
91.229928
93.31365
94.105365
93.529003
91.51351
87.994928
82.916446
76.227649
67.884477
57.855211
46.123573
32.681418
17.525361
0.66218083
-17.891685
-38.108672
-59.949463
-83.362087
-108.28117
-134.62721
-162.30613
-191.20887
-221.21116
-252.17395
-283.94383
-316.35411
-349.22635
-382.37244
-415.5973
-448.70229
-481.48924
-513.76523
-545.34809
-576.07231
-605.79561
-634.40571
-661.8273
-688.02868
-713.028
-736.89843
-759.77206
-781.84285
-803.36315
-824.64671
-846.05055
-867.98666
-890.90655
-915.26699
-941.49594
-969.985
-1001.0651
-1034.9801
-1071.8633
-1111.7122
-1154.3671
-1199.4956
-1246.5819
-1294.9243
-1343.6406
-1391.6822
-1437.858
-1480.8656
-1519.3315
-1551.8569
-1577.0679
-1593.6687
-1600.4933
-1596.5553
-1581.091
-1553.5955
-1513.8476
-1461.9232
-1398.1949
-1323.3184
-1238.2054
-1143.9845
-1041.9534
-933.5255
-820.17426
-703.37969
-584.57966
-465.12875
-346.2661
-229.09276
-114.55829
-3.4557681
103.57606
206.04516
303.59442
395.98726
483.09194
564.86541
641.33763
712.59685
778.77622
840.04189
896.5828
948.60195
996.30921
1039.9154
1079.6276
1115.6456
1148.1589
1177.3446
1203.3667
1226.3738
1246.4987
1263.8575
1278.5499
1290.6706
1300.3415
1307.5274
1312.142
1314.0138
20.544981
30.317777
41.083454
51.242948
60.776671
69.599831
77.625556
84.763823
90.922541
96.008921
99.930892
102.59856
103.9255
103.83015
102.2363
99.074804
94.284822
87.812041
79.608094
69.63705
57.882325
44.33558
28.991974
11.857603
-7.0512996
-27.707261
-50.070214
-74.086665
-99.688747
-126.79336
-155.30161
-185.09828
-216.0514
-248.01268
-280.81777
-314.28732
-348.22847
-382.437
-416.7001
-450.80001
-484.51834