/*--------------------------------*- C++ -*----------------------------------*\
| =========                 |                                                 |
| \\      /  F ield         | foam-extend: Open Source CFD                    |
|  \\    /   O peration     | Version:     4.1                                |
|   \\  /    A nd           | Web:         http://www.foam-extend.org         |
|    \\/     M anipulation  |                                                 |
\*---------------------------------------------------------------------------*/
FoamFile
{
    version     2.0;
    format      ascii;
    class       surfaceScalarField;
    location    "0.55";
    object      phi;
}
// * * * * * * * * * * * * * * * * * * * * * * * * * * * * * * * * * * * * * //

dimensions      [0 3 -1 0 0 0 0];

internalField   nonuniform List<scalar> 
32976
(
-0.22608027
-7.3066985e-06
-0.22609896
1.8686337e-05
-0.22611714
1.8176985e-05
-0.22613231
1.5178487e-05
-0.22614539
1.3070214e-05
-0.22615861
1.3220932e-05
-0.22617478
1.6175021e-05
-0.22619697
2.2186661e-05
-0.22622834
3.1372097e-05
-0.22627211
4.3768089e-05
-0.22633146
5.935304e-05
-0.22640952
7.80592e-05
-0.22650929
9.977456e-05
-0.22663364
0.00012434801
-0.22678523
0.00015158464
-0.2269665
0.00018127299
-0.22717968
0.0002131807
-0.22742671
0.0002470288
-0.2277092
0.00028249326
-0.22802844
0.00031924101
-0.22838535
0.00035690635
-0.22878047
0.00039511613
-0.22921394
0.00043347105
-0.22968551
0.00047157439
-0.23019452
0.00050901041
-0.2307399
0.00054537801
-0.23132017
0.00058026494
-0.23193345
0.00061328663
-0.23257751
0.00064405575
-0.23324973
0.0006722258
-0.23394719
0.00069745584
-0.23466664
0.00071945502
-0.23540461
0.00073796146
-0.23615735
0.00075274376
-0.23692099
0.00076363638
-0.23769148
0.00077049695
-0.23846474
0.00077325836
-0.23923662
0.0007718805
-0.24000302
0.00076640209
-0.24075991
0.00075689005
-0.2415034
0.00074348978
-0.24222978
0.00072637412
-0.24293556
0.00070578441
-0.24361756
0.00068199661
-0.24427289
0.0006553318
-0.24489904
0.00062614657
-0.24549386
0.00059482713
-0.24605565
0.00056178363
-0.24658309
0.00052743983
-0.24707532
0.00049222731
-0.24753189
0.00045657537
-0.24795279
0.00042090226
-0.2483384
0.00038560571
-0.24868945
0.00035105489
-0.24900703
0.00031758015
-0.2492925
0.00028546672
-0.24954745
0.00025494841
-0.24977365
0.00022620053
-0.24997299
0.00019933811
-0.25014739
0.00017440664
-0.25029878
0.00015138549
-0.25042897
0.0001301893
-0.25053964
0.00011066911
-0.25063226
9.2624515e-05
-0.25070808
7.5814189e-05
-0.25076803
5.995349e-05
-0.25081277
4.4744625e-05
-0.25084259
2.9817162e-05
-0.2508571
1.4507257e-05
-0.25085562
-1.4814755e-06
-0.25083767
-1.7952086e-05
-0.25080275
-3.4913815e-05
-0.25075026
-5.24907e-05
-0.25067946
-7.0799795e-05
-0.25058955
-8.9916141e-05
-0.25047969
-0.0001098584
-0.2503491
-0.0001305836
-0.25019712
-0.00015198684
-0.25002321
-0.00017390503
-0.24982709
-0.00019612248
-0.24960871
-0.00021838036
-0.24936832
-0.00024038636
-0.2491065
-0.00026182628
-0.24882412
-0.00028237611
-0.24852241
-0.0003017138
-0.24820288
-0.00031953075
-0.24786733
-0.00033554207
-0.24751784
-0.00034949535
-0.24715666
-0.00036117778
-0.24678624
-0.00037042104
-0.24640913
-0.00037710505
-0.24602798
-0.0003811574
-0.24564542
-0.00038255406
-0.24526411
-0.00038131591
-0.2448866
-0.00037750492
-0.24451538
-0.00037121908
-0.2441528
-0.00036258637
-0.24380104
-0.00035175918
-0.24346213
-0.00033890644
-0.24313792
-0.0003242089
-0.24283007
-0.00030785241
-0.24254005
-0.00029002283
-0.24226915
-0.00027090132
-0.24201848
-0.00025066099
-0.24178902
-0.00022946288
-0.24158157
-0.00020745498
-0.2413968
-0.00018477031
-0.24123527
-0.00016152661
-0.24109744
-0.0001378263
-0.24098368
-0.00011375869
-0.24089428
-8.9400102e-05
-0.24082947
-6.4816039e-05
-0.2407894
-4.0064847e-05
-0.24077419
-1.5218192e-05
-0.24078377
9.5883119e-06
-0.24081807
3.4294451e-05
-0.24087697
5.8902308e-05
-0.24096029
8.331655e-05
-0.24106752
0.00010723786
-0.2411973
0.00012977134
-0.24134689
0.00014959583
-0.24151658
0.00016968387
-0.24171302
0.00019643926
0.00022243473
-0.25751523
-0.00014683882
-0.25735409
-0.00014245327
-0.25718558
-0.00015032905
-0.25701138
-0.00015902253
-0.25683321
-0.00016509559
-0.25665325
-0.00016673684
-0.25647404
-0.00016303668
-0.25629834
-0.00015351426
-0.25612906
-0.00013791127
-0.25596917
-0.00011612137
-0.25582167
-8.8142432e-05
-0.25568955
-5.4067154e-05
-0.25557571
-1.4066337e-05
-0.25548297
3.1609859e-05
-0.25541402
8.2631838e-05
-0.25537128
0.00013853672
-0.25535686
0.00019875867
-0.25537259
0.00026276078
-0.25542007
0.00032997799
-0.25550062
0.00039978642
-0.25561522
0.00047150916
-0.25576454
0.0005444349
-0.25594888
0.00061780622
-0.25616816
0.0006908566
-0.25642193
0.00076278612
-0.25670937
0.00083281122
-0.25702923
0.00090013007
-0.25737993
0.00096398302
-0.25775948
0.0010236087
-0.25816557
0.0010783137
-0.25859553
0.0011274198
-0.25904642
0.0011703367
-0.25951498
0.0012065298
-0.25999777
0.0012355255
-0.2604911
0.0012569699
-0.26099116
0.0012705606
-0.26149404
0.0012761344
-0.26199575
0.0012735886
-0.26249231
0.0012629676
-0.2629798
0.0012443806
-0.2634544
0.0012180844
-0.26391242
0.0011844
-0.26435042
0.0011437801
-0.26476518
0.0010967521
-0.26515378
0.0010439354
-0.26551366
0.00098602354
-0.2658426
0.00092377302
-0.26613881
0.00085799181
-0.26640089
0.00078951997
-0.26662788
0.00071921724
-0.26681925
0.00064794335
-0.26697489
0.00057654033
-0.26709509
0.00050581362
-0.26718055
0.00043651508
-0.2672323
0.00036932318
-0.26725166
0.00030482892
-0.26724023
0.00024352337
-0.26719982
0.00018578366
-0.26713235
0.00013186821
-0.26703984
8.1899914e-05
-0.26692432
3.586167e-05
-0.26678773
-6.3942146e-06
-0.26663193
-4.5136494e-05
-0.26645854
-8.0765123e-05
-0.26626897
-0.0001137519
-0.2660644
-0.00014462209
-0.26584569
-0.00017396705
-0.26561344
-0.00020242569
-0.26536838
-0.00023055049
-0.26511097
-0.00025889943
-0.26484085
-0.00028806675
-0.26455725
-0.0003185118
-0.26425916
-0.00035058605
-0.26394542
-0.00038454054
-0.26361482
-0.00042051413
-0.26326615
-0.00045852339
-0.26289828
-0.00049845937
-0.26251018
-0.00054008993
-0.26210101
-0.000583069
-0.26167019
-0.00062694709
-0.26121738
-0.00067119132
-0.26074256
-0.00071520365
-0.26024604
-0.00075834382
-0.25972846
-0.0007999529
-0.2591908
-0.00083937619
-0.25863435
-0.00087598578
-0.25806069
-0.00090920038
-0.25747168
-0.0009385026
-0.25686941
-0.00096345279
-0.25625613
-0.00098369867
-0.25563425
-0.00099898321
-0.25500627
-0.0010091427
-0.25437471
-0.001014109
-0.25374212
-0.0010139031
-0.253111
-0.0010086273
-0.25248376
-0.00099845566
-0.25186273
-0.00098362259
-0.25125008
-0.00096441242
-0.25064784
-0.0009411431
-0.25005789
-0.00091415812
-0.24948193
-0.00088381301
-0.24892149
-0.00085046538
-0.24837792
-0.00081446551
-0.24785243
-0.00077615043
-0.24734606
-0.00073583451
-0.24685971
-0.0006938085
-0.24639414
-0.00065033496
-0.24595002
-0.00060564727
-0.2455279
-0.00055994956
-0.24512824
-0.00051341946
-0.24475143
-0.00046620798
-0.2443978
-0.00041844598
-0.24406761
-0.00037025144
-0.24376109
-0.00032173985
-0.24347849
-0.00027300942
-0.24322
-0.00022419619
-0.24298564
-0.00017546641
-0.24277529
-0.00012702929
-0.24258863
-7.9425445e-05
-0.24242494
-3.3916666e-05
-0.24228376
8.4152887e-06
-0.24216703
5.2959664e-05
-0.24206536
9.4765446e-05
9.2525206e-05
-0.2597367
-0.0003330688
-0.25953385
-0.00034529754
-0.25932781
-0.00035637058
-0.25912351
-0.00036332
-0.25892408
-0.00036452478
-0.25873207
-0.00035875076
-0.25854987
-0.00034523843
-0.25837981
-0.00032357198
-0.25822417
-0.00029355073
-0.25808514
-0.00025515052
-0.25796481
-0.00020847013
-0.25786515
-0.00015373235
-0.25778796
-9.1257934e-05
-0.25773487
-2.1477944e-05
-0.25770733
5.5088132e-05
-0.25770664
0.00013785315
-0.25773403
0.00022615189
-0.25779049
0.00031921728
-0.25787672
0.00041620262
-0.25799315
0.00051621556
-0.25813993
0.00061829224
-0.25831693
0.00072143728
-0.25852372
0.00082459836
-0.25875958
0.00092671862
-0.2590235
0.0010267011
-0.25931416
0.0011234754
-0.25962998
0.0012159507
-0.2599691
0.0013030962
-0.26032937
0.0013838819
-0.26070843
0.0014573727
-0.26110367
0.0015226564
-0.26151227
0.0015789427
-0.26193126
0.0016255189
-0.26235749
0.0016617583
-0.26278772
0.0016871988
-0.26321862
0.0017014526
-0.2636468
0.0017043231
-0.26406892
0.0016957009
-0.26448163
0.0016756799
-0.2648817
0.0016444472
-0.26526601
0.0016023946
-0.26563161
0.0015500069
-0.26597578
0.0014879517
-0.26629603
0.0014170032
-0.26659016
0.0013380646
-0.26685628
0.0012521432
-0.26709285
0.0011603348
-0.26729866
0.0010638063
-0.26747291
0.00096376871
-0.26761515
0.00086145837
-0.26772532
0.00075810897
-0.2678037
0.00065492558
-0.26785094
0.00055305741
-0.267868
0.00045357269
-0.26785611
0.00035743045
-0.26781674
0.00026545927
-0.26775156
0.00017834133
-0.26766237
9.659936e-05
-0.26755107
2.0567464e-05
-0.26741955
-4.9622587e-05
-0.26726965
-0.00011403828
-0.26710311
-0.00017293667
-0.26692149
-0.00022675476
-0.26672618
-0.00027607333
-0.26651832
-0.0003216165
-0.26629872
-0.00036421414
-0.26606792
-0.00040477012
-0.26582613
-0.00044421706
-0.26557322
-0.000483458
-0.26530875
-0.00052337147
-0.26503204
-0.00056477962
-0.26474218
-0.00060836891
-0.26443809
-0.000654678
-0.26411855
-0.00070408333
-0.26378227
-0.00075678551
-0.263428
-0.00081279728
-0.26305452
-0.00087194059
-0.26266076
-0.00093385111
-0.26224583
-0.00099799311
-0.26180911
-0.0010636749
-0.26135022
-0.0011300799
-0.26086913
-0.0011962941
-0.26036613
-0.0012613402
-0.25984187
-0.0013242136
-0.25929733
-0.001383917
-0.25873382
-0.0014394936
-0.25815296
-0.0014900578
-0.25755665
-0.0015348207
-0.25694699
-0.001573111
-0.2563263
-0.0016043893
-0.25569702
-0.0016282603
-0.25506169
-0.0016444691
-0.2544229
-0.0016529055
-0.25378321
-0.0016535931
-0.25314516
-0.0016466786
-0.25251119
-0.0016324169
-0.25188366
-0.0016111537
-0.25126477
-0.0015833107
-0.25065655
-0.0015493599
-0.25006089
-0.0015098126
-0.24947951
-0.0014651986
-0.24891392
-0.0014160513
-0.24836549
-0.0013628937
-0.24783542
-0.0013062294
-0.24732472
-0.0012465285
-0.2468343
-0.001184226
-0.24636492
-0.001119715
-0.24591723
-0.0010533451
-0.24549175
-0.00098542175
-0.24508896
-0.00091621066
-0.24470923
-0.00084593756
-0.24435288
-0.00077479782
-0.24402017
-0.00070296385
-0.24371131
-0.00063059592
-0.24342647
-0.00055785234
-0.24316575
-0.00048491479
-0.24292923
-0.00041199136
-0.24271686
-0.00033939367
-0.24252848
-0.000267809
-0.24236401
-0.00019838972
-0.24222401
-0.00013157947
-0.2421093
-6.1747253e-05
-0.24201129
-3.245256e-06
1.6831719e-05
-0.25985502
-0.00053420896
-0.2596457
-0.0005546145
-0.25943482
-0.00056725789
-0.25922641
-0.00057172973
-0.2590236
-0.00056732875
-0.25882906
-0.00055328867
-0.25864526
-0.00052904459
-0.25847454
-0.00049428555
-0.25831921
-0.00044888706
-0.25818144
-0.00039291485
-0.25806334
-0.00032657139
-0.25796686
-0.00025021097
-0.25789382
-0.0001643038
-0.25784584
-6.9453951e-05
-0.25782438
3.3629149e-05
-0.25783067
0.00014414175
-0.2578657
0.00026118474
-0.25793025
0.00038376379
-0.25802483
0.00051078399
-0.2581497
0.00064107943
-0.25830481
0.00077340849
-0.25848987
0.00090649371
-0.25870427
0.0010389954
-0.25894712
0.001169575
-0.25921727
0.001296851
-0.25951328
0.0014194824
-0.25983344
0.0015361079
-0.26017579
0.0016454483
-0.26053814
0.0017462295
-0.26091806
0.0018373007
-0.26131295
0.001917543
-0.26172
0.0019859928
-0.26213627
0.0020417855
-0.26255868
0.0020841655
-0.26298406
0.0021125843
-0.26340919
0.0021265865
-0.26383083
0.0021259566
-0.26424572
0.0021105887
-0.26465067
0.0020806317
-0.26504257
0.0020363523
-0.26541845
0.001978274
-0.26577548
0.0019070386
-0.26611105
0.0018235186
-0.26642277
0.0017287224
-0.26670853
0.0016238223
-0.26696651
0.0015101241
-0.26719522
0.001389047
-0.26739352
0.0012621014
-0.2675606
0.0011308557
-0.26769606
0.00099691074
-0.26779981
0.00086186463
-0.26787216
0.0007272785
-0.26791375
0.00059464101
-0.26792551
0.00046533519
-0.26790868
0.00034060105
-0.26786473
0.00022150633
-0.26779533
0.00010893967
-0.2677023
3.5691618e-06
-0.26758752
-9.4204209e-05
-0.26745291
-0.00018423894
-0.2673003
-0.00026664703
-0.26713144
-0.00034179596
-0.26694791
-0.00041028463
-0.26675107
-0.00047291339
-0.26654202
-0.00053066194
-0.26632159
-0.00058464925
-0.26609027
-0.00063608816
-0.26584826
-0.00068622674
-0.26559542
-0.00073629998
-0.26533129
-0.00078749716
-0.26505517
-0.0008409086
-0.26476607
-0.00089746258
-0.26446286
-0.00095789298
-0.26414423
-0.0010227095
-0.26380884
-0.0010921797
-0.26345532
-0.0011663141
-0.2630824
-0.0012448631
-0.26268892
-0.0013273245
-0.26227395
-0.001412964
-0.26183679
-0.0015008359
-0.26137705
-0.0015898266
-0.26089465
-0.0016786907
-0.26038989
-0.0017660985
-0.25986342
-0.0018506842
-0.25931624
-0.0019310926
-0.25874971
-0.0020060252
-0.25816549
-0.0020742804
-0.25756552
-0.0021347886
-0.25695199
-0.0021866402
-0.25632728
-0.0022291047
-0.25569389
-0.0022616472
-0.25505444
-0.0022839228
-0.25441156
-0.0022957824
-0.2537679
-0.0022972574
-0.25312603
-0.0022885455
-0.25248846
-0.00226999
-0.25185755
-0.0022420563
-0.25123555
-0.0022053117
-0.25062452
-0.0021603906
-0.25002635
-0.0021079802
-0.24944276
-0.0020487916
-0.24887527
-0.0019835405
-0.24832524
-0.001912928
-0.24779384
-0.0018376292
-0.24728209
-0.001758273
-0.24679088
-0.0016754414
-0.24632093
-0.0015896595
-0.24587288
-0.0015013934
-0.24544726
-0.00141105
-0.24504449
-0.001318982
-0.24466494
-0.0012254871
-0.24430891
-0.0011308218
-0.24397667
-0.0010352093
-0.24366841
-0.00093885235
-0.24338431
-0.00084195105
-0.24312451
-0.00074472074
-0.24288908
-0.00064741209
-0.24267806
-0.00055041754
-0.24249141
-0.00045445968
-0.24232937
-0.0003604337
-0.24219236
-0.0002685871
-0.24208063
-0.00017347128
-0.24199089
-9.2990001e-05
-3.8608303e-05
-0.25989384
-0.00074303164
-0.25967996
-0.00076849664
-0.2594649
-0.00078231471
-0.25925212
-0.00078451314
-0.25904464
-0.00077480258
-0.25884521
-0.00075271823
-0.25865639
-0.00071786305
-0.25848064
-0.00067003788
-0.25832032
-0.00060920488
-0.25817771
-0.0005355272
-0.25805497
-0.00044931525
-0.25795412
-0.00035105701
-0.25787705
-0.00024137524
-0.25782545
-0.00012105031
-0.25780083
9.0095626e-06
-0.25780447
0.00014777813
-0.2578374
0.00029411958
-0.25790043
0.00044678536
-0.25799406
0.00060442112
-0.25811857
0.00076558714
-0.25827392
0.00092875633
-0.25845979
0.0010923641
-0.25867557
0.0012547764
-0.25892036
0.0014143673
-0.25919298
0.0015694647
-0.25949195
0.0017184521
-0.25981553
0.0018596938
-0.26016174
0.0019916583
-0.26052834
0.0021128246
-0.26091286
0.0022218241
-0.26131265
0.0023173291
-0.26172486
0.0023982015
-0.26214649
0.0024634234
-0.26257444
0.0025121085
-0.26300547
0.0025436207
-0.26343632
0.0025574351
-0.26386368
0.0025533157
-0.26428425
0.002531158
-0.26469478
0.0024911639
-0.26509211
0.0024336775
-0.26547319
0.0023593528
-0.26583514
0.002268988
-0.26617528
0.0021636604
-0.26649117
0.0020446143
-0.26678064
0.0019132942
-0.26704183
0.001771309
-0.26727319
0.001620408
-0.26747354
0.0014624543
-0.26764207
0.0012993838
-0.26777833
0.0011331749
-0.26788227
0.00096580374
-0.2679542
0.00079920269
-0.26799477
0.00063521546
-0.26800499
0.00047555606
-0.26798615
0.00032175875
-0.26793979
0.00017515057
-0.2678677
3.6843716e-05
-0.26777177
-9.2359499e-05
-0.26765399
-0.00021198509
-0.26751635
-0.00032187509
-0.26736082
-0.00042217756
-0.26718923
-0.00051338223
-0.26700327
-0.00059625291
-0.26680436
-0.00067181987
-0.26659369
-0.00074133521
-0.26637211
-0.00080622716
-0.26614015
-0.0008680431
-0.265898
-0.00092837895
-0.26564548
-0.00098882056
-0.26538209
-0.0010508854
-0.26510704
-0.0011159572
-0.26481929
-0.0011852204
-0.26451756
-0.0012596143
-0.26420048
-0.00133979
-0.26386658
-0.0014260867
-0.26351438
-0.0015185134
-0.2631425
-0.0016167454
-0.26274969
-0.0017201342
-0.26233492
-0.0018277343
-0.26189742
-0.0019383307
-0.26143675
-0.0020504936
-0.26095282
-0.0021626262
-0.26044589
-0.0022730251
-0.25991663
-0.002379942
-0.25936608
-0.0024816442
-0.25879563
-0.0025764728
-0.25820702
-0.0026628948
-0.25760226
-0.0027395476
-0.25698363
-0.0028052742
-0.25635358
-0.0028591478
-0.25571474
-0.0029004921
-0.25506979
-0.0029288737
-0.25442146
-0.0029441089
-0.25377247
-0.0029462444
-0.25312548
-0.0029355374
-0.25248304
-0.00291243
-0.25184758
-0.0028775184
-0.25122137
-0.0028315268
-0.25060649
-0.0027752638
-0.25000487
-0.0027096025
-0.24941822
-0.0026354456
-0.24884806
-0.0025536999
-0.24829573
-0.0024652522
-0.24776241
-0.0023709548
-0.24724908
-0.0022716007
-0.2467566
-0.0021679222
-0.24628568
-0.0020605786
-0.24583692
-0.0019501537
-0.24541081
-0.0018371551
-0.24500778
-0.0017220207
-0.24462815
-0.0016051179
-0.24427221
-0.0014867594
-0.2439402
-0.0013672124
-0.24363234
-0.0012467142
-0.2433488
-0.0011254899
-0.24308975
-0.0010037715
-0.24285533
-0.00088183181
-0.24264566
-0.00076008645
-0.24246094
-0.00063918367
-0.2423016
-0.00051977609
-0.24216797
-0.00040221883
-0.24206094
-0.00028050144
-0.2419804
-0.00017352262
-8.3561997e-05
-0.25994279
-0.00095910819
-0.25972317
-0.00098811915
-0.25950274
-0.0010027418
-0.2592845
-0.0010027544
-0.25907136
-0.00098794821
-0.25886606
-0.00095801206
-0.25867126
-0.00091266757
-0.25848948
-0.00085181662
-0.25832317
-0.00077550894
-0.25817469
-0.00068400896
-0.25804627
-0.0005777386
-0.25794
-0.000457323
-0.25785784
-0.00032353998
-0.25780154
-0.00017734923
-0.25777267
-1.9861127e-05
-0.25777256
0.00014767084
-0.25780231
0.00032387204
-0.25786276
0.00050723442
-0.25795448
0.00069613575
-0.25807775
0.00088885593
-0.25823257
0.0010835764
-0.25841864
0.0012784385
-0.25863537
0.0014715065
-0.25888186
0.0016608591
-0.25915692
0.001844526
-0.25945908
0.0020206065
-0.25978657
0.0021871823
-0.26013737
0.002342461
-0.26050921
0.0024846661
-0.26089959
0.002612203
-0.26130579
0.0027235269
-0.2617249
0.0028173171
-0.26215388
0.0028923947
-0.2625895
0.0029477359
-0.26302849
0.0029826101
-0.26346747
0.0029964174
-0.26390305
0.0029888962
-0.26433184
0.0029599395
-0.26475047
0.0029097996
-0.26515569
0.0028388972
-0.26554436
0.002748017
-0.26591348
0.0026381159
-0.2662603
0.0025104805
-0.26658229
0.0023665972
-0.26687718
0.0022081911
-0.26714306
0.0020371851
-0.26737832
0.0018556713
-0.26758175
0.0016658803
-0.2677525
0.0014701322
-0.26789012
0.0012708006
-0.26799458
0.0010702589
-0.26806621
0.00087083049
-0.26810572
0.00067473352
-0.2681142
0.00048403265
-0.26809301
0.00030057058
-0.26804383
0.00012596588
-0.26796853
-3.8449979e-05
-0.26786915
-0.0001917397
-0.2677478
-0.00033333677
-0.26760661
-0.00046306606
-0.26744766
-0.00058113384
-0.2672729
-0.00068813745
-0.26708413
-0.00078502712
-0.26688287
-0.0008730748
-0.26667038
-0.00095382699
-0.26644756
-0.001029044
-0.26621497
-0.0011006329
-0.26597279
-0.0011705646
-0.26572081
-0.0012408005
-0.26545848
-0.0013132141
-0.26518493
-0.0013895108
-0.26489899
-0.0014711537
-0.2645993
-0.0015593041
-0.26428433
-0.0016547666
-0.26395245
-0.0017579591
-0.26360208
-0.0018688899
-0.26323167
-0.0019871544
-0.26283985
-0.0021119471
-0.26242549
-0.0022420955
-0.26198773
-0.0023760944
-0.26152605
-0.0025121745
-0.26104031
-0.0026483611
-0.26053079
-0.0027825496
-0.25999815
-0.0029125826
-0.25944347
-0.0030363237
-0.25886821
-0.0031517308
-0.25827419
-0.0032569197
-0.25766352
-0.0033502187
-0.25703858
-0.0034302125
-0.25640195
-0.0034957712
-0.25575637
-0.0035460751
-0.25510464
-0.0035806044
-0.2544496
-0.003599147
-0.25379407
-0.0036017737
-0.2531408
-0.0035888131
-0.25249241
-0.0035608193
-0.25185139
-0.0035185335
-0.25122007
-0.0034628518
-0.25060056
-0.0033947706
-0.2499948
-0.0033153634
-0.24940451
-0.0032257366
-0.24883121
-0.0031269991
-0.24827623
-0.0030202329
-0.24774071
-0.0029064759
-0.24722562
-0.0027866909
-0.24673177
-0.0026617652
-0.24625986
-0.0025324952
-0.24581043
-0.002399584
-0.24538394
-0.00226364
-0.24498078
-0.0021251857
-0.24460124
-0.0019846551
-0.24424559
-0.0018424141
-0.24391403
-0.001698769
-0.24360676
-0.0015539843
-0.24332395
-0.0014083001
-0.24306577
-0.0012619551
-0.24283237
-0.0011152242
-0.24262396
-0.00096849833
-0.24244084
-0.00082230139
-0.24228351
-0.00067710799
-0.24215234
-0.00053339075
-0.2420491
-0.00038374542
-0.24197489
-0.00024773353
-0.00012299775
-0.26001357
-0.0011822828
-0.25978707
-0.0012146161
-0.25955979
-0.0012300216
-0.25933456
-0.001227986
-0.25911422
-0.0012082846
-0.25890156
-0.0011706746
-0.25869928
-0.0011149531
-0.25850999
-0.0010411056
-0.25833623
-0.00094926377
-0.25818045
-0.00083979266
-0.25804496
-0.00071322689
-0.25793195
-0.00057033103
-0.25784345
-0.00041204059
-0.2577813
-0.00023949894
-0.25774714
-5.4022474e-05
-0.25774237
0.00014290256
-0.25776816
0.00034965808
-0.2578254
0.00056447095
-0.2579147
0.00078544104
-0.25803641
0.0010105613
-0.25819054
0.0012377127
-0.25837684
0.0014647339
-0.25859471
0.001689378
-0.25884327
0.0019094188
-0.25912132
0.0021225778
-0.25942737
0.00232666
-0.25975965
0.0025194539
-0.26011608
0.0026988961
-0.26049436
0.0028629438
-0.26089192
0.0030097662
-0.26130599
0.0031375911
-0.26173357
0.0032449055
-0.26217154
0.0033303602
-0.26261659
0.0033927849
-0.26306533
0.0034313468
-0.26351427
0.0034453635
-0.26395992
0.0034345425
-0.26439875
0.0033987692
-0.26482729
0.003338344
-0.26524216
0.0032537625
-0.26564008
0.0031459411
-0.26601796
0.0030159983
-0.26637292
0.0028654355
-0.26670231
0.0026959887
-0.26700379
0.0025096744
-0.26727535
0.0023087422
-0.26751532
0.0020956428
-0.26772243
0.0018729919
-0.26789582
0.0016435141
-0.26803502
0.00141
-0.26814
0.0011752438
-0.26821115
0.00094198373
-0.26824926
0.00071283675
-0.26825547
0.00049024143
-0.26823127
0.00027637175
-0.26817847
7.316726e-05
-0.26809909
-0.00011782396
-0.26799532
-0.00029551349
-0.26786942
-0.00045923782
-0.2677237
-0.00060878751
-0.2675604
-0.00074443421
-0.26738164
-0.00086689772
-0.26718934
-0.00097732869
-0.26698515
-0.0010772627
-0.26677041
-0.0011685657
-0.26654609
-0.0012533612
-0.26631278
-0.0013339498
-0.26607063
-0.0014127117
-0.26581941
-0.0014920174
-0.2655585
-0.0015741288
-0.2652869
-0.0016611057
-0.26500334
-0.0017547159
-0.26470628
-0.0018563637
-0.26439402
-0.0019670221
-0.26406479
-0.0020871959
-0.26371678
-0.0022168938
-0.26334831
-0.0023556247
-0.26295785
-0.0025024128
-0.2625441
-0.0026558387
-0.26210612
-0.0028140817
-0.26164329
-0.0029750029
-0.26115543
-0.0031362173
-0.2606428
-0.0032951854
-0.26010607
-0.0034493069
-0.25954639
-0.00359601
-0.25896528
-0.0037328407
-0.25836466
-0.003857539
-0.25774677
-0.0039681051
-0.25711413
-0.0040628513
-0.25646947
-0.0041404369
-0.25581565
-0.0041998962
-0.25515562
-0.0042406264
-0.25449238
-0.0042623945
-0.25382884
-0.0042653068
-0.25316788
-0.0042497777
-0.25251221
-0.0042164899
-0.25186439
-0.0041663472
-0.25122681
-0.0041004354
-0.25060162
-0.0040199569
-0.24999079
-0.0039262015
-0.24939603
-0.0038204949
-0.24881887
-0.0037041613
-0.24826061
-0.0035784895
-0.24772237
-0.003444712
-0.2472051
-0.0033039688
-0.24670955
-0.0031573074
-0.24623638
-0.0030056646
-0.2457861
-0.002849864
-0.24535913
-0.0026906147
-0.24495579
-0.0025285218
-0.24457637
-0.0023640828
-0.24422107
-0.0021977115
-0.24389009
-0.0020297472
-0.2435836
-0.0018604732
-0.24330177
-0.0016901354
-0.24304475
-0.0015189685
-0.24281274
-0.0013472318
-0.24260598
-0.0011752623
-0.24242482
-0.0010034598
-0.24226975
-0.00083218176
-0.24214121
-0.00066192661
-0.24204151
-0.00048344859
-0.24197179
-0.00031745194
-0.00015918899
-0.26009852
-0.0014134095
-0.25986409
-0.0014490469
-0.25962882
-0.0014652919
-0.25939545
-0.0014613512
-0.25916682
-0.0014369218
-0.25894572
-0.0013917749
-0.25873492
-0.0013257484
-0.25853713
-0.0012388935
-0.25835498
-0.0011314153
-0.258191
-0.0010037768
-0.2580476
-0.00085662479
-0.25792707
-0.00069086464
-0.25783151
-0.00050759193
-0.25776287
-0.00030813798
-0.25772287
-9.4028874e-05
-0.25771298
0.00013301002
-0.25773443
0.00037111122
-0.25778819
0.00061822998
-0.25787493
0.00087218065
-0.25799503
0.0011306606
-0.25814856
0.0013912408
-0.25833527
0.0016514474
-0.2585546
0.0019087122
-0.25880568
0.0021604931
-0.25908729
0.002404192
-0.25939794
0.0026373082
-0.25973581
0.0028573253
-0.26009881
0.0030618967
-0.26048457
0.0032487017
-0.26089046
0.0034156611
-0.26131364
0.0035607636
-0.26175102
0.0036822926
-0.26219938
0.0037787181
-0.26265531
0.0038487126
-0.26311529
0.003891332
-0.26357573
0.0039058034
-0.26403299
0.0038917961
-0.2644834
0.0038491827
-0.26492337
0.003778308
-0.26534934
0.0036797407
-0.26575793
0.0035545301
-0.26614589
0.0034039593
-0.26651021
0.0032297502
-0.26684812
0.0030338977
-0.26715716
0.002818721
-0.26743523
0.0025868117
-0.26768059
0.0023409966
-0.26789189
0.0020842973
-0.26806825
0.0018198664
-0.26820918
0.001550937
-0.26831469
0.001280751
-0.2683852
0.0010124898
-0.26842156
0.00074919793
-0.26842503
0.00049371447
-0.26839723
0.00024857617
-0.26834013
1.606575e-05
-0.26825591
-0.00020204516
-0.26814693
-0.00040449166
-0.26801566
-0.0005905069
-0.2678646
-0.00075984918
-0.26769619
-0.00091285195
-0.26751271
-0.0010503715
-0.26731627
-0.0011737748
-0.26710864
-0.0012848851
-0.26689129
-0.0013859182
-0.26666526
-0.001479396
-0.26643115
-0.0015680525
-0.26618915
-0.0016547186
-0.26593895
-0.0017422149
-0.26567984
-0.0018332333
-0.26541072
-0.0019302255
-0.26513014
-0.0020352969
-0.26483639
-0.0021501211
-0.26452755
-0.0022758579
-0.26420164
-0.002413109
-0.26385665
-0.002561885
-0.26349067
-0.0027216004
-0.26310199
-0.0028910926
-0.26268916
-0.003068671
-0.26225107
-0.0032521684
-0.26178703
-0.0034390404
-0.2612968
-0.0036264519
-0.2607806
-0.0038113874
-0.26023914
-0.0039907628
-0.25967362
-0.0041615328
-0.25908566
-0.0043207965
-0.25847731
-0.004465889
-0.25785096
-0.0045944592
-0.25720928
-0.0047045309
-0.25655517
-0.0047945432
-0.25589169
-0.0048633827
-0.25522195
-0.0049103673
-0.25454909
-0.0049352529
-0.2538762
-0.0049381957
-0.25320626
-0.0049197138
-0.25254211
-0.0048806387
-0.2518864
-0.0048220585
-0.25124157
-0.0047452703
-0.25060982
-0.0046517036
-0.24999314
-0.0045428848
-0.24939326
-0.0044203768
-0.24881168
-0.0042857353
-0.2482497
-0.0041404692
-0.2477084
-0.0039860166
-0.24718866
-0.0038237036
-0.24669123
-0.0036547437
-0.24621667
-0.003480218
-0.24576546
-0.0033010724
-0.24533796
-0.0031181167
-0.24493445
-0.0029320362
-0.24455514
-0.0027433887
-0.24420022
-0.0025526306
-0.24386984
-0.0023601271
-0.24356414
-0.0021661716
-0.24328327
-0.0019710056
-0.2430274
-0.0017748472
-0.24279671
-0.0015779207
-0.24259148
-0.0013804902
-0.2424121
-0.0011828402
-0.24225905
-0.00098523262
-0.24213288
-0.00078809558
-0.24203613
-0.00058020254
-0.24196959
-0.00038399004
-0.00019332623
-0.26020131
-0.0016533455
-0.25995779
-0.0016925665
-0.25971321
-0.0017098782
-0.25947031
-0.0017042424
-0.25923196
-0.0016752715
-0.25900102
-0.0016227221
-0.25878032
-0.0015464487
-0.25857266
-0.0014465523
-0.25838077
-0.0013233023
-0.25820729
-0.001177255
-0.25805475
-0.0010091678
-0.25792553
-0.00082008798
-0.25782184
-0.00061127321
-0.25774574
-0.0003842473
-0.25769901
-0.0001407495
-0.25768325
0.00011724813
-0.25769976
0.00038762006
-0.25774958
0.00066804332
-0.25783343
0.00095603546
-0.25795176
0.0012489897
-0.25810467
0.0015441545
-0.25829196
0.0018387325
-0.25851307
0.0021298218
-0.25876713
0.0024145523
-0.25905293
0.0026899935
-0.25936895
0.002953326
-0.25971334
0.003201715
-0.26008396
0.0034325176
-0.26047838
0.0036431217
-0.2608939
0.0038311869
-0.26132759
0.0039944496
-0.26177627
0.0041309772
-0.2622366
0.0042390464
-0.26270505
0.0043171614
-0.26317798
0.0043642566
-0.26365163
0.0043794584
-0.26412222
0.0043623906
-0.26458595
0.0043129064
-0.26503903
0.0042313905
-0.26547777
0.0041184827
-0.26589861
0.0039753656
-0.26629814
0.0038034898
-0.26667319
0.0036048043
-0.26702087
0.0033815724
-0.26733858
0.0031364294
-0.26762409
0.0028723251
-0.26787558
0.0025924833
-0.26809163
0.0023003551
-0.26827132
0.0019995477
-0.26841415
0.0016937665
-0.26852013
0.0013867331
-0.26858974
0.0010821049
-0.26862393
0.00078338825
-0.26862407
0.00049385394
-0.26859194
0.00021643959
-0.26852967
-4.620405e-05
-0.26843964
-0.00029206734
-0.26832445
-0.00051968167
-0.26818679
-0.0007281704
-0.26802938
-0.00091725723
-0.2678549
-0.0010873385
-0.26766585
-0.0012394198
-0.26746452
-0.0013751056
-0.26725287
-0.0014965357
-0.26703247
-0.0016063114
-0.26680447
-0.0017073957
-0.26656952
-0.0018030027
-0.26632778
-0.0018964629
-0.2660789
-0.0019910968
-0.26582206
-0.0020900747
-0.265556
-0.0021962852
-0.26527908
-0.0023122104
-0.26498938
-0.0024398242
-0.26468474
-0.0025804954
-0.26436292
-0.002734935
-0.26402164
-0.0029031566
-0.26365877
-0.0030844712
-0.26327236
-0.0032775096
-0.26286075
-0.0034802808
-0.26242268
-0.0036902339
-0.26195735
-0.0039043753
-0.26146443
-0.0041193728
-0.26094413
-0.0043316854
-0.26039719
-0.0045376967
-0.25982488
-0.0047338416
-0.25922895
-0.0049167317
-0.25861158
-0.0050832619
-0.25797533
-0.0052307027
-0.25732309
-0.0053567706
-0.25665796
-0.0054596744
-0.25598319
-0.0055381504
-0.25530212
-0.0055914431
-0.25461806
-0.0056193094
-0.25393429
-0.0056219729
-0.25325392
-0.0056000771
-0.25257993
-0.0055546266
-0.25191507
-0.0054869192
-0.25126185
-0.0053984897
-0.25062254
-0.0052910194
-0.24999913
-0.0051662948
-0.24939337
-0.0050261371
-0.24880675
-0.0048723522
-0.24824054
-0.0047066846
-0.24769576
-0.0045307908
-0.24717327
-0.0043461923
-0.24667374
-0.0041542758
-0.24619769
-0.003956271
-0.24574551
-0.0037532481
-0.24531751
-0.0035461171
-0.24491391
-0.003335642
-0.24453486
-0.0031224369
-0.24418049
-0.0029069959
-0.24385092
-0.0026897034
-0.24354623
-0.0024708555
-0.24326656
-0.0022506807
-0.24301203
-0.0020293697
-0.24278286
-0.0018070977
-0.2425793
-0.0015840472
-0.24240174
-0.0013603961
-0.24225067
-0.0011363082
-0.24212669
-0.000912078
-0.24203239
-0.00067449791
-0.24196819
-0.00044819308
-0.00022606487
-0.26031844
-0.0019031058
-0.26006472
-0.0019462858
-0.25980964
-0.0019649586
-0.259556
-0.0019578791
-0.25930671
-0.0019245669
-0.25906468
-0.0018647459
-0.25883286
-0.0017782686
-0.25861414
-0.0016652721
-0.25841137
-0.0015260809
-0.25822728
-0.0013613399
-0.25806453
-0.0011719148
-0.25792563
-0.00095899505
-0.2578129
-0.00072400258
-0.25772849
-0.00046865884
-0.25767432
-0.00019491953