/*--------------------------------*- C++ -*----------------------------------*\
| =========                 |                                                 |
| \\      /  F ield         | foam-extend: Open Source CFD                    |
|  \\    /   O peration     | Version:     4.1                                |
|   \\  /    A nd           | Web:         http://www.foam-extend.org         |
|    \\/     M anipulation  |                                                 |
\*---------------------------------------------------------------------------*/
FoamFile
{
    version     2.0;
    format      ascii;
    class       volScalarField;
    location    "0.55";
    object      rAU;
}
// * * * * * * * * * * * * * * * * * * * * * * * * * * * * * * * * * * * * * //

dimensions      [0 0 1 0 0 0 0];

internalField   nonuniform List<scalar> 
16796
(
0.00012782083
0.00012777047
0.0001277497
0.00012773357
0.00012772042
0.00012771104
0.00012770282
0.00012769613
0.00012768812
0.00012767901
0.00012766586
0.00012764884
0.000127625
0.00012759457
0.00012755466
0.00012750561
0.00012744468
0.00012737237
0.00012728616
0.00012718677
0.00012707195
0.00012694272
0.00012679713
0.00012663656
0.00012645941
0.00012626739
0.00012605929
0.00012583718
0.00012560019
0.00012535073
0.00012508827
0.00012481512
0.00012453257
0.00012424085
0.00012394302
0.00012363908
0.0001233322
0.0001230225
0.00012271317
0.00012240434
0.00012209916
0.00012179778
0.00012150272
0.00012121495
0.00012093589
0.00012066672
0.00012040849
0.00012016225
0.00011992866
0.00011970843
0.00011950203
0.00011930982
0.00011913195
0.0001189686
0.00011881957
0.00011868471
0.0001185637
0.00011845616
0.00011836158
0.00011827953
0.00011820934
0.00011815046
0.0001181023
0.00011806433
0.000118036
0.00011801684
0.00011800656
0.00011800476
0.00011800476
0.00011801147
0.0001180268
0.00011805065
0.00011808306
0.00011812381
0.00011817288
0.00011823023
0.00011829583
0.0001183696
0.00011845162
0.00011854163
0.00011863956
0.00011874518
0.00011885819
0.0001189782
0.00011910474
0.00011923723
0.00011937504
0.00011951742
0.00011966356
0.00011981255
0.0001199636
0.00012011565
0.00012026778
0.00012041903
0.00012056846
0.00012071515
0.0001208582
0.0001209969
0.00012113038
0.00012125798
0.00012137909
0.00012149316
0.00012159968
0.00012169836
0.00012178875
0.00012187062
0.00012194374
0.00012200796
0.0001220631
0.0001221092
0.0001221461
0.00012217379
0.00012219228
0.00012220157
0.00012219276
0.00012217488
0.00012214804
0.00012211239
0.00012206817
0.00012201593
0.0001219567
0.00012189033
0.00012181442
0.000121704
0.0001159433
0.00011595707
0.00011600084
0.0001160493
0.00011610077
0.00011615636
0.00011621402
0.00011627448
0.0001163354
0.00011639732
0.00011645777
0.00011651716
0.00011657295
0.00011662554
0.00011667234
0.00011670625
0.00011672227
0.00011672903
0.0001167243
0.00011670897
0.00011668104
0.0001166416
0.00011658891
0.00011652431
0.00011644634
0.00011635662
0.00011625398
0.00011614034
0.00011601481
0.00011587958
0.00011573405
0.00011558026
0.00011541931
0.00011525125
0.00011507881
0.00011490183
0.00011472312
0.00011454263
0.0001143632
0.00011418478
0.00011401018
0.00011383939
0.00011367463
0.0001135167
0.00011336678
0.00011322589
0.00011309491
0.00011297471
0.00011286587
0.00011276895
0.00011268435
0.00011261235
0.00011255305
0.00011250657
0.00011247273
0.00011245134
0.00011244212
0.0001124447
0.00011245859
0.00011248343
0.0001125186
0.00011256359
0.00011261703
0.00011266168
0.00011271562
0.00011277836
0.00011284955
0.00011292871
0.00011300937
0.00011309541
0.00011318814
0.00011328739
0.00011339324
0.00011350563
0.00011362469
0.00011375056
0.0001138834
0.00011402333
0.00011417064
0.0001143253
0.00011448748
0.00011465718
0.00011483436
0.0001150189
0.00011521056
0.00011540904
0.00011561394
0.00011582475
0.00011604088
0.00011626162
0.00011648637
0.0001167142
0.00011694434
0.00011717593
0.00011740809
0.00011763995
0.00011787064
0.00011809943
0.00011832543
0.00011854793
0.00011876625
0.00011897975
0.00011918784
0.00011939012
0.00011958602
0.0001197752
0.00011995733
0.00012013212
0.0001202993
0.00012045878
0.00012061028
0.00012075372
0.00012088898
0.00012101593
0.00012112567
0.00012122688
0.00012131957
0.00012140376
0.00012147949
0.00012154688
0.00012159868
0.00012163396
0.0001216618
0.00012167593
0.00011510545
0.00011514087
0.00011520079
0.0001152637
0.00011532782
0.00011539431
0.00011546124
0.00011552949
0.00011559689
0.00011566419
0.00011572913
0.00011579238
0.00011585166
0.00011590762
0.00011595801
0.00011599609
0.000116005
0.00011598936
0.00011596146
0.00011592256
0.0001158711
0.00011580857
0.00011573366
0.00011564813
0.00011555089
0.00011544395
0.00011532647
0.00011520065
0.00011506589
0.00011492456
0.00011477623
0.00011462308
0.00011446627
0.00011430589
0.00011414463
0.00011398229
0.00011382157
0.00011366227
0.00011350707
0.00011335571
0.00011321076
0.00011307196
0.00011294124
0.00011281913
0.00011270649
0.00011260404
0.00011251232
0.00011243193
0.0001123631
0.0001123061
0.00011226104
0.00011222791
0.00011220655
0.00011219686
0.0001121984
0.00011221083
0.00011223367
0.00011226644
0.00011230855
0.00011235956
0.0001124188
0.0001124578
0.00011250351
0.0001125399
0.00011258505
0.00011263841
0.00011269963
0.00011276817
0.00011284372
0.00011292602
0.00011301484
0.00011311
0.00011321158
0.00011331949
0.00011343386
0.00011355484
0.00011368262
0.00011381737
0.00011395942
0.00011410883
0.00011426583
0.00011443054
0.00011460299
0.00011478316
0.0001149709
0.000115166
0.00011536813
0.00011557686
0.00011579165
0.00011601184
0.00011623683
0.00011646574
0.00011669777
0.00011693205
0.0001171677
0.00011740379
0.0001176394
0.00011787377
0.00011810593
0.00011833514
0.00011856063
0.00011878173
0.00011899776
0.00011920828
0.00011941267
0.00011961054
0.00011980152
0.00011998529
0.00012016154
0.00012033016
0.00012049085
0.00012064351
0.00012078801
0.00012092423
0.00012105206
0.0001211715
0.00012128238
0.00012138462
0.00012147804
0.00012156223
0.00012162929
0.00012168029
0.00012171979
0.00012172465
0.00011499499
0.00011502865
0.00011508878
0.00011515305
0.0001152193
0.00011528851
0.00011535866
0.00011543062
0.00011550225
0.00011557427
0.00011564444
0.0001157134
0.00011577886
0.00011584143
0.00011589881
0.00011595162
0.00011598409
0.00011595706
0.00011591704
0.00011586546
0.00011580091
0.00011572506
0.00011563676
0.00011553792
0.00011542765
0.00011530808
0.00011517856
0.00011504142
0.0001148962
0.00011474541
0.00011458874
0.00011442845
0.00011426577
0.00011410088
0.0001139365
0.00011377245
0.00011361145
0.00011345329
0.0001133006
0.0001131531
0.00011301328
0.00011288084
0.0001127576
0.000112644
0.00011254082
0.00011244864
0.00011236793
0.00011229914
0.0001122424
0.00011219787
0.00011216552
0.00011214525
0.00011213678
0.00011213989
0.00011215408
0.00011217887
0.00011221375
0.00011225814
0.00011231138
0.000112373
0.00011240478
0.0001124155
0.00011243515
0.0001124644
0.00011250272
0.00011254953
0.00011260443
0.00011266682
0.00011273633
0.0001128126
0.00011289535
0.00011298435
0.00011307964
0.00011318109
0.00011328884
0.00011340305
0.00011352393
0.0001136517
0.00011378675
0.00011392922
0.00011407944
0.00011423761
0.00011440384
0.00011457822
0.0001147607
0.00011495114
0.00011514929
0.00011535478
0.00011556711
0.00011578567
0.00011600988
0.00011623885
0.00011647179
0.0001167078
0.00011694595
0.0001171853
0.00011742486
0.00011766382
0.00011790115
0.00011813603
0.00011836765
0.00011859527
0.00011881816
0.00011903582
0.00011924759
0.00011945302
0.00011965172
0.00011984332
0.00012002749
0.00012020411
0.00012037286
0.00012053361
0.00012068623
0.0001208306
0.00012096657
0.00012109416
0.00012121315
0.00012132343
0.00012142475
0.0001215167
0.00012159896
0.00012167414
0.0001217329
0.00012174049
0.00011491171
0.00011494282
0.00011500162
0.00011506586
0.00011513326
0.00011520466
0.00011527799
0.00011535406
0.00011543071
0.00011550863
0.00011558555
0.00011566207
0.00011573585
0.00011580743
0.00011587445
0.00011593745
0.00011599276
0.0001159679
0.00011591862
0.00011585727
0.00011578252
0.00011569613
0.00011559707
0.00011548735
0.00011536618
0.00011523582
0.00011509572
0.00011494833
0.00011479328
0.0001146332
0.00011446785
0.00011429962
0.00011412979
0.00011395863
0.00011378892
0.00011362055
0.00011345625
0.00011329587
0.00011314205
0.00011299453
0.0001128558
0.00011272554
0.00011260557
0.00011249628
0.00011239841
0.00011231251
0.00011223895
0.00011217813
0.0001121301
0.00011209492
0.00011207248
0.00011206256
0.00011206479
0.00011207884
0.00011210409
0.00011213997
0.00011218586
0.00011224107
0.00011230487
0.00011234863
0.0001123414
0.00011234308
0.00011235536
0.00011237766
0.0001124094
0.00011244993
0.00011249875
0.00011255519
0.00011261879
0.00011268913
0.00011276587
0.00011284872
0.00011293769
0.00011303263
0.00011313368
0.00011324102
0.00011335489
0.00011347557
0.00011360354
0.00011373901
0.00011388239
0.000114034
0.00011419405
0.00011436273
0.00011454007
0.00011472603
0.00011492044
0.00011512296
0.00011533317
0.00011555048
0.0001157743
0.00011600378
0.00011623807
0.00011647627
0.0001167174
0.00011696047
0.00011720443
0.0001174484
0.0001176913
0.00011793225
0.00011817036
0.00011840483
0.00011863488
0.00011885994
0.00011907931
0.00011929252
0.0001194991
0.00011969869
0.00011989092
0.00012007565
0.00012025255
0.00012042148
0.00012058231
0.0001207349
0.0001208791
0.00012101492
0.00012114211
0.00012126052
0.00012136986
0.00012146971
0.00012155978
0.00012164283
0.00012170977
0.00012173215
0.0001148221
0.00011485166
0.00011490962
0.00011497404
0.00011504272
0.00011511645
0.00011519313
0.00011527352
0.00011535544
0.00011543955
0.00011552353
0.00011560796
0.00011569044
0.00011577145
0.00011584856
0.00011592223
0.00011599
0.00011598127
0.00011592291
0.00011585192
0.00011576709
0.00011567027
0.0001155605
0.0001154399
0.0001153078
0.00011516656
0.00011501572
0.00011485785
0.00011469269
0.00011452295
0.00011434851
0.00011417183
0.0001139943
0.00011381625
0.00011364052
0.00011346709
0.00011329873
0.00011313534
0.0001129796
0.00011283126
0.00011269283
0.000112564
0.00011244658
0.00011234093
0.00011224777
0.00011216759
0.00011210073
0.0001120475
0.00011200788
0.00011198183
0.00011196916
0.00011196954
0.00011198247
0.00011200752
0.00011204394
0.00011209106
0.00011214812
0.00011221433
0.00011228887
0.00011228398
0.00011226625
0.00011226018
0.00011226521
0.00011228073
0.00011230606
0.00011234048
0.00011238341
0.00011243408
0.00011249194
0.00011255648
0.0001126273
0.00011270407
0.00011278673
0.00011287515
0.00011296945
0.00011306983
0.0001131766
0.0001132901
0.00011341088
0.00011353924
0.00011367573
0.00011382074
0.00011397462
0.00011413763
0.00011430994
0.00011449158
0.00011468243
0.00011488226
0.00011509064
0.00011530703
0.00011553085
0.00011576123
0.0001159973
0.00011623812
0.00011648265
0.00011672986
0.00011697863
0.000117228
0.00011747684
0.00011772418
0.00011796907
0.00011821064
0.00011844805
0.00011868069
0.0001189078
0.00011912887
0.0001193434
0.00011955099
0.00011975127
0.00011994408
0.00012012908
0.00012030613
0.00012047508
0.00012063581
0.00012078818
0.00012093218
0.00012106758
0.0001211942
0.00012131177
0.00012141991
0.00012151828
0.00012161001
0.0001216849
0.00012171777
0.00011472245
0.00011475079
0.00011480829
0.00011487326
0.00011494354
0.00011501993
0.00011510029
0.00011518538
0.00011527299
0.00011536373
0.00011545527
0.00011554812
0.00011563982
0.00011573082
0.00011581857
0.00011590347
0.00011598296
0.00011599548
0.00011592814
0.00011584758
0.00011575264
0.00011564529
0.00011552466
0.00011539297
0.00011524966
0.00011509718
0.00011493522
0.00011476642
0.00011459065
0.00011441072
0.00011422662
0.00011404089
0.00011385501
0.00011366942
0.00011348703
0.00011330787
0.00011313479
0.00011296774
0.00011280944
0.00011265967
0.00011252098
0.00011239304
0.00011227768
0.00011217524
0.00011208641
0.00011201165
0.00011195123
0.00011190542
0.0001118741
0.00011185715
0.00011185428
0.00011186504
0.00011188884
0.00011192509
0.00011197294
0.00011203157
0.00011210011
0.00011217765
0.00011224286
0.00011220612
0.00011218029
0.00011216671
0.00011216479
0.00011217383
0.00011219307
0.00011222168
0.00011225899
0.00011230414
0.00011235647
0.00011241539
0.00011248041
0.00011255117
0.00011262755
0.00011270942
0.0001127969
0.00011289024
0.00011298978
0.00011309596
0.00011320942
0.00011333057
0.00011346005
0.0001135984
0.00011374608
0.00011390347
0.00011407083
0.00011424829
0.00011443582
0.00011463322
0.00011484012
0.00011505599
0.00011528025
0.000115512
0.00011575035
0.00011599431
0.00011624279
0.00011649467
0.00011674878
0.00011700407
0.00011725932
0.0001175135
0.0001177656
0.00011801466
0.00011825978
0.00011850029
0.0001187354
0.00011896454
0.0001191872
0.00011940294
0.00011961138
0.00011981233
0.00012000545
0.00012019062
0.00012036767
0.0001205365
0.00012069697
0.00012084907
0.00012099257
0.00012112732
0.00012125306
0.00012136949
0.00012147621
0.00012157703
0.00012166091
0.00012170464
0.00011461493
0.00011464241
0.00011469977
0.00011476555
0.00011483766
0.00011491693
0.00011500122
0.00011509127
0.00011518484
0.00011528252
0.00011538194
0.00011548356
0.00011558486
0.00011568622
0.00011578503
0.00011588158
0.00011597322
0.00011601123
0.00011593483
0.00011584455
0.00011573933
0.0001156212
0.00011548941
0.0001153463
0.00011519139
0.00011502726
0.00011485369
0.00011467347
0.00011448656
0.00011429588
0.00011410153
0.00011390615
0.00011371133
0.00011351759
0.00011332792
0.00011314243
0.00011296404
0.00011279276
0.00011263135
0.00011247964
0.0001123402
0.00011221272
0.00011209903
0.00011199947
0.00011191469
0.00011184513
0.00011179101
0.00011175252
0.00011172948
0.00011172168
0.00011172872
0.00011175003
0.00011178489
0.0001118326
0.00011189215
0.00011196261
0.00011204296
0.00011213214
0.00011216512
0.00011211792
0.00011208413
0.00011206326
0.00011205464
0.00011205747
0.00011207092
0.00011209403
0.00011212603
0.00011216593
0.00011221297
0.00011226647
0.00011232585
0.00011239067
0.00011246081
0.0001125361
0.00011261669
0.00011270285
0.00011279501
0.00011289369
0.00011299963
0.00011311338
0.0001132357
0.00011336726
0.00011350864
0.00011366038
0.00011382282
0.0001139962
0.00011418056
0.00011437577
0.00011458148
0.00011479717
0.00011502227
0.00011525584
0.00011549695
0.00011574455
0.00011599748
0.00011625455
0.00011651448
0.00011677617
0.0001170383
0.00011729976
0.00011755944
0.00011781633
0.00011806948
0.00011831814
0.00011856147
0.00011879887
0.0001190298
0.00011925381
0.00011947048
0.00011967963
0.00011988093
0.00012007423
0.0001202594
0.00012043634
0.00012060492
0.00012076515
0.00012091681
0.00012105977
0.00012119381
0.00012131866
0.00012143393
0.00012154426
0.0001216377
0.0001216923
0.00011449832
0.00011452507
0.00011458254
0.0001146494
0.00011472364
0.00011480608
0.00011489463
0.00011498999
0.00011508991
0.00011519496
0.00011530271
0.00011541359
0.00011552501
0.00011563727
0.00011574768
0.00011585645
0.00011596081
0.00011602917
0.00011594369
0.00011584359
0.00011572792
0.00011559878
0.00011545554
0.00011530063
0.0001151337
0.00011495744
0.00011477175
0.00011457954
0.00011438088
0.00011417882
0.00011397357
0.00011376787
0.00011356342
0.00011336083
0.0001131632
0.0001129707
0.00011278635
0.0001126102
0.00011244507
0.00011229085
0.00011215013
0.00011202264
0.0001119102
0.00011181316
0.00011173214
0.00011166756
0.00011161959
0.00011158835
0.00011157359
0.00011157501
0.00011159209
0.00011162415
0.00011167035
0.00011172984
0.00011180146
0.00011188413
0.00011197668
0.0001120779
0.00011207496
0.00011201924
0.0001119777
0.0001119498
0.00011193478
0.00011193176
0.00011193977
0.00011195776
0.00011198479
0.00011201977
0.0001120618
0.0001121101
0.000112164
0.000112223
0.00011228693
0.0001123556
0.00011242919
0.00011250803
0.00011259262
0.00011268358
0.00011278177
0.00011288788
0.00011300283
0.00011312742
0.0001132624
0.00011340842
0.00011356595
0.00011373534
0.0001139167
0.00011410995
0.00011431479
0.0001145307
0.00011475708
0.00011499298
0.0001152374
0.00011548921
0.00011574718
0.00011601002
0.00011627637
0.00011654503
0.00011681457
0.00011708381
0.00011735155
0.0001176167
0.00011787824
0.00011813537
0.0001183872
0.00011863309
0.00011887247
0.00011910486
0.00011932986
0.00011954726
0.00011975674
0.00011995816
0.00012015141
0.0001203364
0.00012051302
0.00012068131
0.00012084106
0.0001209922
0.00012113454
0.00012126786
0.0001213918
0.00012151192
0.00012161516
0.00012168051
0.00011437349
0.00011439968
0.00011445744
0.00011452559
0.00011460216
0.00011468804
0.0001147811
0.00011488208
0.00011498868
0.00011510146
0.00011521795
0.00011533851
0.00011546051
0.00011558417
0.00011570671
0.00011582823
0.00011594587
0.00011604866
0.00011595532
0.00011584524
0.00011571887
0.00011557842
0.00011542336
0.00011525623
0.0001150768
0.00011488789
0.00011468951
0.0001144847
0.00011427366
0.00011405955
0.0001138427
0.00011362599
0.0001134112
0.00011319907
0.00011299276
0.00011279258
0.00011260158
0.00011241992
0.00011225047
0.00011209318
0.00011195066
0.00011182269
0.00011171109
0.00011161621
0.00011153869
0.00011147889
0.00011143694
0.00011141291
0.00011140647
0.00011141721
0.00011144453
0.0001114876
0.00011154545
0.00011161708
0.00011170117
0.00011179648
0.00011190167
0.00011201536
0.0001119742
0.00011191008
0.000111861
0.00011182635
0.00011180528
0.00011179678
0.00011179977
0.00011181304
0.00011183551
0.00011186593
0.00011190329
0.00011194666
0.00011199528
0.00011204856
0.00011210631
0.00011216832
0.00011223479
0.00011230612
0.00011238289
0.00011246585
0.00011255599
0.00011265417
0.00011276146
0.00011287884
0.00011300722
0.00011314739
0.00011329996
0.00011346539
0.00011364387
0.00011383538
0.00011403964
0.00011425614
0.00011448426
0.00011472298
0.00011497125
0.00011522785
0.00011549146
0.00011576068
0.00011603405
0.00011631025
0.00011658777
0.00011686531
0.00011714159
0.00011741544
0.00011768576
0.00011795171
0.00011821233
0.00011846695
0.00011871498
0.00011895593
0.00011918936
0.0001194151
0.00011963281
0.00011984238
0.00012004372
0.00012023674
0.00012042138
0.00012059771
0.00012076555
0.00012092486
0.00012107551
0.00012121733
0.00012135001
0.00012148006
0.00012159318
0.00012166911
0.00011423969
0.00011426541
0.00011432362
0.00011439326
0.00011447241
0.00011456198
0.00011465988
0.00011476681
0.00011488048
0.00011500141
0.0001151271
0.00011525786
0.00011539099
0.00011552662
0.00011566189
0.00011579679
0.00011592835
0.00011605647
0.00011597035
0.0001158501
0.00011571277
0.00011556068
0.0001153934
0.00011521358
0.00011502113
0.00011481898
0.00011460728
0.0001143892
0.00011416507
0.00011393818
0.000113709
0.0001134805
0.00011325461
0.00011303216
0.00011281642
0.00011260781
0.00011240946
0.0001122216
0.00011204718
0.00011188621
0.00011174135
0.00011161241
0.00011150123
0.00011140819
0.00011133389
0.00011127868
0.00011124265
0.00011122582
0.00011122776
0.000111248
0.00011128578
0.00011134019
0.00011141007
0.00011149428
0.00011159132
0.00011169977
0.00011181812
0.00011193993
0.00011186269
0.00011179032
0.00011173395
0.00011169287
0.00011166613
0.00011165259
0.00011165102
0.00011166004
0.00011167841
0.00011170471
0.00011173776
0.00011177649
0.00011182005
0.00011186775
0.00011191935
0.00011197463
0.00011203384
0.00011209743
0.00011216609
0.00011224071
0.00011232245
0.00011241232
0.00011251161
0.00011262148
0.000112743
0.00011287715
0.00011302469
0.00011318616
0.00011336188
0.00011355186
0.00011375587
0.00011397336
0.00011420369
0.00011444578
0.0001146985
0.00011496054
0.00011523044
0.00011550671
0.00011578776
0.00011607215
0.00011635826
0.00011664467
0.00011693002
0.00011721305
0.00011749258
0.0001177677
0.00011803743
0.00011830104
0.00011855792
0.00011880756
0.00011904953
0.00011928367
0.00011950964
0.00011972736
0.00011993674
0.00012013776
0.00012033037
0.00012051467
0.00012069054
0.00012085797
0.00012101691
0.00012116722
0.00012130868
0.00012144871
0.00012157169
0.00012165803
0.00011409716
0.00011412249
0.00011418127
0.00011425256
0.00011433449
0.00011442799
0.00011453099
0.00011464419
0.00011476529
0.00011489479
0.00011503014
0.00011517159
0.00011531639
0.00011546458
0.00011561319
0.00011576213
0.00011590828
0.00011605142
0.0001159894
0.00011585874
0.00011571014
0.00011554602
0.00011536605
0.00011517303
0.00011496697
0.00011475095
0.00011452525
0.00011429318
0.00011405521
0.00011381476
0.00011357244
0.00011333136
0.00011309355
0.00011285998
0.00011263403
0.0001124162
0.00011220975
0.00011201499
0.00011183493
0.00011166966
0.00011152189
0.00011139148
0.00011128031
0.00011118874
0.0001111174
0.0001110666
0.00011103641
0.00011102679
0.00011103723
0.00011106715
0.00011111569
0.00011118179
0.00011126414
0.00011136142
0.00011147196
0.00011159413
0.00011172621
0.00011183836
0.00011174019
0.00011165974
0.00011159634
0.00011154919
0.00011151722
0.00011149915
0.00011149354
0.00011149886
0.00011151365
0.00011153631
0.00011156548
0.00011159994
0.00011163868
0.00011168095
0.00011172643
0.00011177492
0.00011182667
0.00011188224
0.00011194245
0.00011200832
0.0001120812
0.00011216233
0.00011225319
0.00011235515
0.0001124695
0.00011259739
0.00011273974
0.00011289724
0.00011307027
0.00011325892
0.00011346297
0.00011368186
0.0001139149
0.00011416094
0.00011441875
0.00011468688
0.00011496379
0.00011524782
0.00011553726
0.00011583053
0.00011612588
0.00011642179
0.00011671678
0.0001170095
0.00011729869
0.00011758339
0.00011786255
0.00011813543
0.00011840138
0.00011865989
0.00011891054
0.00011915314
0.00011938742
0.00011961329
0.00011983071
0.00012003968
0.0001202402
0.00012043241
0.00012061624
0.00012079174
0.0001209589
0.00012111766
0.00012126788
0.00012141788
0.00012155065
0.00012164721
0.0001139454
0.00011397041
0.00011402986
0.00011410295
0.00011418786
0.00011428553
0.00011439392
0.00011451373
0.00011464266
0.00011478116
0.00011492666
0.00011507936
0.00011523642
0.0001153978
0.00011556045
0.00011572413
0.00011588562
0.00011604455
0.00011601312
0.0001158718
0.00011571158
0.00011553499
0.00011534184
0.00011513503
0.00011491472
0.00011468413
0.00011444369
0.00011419684
0.00011394421
0.00011368937
0.00011343305
0.00011317851
0.00011292792
0.00011268236
0.00011244534
0.00011221749
0.00011200214
0.00011179972
0.00011161332
0.0001114431
0.00011129184
0.00011115945
0.00011104783
0.00011095739
0.00011088875
0.00011084221
0.0001108178
0.00011081542
0.0001108345
0.00011087436
0.000110934
0.00011101223
0.00011110756
0.0001112185
0.00011134316
0.00011147971
0.00011162618
0.00011171382
0.00011160649
0.00011151814
0.00011144801
0.00011139521
0.00011135851
0.00011133646
0.00011132742
0.00011132965
0.00011134146
0.00011136104
0.00011138683
0.0001114174
0.00011145162
0.00011148862
0.00011152801
0.0001115696
0.00011161369
0.00011166091
0.00011171223
0.00011176886
0.00011183237
0.00011190422
0.00011198613
0.00011207971
0.0001121865
0.00011230783
0.00011244481
0.00011259826
0.00011276867
0.00011295618
0.00011316059
0.00011338132
0.0001136176
0.00011386821
0.00011413178
0.00011440676
0.00011469143
0.000114984
0.00011528259
0.00011558548
0.00011589079
0.00011619685
0.00011650209
0.00011680505
0.00011710439
0.00011739908
0.00011768803
0.00011797047
0.00011824572
0.00011851326
0.00011877269
0.00011902384
0.00011926644
0.00011950045
0.00011972587
0.00011994274
0.00012015109
0.00012035113
0.00012054284
0.00012072632
0.00012090163
0.00012106877
0.00012122766
0.00012138758
0.00012153002
0.00012163662
0.0001137844
0.00011380911
0.00011386931
0.00011394432
0.00011403237
0.00011413443
0.00011424847
0.00011437522
0.00011451236
0.00011466031
0.00011481647
0.00011498096
0.0001151509
0.00011532615
0.00011550354
0.00011568272
0.00011586034
0.00011603588
0.00011604219
0.0001158899
0.00011571766
0.00011552813
0.00011532123
0.0001151
0.00011486475
0.00011461883
0.00011436284
0.00011410037
0.00011383221
0.00011356206
0.00011329083
0.00011302191
0.00011275761
0.00011249915
0.00011225018
0.00011201142
0.00011178634
0.00011157547
0.00011138199
0.00011120615
0.00011105078
0.00011091587
0.00011080337
0.00011071369
0.00011064749
0.00011060505
0.00011058637
0.00011059131
0.00011061921
0.00011066928
0.00011074042
0.00011083127
0.00011094017
0.00011106542
0.00011120491
0.00011135657
0.00011151818
0.00011157765
0.00011146123
0.00011136518
0.00011128868
0.00011123069
0.00011118982
0.00011116443
0.00011115266
0.0001111525
0.00011116203
0.00011117917
0.00011120212
0.00011122927
0.00011125929
0.0001112912
0.00011132455
0.00011135912
0.00011139527
0.00011143375
0.0001114757
0.00011152251
0.00011157602
0.00011163794
0.00011171028
0.00011179493
0.00011189366
0.00011200806
0.00011213942
0.00011228872
0.00011245655
0.00011264311
0.0001128482
0.00011307121
0.00011331132
0.00011356715
0.00011383724
0.00011411985
0.00011441311
0.00011471505
0.00011502363
0.00011533695
0.00011565298
0.00011596991
0.00011628605
0.00011659983
0.00011690984
0.00011721497
0.00011751409
0.00011780638
0.00011809117
0.00011836793
0.00011863626
0.00011889602
0.00011914697
0.00011938911
0.00011962248
0.00011984717
0.00012006327
0.00012027104
0.00012047051
0.00012066187
0.00012084521
0.00012102062
0.00012118809
0.00012135782
0.00012150979
0.00012162624
0.0001136138
0.00011363822
0.00011369923
0.00011377627
0.00011386761
0.00011397427
0.00011409425
0.00011422827
0.00011437401
0.00011453187
0.00011469921
0.00011487611
0.00011505958
0.00011524941
0.00011544231
0.00011563782
0.00011583243
0.00011602546
0.00011607738
0.00011591377
0.00011572909
0.00011552608
0.00011530481
0.00011506847
0.0001148175
0.00011455544
0.00011428302
0.00011400401
0.00011371936
0.00011343294
0.00011314581
0.00011286152
0.00011258252
0.0001123102
0.00011204831
0.00011179774
0.00011156205
0.00011134189
0.00011114054
0.00011095836
0.00011079825
0.00011066026
0.0001105464
0.00011045713
0.0001103931
0.00011035461
0.00011034164
0.00011035398
0.00011039092
0.00011045156
0.00011053466
0.0001106387
0.00011076183
0.00011090213
0.00011105726
0.00011122488
0.00011140249
0.00011142953
0.00011130409
0.00011120058
0.00011111808
0.00011105543
0.00011101104
0.00011098304
0.00011096932
0.00011096758
0.0001109756
0.00011099104
0.00011101181
0.00011103604
0.00011106224
0.00011108927
0.0001111166
0.00011114401
0.00011117191
0.00011120119
0.00011123316
0.00011126949
0.00011131226
0.0001113635
0.00011142554
0.00011150058
0.00011159068
0.00011169769
0.00011182312
0.00011196811
0.00011213337
0.00011231917
0.00011252529
0.00011275108
0.00011299562
0.00011325741
0.00011353482
0.00011382594
0.00011412869
0.00011444091
0.00011476036
0.00011508498
0.00011541256
0.00011574113
0.00011606887
0.0001163941
0.00011671532
0.00011703136
0.00011734104
0.0001176435
0.00011793807
0.00011822422
0.00011850156
0.00011876999
0.0001190293
0.00011927955
0.0001195208
0.00011975323
0.00011997696
0.00012019233
0.00012039944
0.00012059852
0.00012078976
0.0001209733
0.00012114922
0.00012132863
0.00012148995
0.00012161606
0.00011343348
0.00011345759
0.00011351942
0.00011359856
0.00011369334
0.0001138048
0.00011393097
0.00011407258
0.00011422732
0.00011439557
0.00011457463
0.00011476454
0.00011496224
0.00011516739
0.00011537663
0.00011558933
0.00011580184
0.00011601333
0.00011611949
0.00011594418
0.00011574654
0.00011552947
0.00011529315
0.00011504093
0.00011477343
0.00011449432
0.00011420453
0.000113908
0.00011360584
0.00011330211
0.00011299803
0.00011269732
0.00011240258
0.00011211535
0.00011183955
0.00011157618
0.00011132894
0.00011109861
0.00011088858
0.0001106993
0.00011053377
0.00011039212
0.00011027642
0.00011018716
0.00011012505
0.00011009037
0.00011008309
0.00011010296
0.00011014918
0.00011022077
0.00011031635
0.00011043422
0.00011057233
0.00011072853
0.0001109002
0.00011108473
0.00011127928
0.00011126899
0.00011113459
0.00011102389
0.00011093585
0.00011086913
0.00011082196
0.00011079218
0.0001107774
0.000110775
0.00011078243
0.00011079699
0.00011081631
0.00011083824
0.00011086104
0.00011088342
0.00011090476
0.00011092483
0.00011094412
0.00011096365
0.00011098497
0.00011101
0.00011104116
0.00011108084
0.00011113172
0.00011119636
0.00011127714
0.00011137622
0.00011149534
0.00011163583
0.00011179853
0.00011198374
0.00011219126
0.00011242036
0.00011267001
0.00011293855
0.00011322416
0.00011352472
0.00011383795
0.00011416144
0.00011449276
0.00011482961
0.00011516962
0.00011551065
0.00011585074
0.00011618809
0.0001165211
0.00011684854
0.00011716917
0.00011748214
0.00011778673
0.00011808244
0.00011836891
0.00011864606
0.00011891373
0.00011917203
0.0001194211
0.00011966114
0.00011989239
0.00012011521
0.00012032979
0.00012053644
0.00012073541
0.00012092691
0.0001211111
0.00012130003
0.00012147052
0.00012160609
0.00011324316
0.00011326692
0.00011332959
0.00011341089
0.00011350922
0.00011362565
0.00011375827
0.00011390781
0.00011407195
0.00011425107
0.00011444243
0.000114646
0.00011485865
0.00011507994
0.00011530638
0.00011553721
0.00011576862
0.0001159996
0.00011616942
0.00011598197
0.00011577084
0.00011553905
0.00011528694
0.00011501802
0.00011473306
0.00011443594
0.00011412777
0.00011381264
0.00011349189
0.00011316973
0.00011284757
0.0001125293
0.00011221771
0.00011191448
0.00011162368
0.00011134648
0.0001110867
0.00011084527
0.00011062568
0.00011042851
0.00011025685
0.00011011092
0.00010999286
0.00010990323
0.00010984275
0.00010981174
0.00010981015
0.00010983769
0.0001098935
0.00010997649
0.00011008513
0.00011021754
0.00011037148
0.00011054451
0.00011073375
0.00011093627
0.00011114884
0.00011109554
0.00011095229
0.0001108347
0.00011074161
0.00011067151
0.00011062237
0.00011059176
0.00011057695
0.00011057493
0.0001105828
0.00011059746
0.00011061617
0.00011063647
0.00011065637
0.00011067437
0.00011068975
0.00011070228
0.00011071251
0.00011072166
0.0001107315
0.00011074431
0.00011076286
0.00011078994
0.00011082866
0.00011088196
0.00011095263
0.00011104313
0.00011115549
0.00011129124
0.00011145134
0.00011163616
0.00011184546
0.00011207845
0.00011233395
0.00011261011
0.00011290489
0.00011321594
0.00011354071
0.00011387656
0.00011422079
0.00011457091
0.00011492431
0.00011527869
0.00011563192
0.00011598209
0.0001163275
0.00011666685
0.00011699887
0.00011732265
0.00011763752
0.00011794296
0.00011823865
0.00011852456
0.00011880058
0.00011906687
0.00011932364
0.00011957118
0.00011980977
0.00012003988