/*--------------------------------*- C++ -*----------------------------------*\
| =========                 |                                                 |
| \\      /  F ield         | foam-extend: Open Source CFD                    |
|  \\    /   O peration     | Version:     4.1                                |
|   \\  /    A nd           | Web:         http://www.foam-extend.org         |
|    \\/     M anipulation  |                                                 |
\*---------------------------------------------------------------------------*/
FoamFile
{
    version     2.0;
    format      ascii;
    class       volVectorField;
    location    "0.55";
    object      U;
}
// * * * * * * * * * * * * * * * * * * * * * * * * * * * * * * * * * * * * * //

dimensions      [0 1 -1 0 0 0 0];

internalField   nonuniform List<vector> 
16796
(
(140.16738 -0.0284308 0)
(140.17634 -0.035798684 0)
(140.18761 -0.036545495 0)
(140.19786 -0.036648025 0)
(140.20626 -0.036924432 0)
(140.21398 -0.0376832 0)
(140.22263 -0.039035139 0)
(140.23403 -0.041023841 0)
(140.25014 -0.043662981 0)
(140.27294 -0.046950145 0)
(140.30442 -0.050872164 0)
(140.34654 -0.055407615 0)
(140.40122 -0.06052995 0)
(140.47027 -0.066209679 0)
(140.55542 -0.072413669 0)
(140.65825 -0.079103024 0)
(140.78021 -0.086229634 0)
(140.9226 -0.093733424 0)
(141.08654 -0.10154706 0)
(141.27291 -0.1095978 0)
(141.4824 -0.11780816 0)
(141.71548 -0.12609747 0)
(141.97236 -0.13438272 0)
(142.253 -0.14257938 0)
(142.55712 -0.15060253 0)
(142.88418 -0.15836758 0)
(143.2334 -0.16579161 0)
(143.60372 -0.17279417 0)
(143.99388 -0.17929868 0)
(144.40236 -0.18523326 0)
(144.82745 -0.19053204 0)
(145.26722 -0.19513597 0)
(145.71958 -0.19899408 0)
(146.1823 -0.202064 0)
(146.65299 -0.20431293 0)
(147.12921 -0.20571825 0)
(147.60842 -0.20626793 0)
(148.08805 -0.20596091 0)
(148.56555 -0.20480718 0)
(149.03839 -0.20282777 0)
(149.50409 -0.20005452 0)
(149.96031 -0.19652959 0)
(150.40479 -0.19230485 0)
(150.83547 -0.18744113 0)
(151.25046 -0.18200706 0)
(151.64807 -0.17607801 0)
(152.02687 -0.16973464 0)
(152.38564 -0.16306143 0)
(152.72347 -0.156145 0)
(153.03966 -0.14907241 0)
(153.33383 -0.14192927 0)
(153.60582 -0.13479796 0)
(153.85575 -0.12775573 0)
(154.08398 -0.12087297 0)
(154.29107 -0.11421145 0)
(154.4778 -0.10782288 0)
(154.64508 -0.10174781 0)
(154.79397 -0.096014453 0)
(154.92561 -0.090638005 0)
(155.04119 -0.085618382 0)
(155.14192 -0.080944321 0)
(155.22897 -0.076591861 0)
(155.30341 -0.072520526 0)
(155.36625 -0.068675655 0)
(155.41832 -0.064987987 0)
(155.46031 -0.061382991 0)
(155.49271 -0.057782366 0)
(155.51578 -0.054089389 0)
(155.52971 -0.050197384 0)
(155.53383 -0.046135775 0)
(155.52786 -0.042010235 0)
(155.51154 -0.037844862 0)
(155.48452 -0.033621667 0)
(155.44639 -0.029317052 0)
(155.39666 -0.024913262 0)
(155.33481 -0.020403114 0)
(155.26034 -0.015791904 0)
(155.17278 -0.01109784 0)
(155.07176 -0.0063514915 0)
(154.95702 -0.0015944949 0)
(154.82845 0.0031222441 0)
(154.6861 0.007740753 0)
(154.53025 0.012198464 0)
(154.36133 0.016430786 0)
(154.18 0.02037368 0)
(153.98711 0.023966091 0)
(153.7837 0.027152152 0)
(153.57097 0.029883052 0)
(153.35028 0.032118521 0)
(153.12308 0.03382786 0)
(152.89094 0.034990535 0)
(152.65547 0.035596328 0)
(152.41831 0.035645091 0)
(152.18112 0.035146105 0)
(151.94552 0.034117178 0)
(151.71306 0.032583502 0)
(151.48526 0.03057636 0)
(151.26351 0.028131747 0)
(151.04914 0.025289 0)
(150.84333 0.02208948 0)
(150.64719 0.018575331 0)
(150.46166 0.014788411 0)
(150.28762 0.010769384 0)
(150.12581 0.0065569926 0)
(149.97686 0.0021875516 0)
(149.84133 -0.0023053357 0)
(149.71966 -0.0068909124 0)
(149.61226 -0.011541141 0)
(149.51941 -0.016230452 0)
(149.44139 -0.020934811 0)
(149.37839 -0.025632193 0)
(149.33056 -0.030299742 0)
(149.29804 -0.034911021 0)
(149.2809 -0.039433556 0)
(149.2792 -0.043827136 0)
(149.29285 -0.048069842 0)
(149.32181 -0.052124455 0)
(149.36589 -0.055909059 0)
(149.42479 -0.059253126 0)
(149.49871 -0.061817983 0)
(149.58821 -0.063251898 0)
(149.69181 -0.064084071 0)
(149.79401 -0.063385144 0)
(149.87422 -0.051113946 0)
(159.72769 0.024758817 0)
(159.60961 0.018247855 0)
(159.50829 0.020363341 0)
(159.40181 0.023336018 0)
(159.29227 0.025620328 0)
(159.18087 0.026506403 0)
(159.06911 0.02567021 0)
(158.95864 0.022944876 0)
(158.85124 0.018243461 0)
(158.74874 0.011528958 0)
(158.65299 0.0028009682 0)
(158.56585 -0.0079100323 0)
(158.48916 -0.020545201 0)
(158.4247 -0.035017184 0)
(158.37417 -0.051209751 0)
(158.3392 -0.068974577 0)
(158.32119 -0.088144271 0)
(158.32133 -0.10854576 0)
(158.34071 -0.12999288 0)
(158.38022 -0.15228246 0)
(158.44059 -0.17519748 0)
(158.52234 -0.19850663 0)
(158.62576 -0.22196893 0)
(158.75092 -0.24533512 0)
(158.89768 -0.26835207 0)
(159.06562 -0.29076498 0)
(159.2541 -0.31232166 0)
(159.46226 -0.33277503 0)
(159.68897 -0.35188733 0)
(159.93291 -0.36943284 0)
(160.19253 -0.38520174 0)
(160.46608 -0.39900285 0)
(160.75163 -0.41066715 0)
(161.04711 -0.42005015 0)
(161.35029 -0.42703448 0)
(161.65885 -0.43153225 0)
(161.97038 -0.43348656 0)
(162.28242 -0.43287302 0)
(162.5925 -0.4297005 0)
(162.89816 -0.42401145 0)
(163.19698 -0.41588179 0)
(163.48665 -0.40541992 0)
(163.76493 -0.39276556 0)
(164.02975 -0.37808762 0)
(164.27921 -0.36158162 0)
(164.51161 -0.34346655 0)
(164.72545 -0.32398109 0)
(164.91949 -0.30337933 0)
(165.09274 -0.28192596 0)
(165.24446 -0.25989115 0)
(165.3742 -0.237545 0)
(165.48176 -0.21515189 0)
(165.5672 -0.19296468 0)
(165.63083 -0.17121905 0)
(165.67318 -0.15012804 0)
(165.69501 -0.12987697 0)
(165.69722 -0.11062008 0)
(165.68087 -0.092475068 0)
(165.64714 -0.075522711 0)
(165.59726 -0.059802731 0)
(165.53248 -0.045312304 0)
(165.45406 -0.032006232 0)
(165.36317 -0.019793998 0)
(165.26092 -0.0085499112 0)
(165.14822 0.001862488 0)
(165.0259 0.011609949 0)
(164.89459 0.02088641 0)
(164.75475 0.029922352 0)
(164.60662 0.038975737 0)
(164.45086 0.048213994 0)
(164.28742 0.05770974 0)
(164.1159 0.067555391 0)
(163.93573 0.077847623 0)
(163.74621 0.088662203 0)
(163.54662 0.10004335 0)
(163.33619 0.11199859 0)
(163.11418 0.12449687 0)
(162.87992 0.13746901 0)
(162.63282 0.15081005 0)
(162.37244 0.16438328 0)
(162.09848 0.17802546 0)
(161.81083 0.19155313 0)
(161.50959 0.20476963 0)
(161.19504 0.21747232 0)
(160.86769 0.2294599 0)
(160.52825 0.24053932 0)
(160.17761 0.25053205 0)
(159.81685 0.25927945 0)
(159.44719 0.26664712 0)
(159.06999 0.27252798 0)
(158.68671 0.27684409 0)
(158.29886 0.27954734 0)
(157.90802 0.2806189 0)
(157.51576 0.28006766 0)
(157.12364 0.27792784 0)
(156.73321 0.27425589 0)
(156.34592 0.26912698 0)
(155.96318 0.26263114 0)
(155.58629 0.25486937 0)
(155.21647 0.24594985 0)
(154.85482 0.23598432 0)
(154.50234 0.22508482 0)
(154.15993 0.21336083 0)
(153.82838 0.20091693 0)
(153.50838 0.18785084 0)
(153.20053 0.1742522 0)
(152.90535 0.16020157 0)
(152.62328 0.14577012 0)
(152.35468 0.13101969 0)
(152.09988 0.11600356 0)
(151.85914 0.10076699 0)
(151.63267 0.085348768 0)
(151.42066 0.069784764 0)
(151.22326 0.054114245 0)
(151.04059 0.038382285 0)
(150.87288 0.022629303 0)
(150.72013 0.0068885615 0)
(150.58223 -0.0087606722 0)
(150.45904 -0.024081868 0)
(150.3509 -0.038546608 0)
(150.25798 -0.051754747 0)
(150.17881 -0.065501064 0)
(150.10489 -0.077380027 0)
(150.03368 -0.069104566 0)
(161.12687 0.09718098 0)
(160.97296 0.099593957 0)
(160.84691 0.10435683 0)
(160.71919 0.10854784 0)
(160.59364 0.1110565 0)
(160.47193 0.11120574 0)
(160.35556 0.10862338 0)
(160.246 0.10310208 0)
(160.14469 0.094532612 0)
(160.05302 0.082872632 0)
(159.97231 0.068131148 0)
(159.90382 0.050361062 0)
(159.84873 0.029655664 0)
(159.80811 0.0061497141 0)
(159.78292 -0.019982392 0)
(159.77397 -0.04852285 0)
(159.78207 -0.079217794 0)
(159.80795 -0.11179443 0)
(159.85209 -0.14595674 0)
(159.91487 -0.18138433 0)
(159.99647 -0.21773473 0)
(160.09689 -0.25464453 0)
(160.21596 -0.29173506 0)
(160.35333 -0.32861503 0)
(160.50844 -0.36488679 0)
(160.68059 -0.40014977 0)
(160.86888 -0.43400705 0)
(161.07222 -0.46606917 0)
(161.28939 -0.49596082 0)
(161.51897 -0.523325 0)
(161.75943 -0.54782926 0)
(162.00907 -0.56917012 0)
(162.26611 -0.58707859 0)
(162.52863 -0.60132439 0)
(162.79464 -0.61171994 0)
(163.06211 -0.61812447 0)
(163.32895 -0.62044659 0)
(163.59307 -0.61864689 0)
(163.85237 -0.61273936 0)
(164.10483 -0.60279209 0)
(164.34845 -0.58892726 0)
(164.58137 -0.5713197 0)
(164.8018 -0.55019511 0)
(165.00813 -0.5258267 0)
(165.1989 -0.49853119 0)
(165.37284 -0.46866365 0)
(165.52888 -0.43661143 0)
(165.66616 -0.40278721 0)
(165.78407 -0.36762118 0)
(165.88222 -0.33155262 0)
(165.96045 -0.29502086 0)
(166.01883 -0.25845597 0)
(166.05765 -0.22226922 0)
(166.07742 -0.1868438 0)
(166.07882 -0.1525258 0)
(166.06269 -0.11961593 0)
(166.03002 -0.08836316 0)
(165.9819 -0.058959424 0)
(165.91948 -0.03153604 0)
(165.84393 -0.0061535661 0)
(165.75644 0.017200361 0)
(165.65811 0.038613226 0)
(165.54998 0.058212546 0)
(165.43296 0.076189147 0)
(165.30785 0.092788307 0)
(165.17525 0.10828202 0)
(165.0356 0.12296706 0)
(164.8891 0.1371524 0)
(164.7358 0.15115091 0)
(164.5755 0.16529772 0)
(164.40785 0.1799124 0)
(164.23236 0.19524183 0)
(164.04839 0.21147258 0)
(163.85523 0.22873529 0)
(163.65209 0.24710028 0)
(163.43817 0.26657387 0)
(163.2127 0.28709721 0)
(162.97495 0.30854788 0)
(162.72432 0.33074421 0)
(162.46032 0.35345202 0)
(162.18265 0.37639344 0)
(161.89118 0.39925732 0)
(161.58598 0.42171079 0)
(161.26735 0.44341121 0)
(160.9358 0.46401826 0)
(160.59203 0.48320527 0)
(160.23697 0.50066966 0)
(159.8717 0.51614176 0)
(159.49748 0.529392 0)
(159.11569 0.54023597 0)
(158.72781 0.54853759 0)
(158.33539 0.55421013 0)
(157.94002 0.55721544 0)
(157.5433 0.55756142 0)
(157.14684 0.55529812 0)
(156.75217 0.55051273 0)
(156.36078 0.54332384 0)
(155.97409 0.53387516 0)
(155.59341 0.52232918 0)
(155.21996 0.50886093 0)
(154.85486 0.4936521 0)
(154.49911 0.47688565 0)
(154.1536 0.45874112 0)
(153.81912 0.4393907 0)
(153.49636 0.41899602 0)
(153.18591 0.39770587 0)
(152.88829 0.3756546 0)
(152.60392 0.3529613 0)
(152.33318 0.32972969 0)
(152.07638 0.30604855 0)
(151.83376 0.28199329 0)
(151.60554 0.25762658 0)
(151.3919 0.23300102 0)
(151.193 0.20816425 0)
(151.00895 0.18316278 0)
(150.83983 0.1580495 0)
(150.68568 0.13287772 0)
(150.54647 0.10772366 0)
(150.42223 0.08280479 0)
(150.3133 0.058534916 0)
(150.21932 0.035021539 0)
(150.1391 0.0098392557 0)
(150.07027 -0.012981257 0)
(150.01911 -0.021292499 0)
(161.20624 0.17906806 0)
(161.04398 0.18550387 0)
(160.91474 0.1898363 0)
(160.78423 0.19158915 0)
(160.65635 0.19033775 0)
(160.5328 0.1856815 0)
(160.41515 0.17735783 0)
(160.30489 0.16522091 0)
(160.20347 0.14921413 0)
(160.11228 0.129351 0)
(160.03265 0.1057031 0)
(159.96585 0.078393638 0)
(159.91303 0.047591106 0)
(159.87528 0.013507675 0)
(159.85355 -0.023607752 0)
(159.84868 -0.06347326 0)
(159.86136 -0.10576787 0)
(159.89213 -0.15013112 0)
(159.94141 -0.19617194 0)
(160.00942 -0.24346781 0)
(160.09625 -0.29157259 0)
(160.20178 -0.34001839 0)
(160.32573 -0.38832237 0)
(160.46764 -0.43599001 0)
(160.62688 -0.4825222 0)
(160.80264 -0.52741923 0)
(160.99394 -0.57018852 0)
(161.19964 -0.61034907 0)
(161.41846 -0.64743951 0)
(161.64896 -0.68102303 0)
(161.88958 -0.71069501 0)
(162.13863 -0.73608832 0)
(162.39433 -0.7568801 0)
(162.65481 -0.77279714 0)
(162.91813 -0.78362076 0)
(163.18229 -0.78919207 0)
(163.4453 -0.78941524 0)
(163.70512 -0.78426091 0)
(163.95976 -0.77376809 0)
(164.20726 -0.75804512 0)
(164.44572 -0.7372698 0)
(164.67334 -0.71168754 0)
(164.88843 -0.6816093 0)
(165.08943 -0.64740706 0)
(165.27495 -0.60950882 0)
(165.44376 -0.56839176 0)
(165.59483 -0.52457431 0)
(165.72735 -0.47860695 0)
(165.84071 -0.43106179 0)
(165.93453 -0.38252141 0)
(166.00866 -0.33356671 0)
(166.06318 -0.28476447 0)
(166.09838 -0.23665448 0)
(166.11476 -0.18973715 0)
(166.11298 -0.14446109 0)
(166.09391 -0.10121166 0)
(166.05851 -0.06030572 0)
(166.00789 -0.021984951 0)
(165.94319 0.013603247 0)
(165.86561 0.046408762 0)
(165.77632 0.076480076 0)
(165.67644 0.10393509 0)
(165.567 0.12900118 0)
(165.44892 0.15196816 0)
(165.32297 0.17319123 0)
(165.18975 0.19307432 0)
(165.04967 0.2120509 0)
(164.90295 0.23056173 0)
(164.74961 0.24903202 0)
(164.58944 0.26787324 0)
(164.42209 0.28747151 0)
(164.24702 0.30815626 0)
(164.06358 0.33018782 0)
(163.87098 0.35374852 0)
(163.66841 0.37893453 0)
(163.45501 0.40575071 0)
(163.22995 0.43410928 0)
(162.99248 0.4638323 0)
(162.74193 0.49465793 0)
(162.47779 0.5262502 0)
(162.19972 0.55821153 0)
(161.90758 0.59009763 0)
(161.60143 0.62143383 0)
(161.28156 0.65173215 0)
(160.94849 0.68050837 0)
(160.60297 0.70729815 0)
(160.24591 0.73167172 0)
(159.87847 0.75324638 0)
(159.50191 0.7716966 0)
(159.11766 0.78676117 0)
(158.72724 0.79824753 0)
(158.33226 0.80603322 0)
(157.93433 0.81006463 0)
(157.53511 0.81035335 0)
(157.13623 0.80697062 0)
(156.73925 0.80004016 0)
(156.34569 0.78972998 0)
(155.95699 0.77624354 0)
(155.57447 0.75981073 0)
(155.19937 0.74067911 0)
(154.83281 0.71910561 0)
(154.47579 0.695349 0)
(154.12919 0.66966335 0)
(153.7938 0.64229258 0)
(153.47031 0.6134661 0)
(153.15929 0.58339568 0)
(152.86125 0.55227344 0)
(152.57661 0.52027091 0)
(152.30571 0.48753919 0)
(152.04886 0.4542101 0)
(151.80631 0.42039794 0)
(151.57825 0.38620317 0)
(151.36486 0.35171665 0)
(151.16629 0.31702443 0)
(150.98265 0.2822148 0)
(150.81404 0.24738847 0)
(150.66049 0.21266702 0)
(150.52205 0.17823129 0)
(150.39882 0.14440959 0)
(150.29109 0.11165048 0)
(150.19818 0.080170499 0)
(150.11947 0.047860681 0)
(150.05563 0.020869582 0)
(150.01375 0.0048435213 0)
(161.23343 0.26338062 0)
(161.06652 0.27335836 0)
(160.93473 0.27923192 0)
(160.80157 0.28098095 0)
(160.67088 0.2784242 0)
(160.54435 0.2713047 0)
(160.42361 0.25942379 0)
(160.31023 0.24266577 0)
(160.20569 0.22099542 0)
(160.11144 0.19445114 0)
(160.02886 0.16313798 0)
(159.95925 0.12722382 0)
(159.90382 0.086935132 0)
(159.86369 0.04255657 0)
(159.83985 -0.0055755552 0)
(159.83317 -0.057083358 0)
(159.84437 -0.11154696 0)
(159.87402 -0.16849997 0)
(159.92253 -0.22743265 0)
(159.99014 -0.28779875 0)
(160.07693 -0.34902599 0)
(160.18278 -0.41051727 0)
(160.30742 -0.47166029 0)
(160.45036 -0.53183101 0)
(160.61097 -0.59040301 0)
(160.78842 -0.64675215 0)
(160.9817 -0.7002662 0)
(161.18967 -0.75035009 0)
(161.41101 -0.79643554 0)
(161.64426 -0.83798679 0)
(161.88783 -0.87450968 0)
(162.14001 -0.90555767 0)
(162.39898 -0.93073985 0)
(162.66285 -0.94972719 0)
(162.92964 -0.96225825 0)
(163.19734 -0.96814535 0)
(163.4639 -0.96727852 0)
(163.72726 -0.95962959 0)
(163.9854 -0.94525458 0)
(164.23632 -0.92429503 0)
(164.47808 -0.89697835 0)
(164.70885 -0.8636158 0)
(164.92689 -0.82460036 0)
(165.13061 -0.78040135 0)
(165.31858 -0.73155862 0)
(165.48955 -0.6786745 0)
(165.64244 -0.62240409 0)
(165.77642 -0.56344405 0)
(165.89086 -0.50251977 0)
(165.98538 -0.44037138 0)
(166.05982 -0.37773849 0)
(166.11426 -0.31534437 0)
(166.14901 -0.2538794 0)
(166.16458 -0.19398526 0)
(166.1617 -0.1362382 0)
(166.14124 -0.08113445 0)
(166.10425 -0.029090795 0)
(166.05188 0.01958252 0)
(165.98533 0.064702583 0)
(165.90588 0.10620468 0)
(165.81473 0.14413593 0)
(165.71308 0.1786772 0)
(165.60202 0.21010488 0)
(165.48254 0.23879567 0)
(165.35544 0.26520816 0)
(165.22136 0.28986921 0)
(165.08073 0.31335191 0)
(164.93377 0.33624958 0)
(164.78049 0.35914946 0)
(164.62066 0.3826126 0)
(164.45388 0.40715054 0)
(164.27958 0.43319985 0)
(164.09703 0.46110519 0)
(163.90539 0.49110644 0)
(163.70378 0.52332861 0)
(163.49126 0.55777586 0)
(163.26695 0.59433023 0)
(163.03002 0.63275526 0)
(162.77974 0.67270443 0)
(162.51557 0.71373418 0)
(162.23712 0.75532029 0)
(161.94421 0.79687765 0)
(161.63691 0.83778165 0)
(161.3155 0.87739063 0)
(160.98052 0.91506827 0)
(160.63272 0.95020473 0)
(160.27308 0.98223587 0)
(159.90277 1.0106596 0)
(159.52313 1.0350489 0)
(159.13563 1.0550613 0)
(158.74186 1.0704442 0)
(158.34347 1.0810369 0)
(157.94214 1.0867684 0)
(157.53957 1.0876528 0)
(157.13743 1.083782 0)
(156.73735 1.0753159 0)
(156.34087 1.0624718 0)
(155.94944 1.0455128 0)
(155.56443 1.0247359 0)
(155.18707 1.0004605 0)
(154.81848 0.97301777 0)
(154.45968 0.94274054 0)
(154.11155 0.90995494 0)
(153.77486 0.87497316 0)
(153.45028 0.83808774 0)
(153.13839 0.79956747 0)
(152.83966 0.75965452 0)
(152.55449 0.71856315 0)
(152.28323 0.67647958 0)
(152.02616 0.63356318 0)
(151.7835 0.58994871 0)
(151.55544 0.54574972 0)
(151.34216 0.50106327 0)
(151.14378 0.45597614 0)
(150.96043 0.41057177 0)
(150.79221 0.36493863 0)
(150.63919 0.31918614 0)
(150.50147 0.27348711 0)
(150.37925 0.22812992 0)
(150.2728 0.18345152 0)
(150.18147 0.13969129 0)
(150.10549 0.094698233 0)
(150.04685 0.055903487 0)
(150.01105 0.025448669 0)
(161.26693 0.35089154 0)
(161.09499 0.36190373 0)
(160.95988 0.3674974 0)
(160.82338 0.36765753 0)
(160.68923 0.36230701 0)
(160.55911 0.35129037 0)
(160.43469 0.33448008 0)
(160.31757 0.31181301 0)
(160.2093 0.28329991 0)
(160.11137 0.24902666 0)
(160.02519 0.20915093 0)
(159.95213 0.16390033 0)
(159.89343 0.11356804 0)
(159.85026 0.058511054 0)
(159.82363 -0.0008524081 0)
(159.81447 -0.064052412 0)
(159.82351 -0.13057193 0)
(159.85137 -0.19984135 0)
(159.89848 -0.27125463 0)
(159.96511 -0.34416021 0)
(160.05134 -0.41787668 0)
(160.15709 -0.49169543 0)
(160.28209 -0.56489087 0)
(160.42585 -0.63672561 0)
(160.58775 -0.70646106 0)
(160.76694 -0.77336313 0)
(160.96243 -0.83671329 0)
(161.17304 -0.89581464 0)
(161.39743 -0.95000308 0)
(161.63413 -0.99865379 0)
(161.88151 -1.0411917 0)
(162.13783 -1.0770986 0)
(162.40123 -1.1059219 0)
(162.66976 -1.1272824 0)
(162.94141 -1.1408806 0)
(163.21411 -1.146504 0)
(163.48576 -1.144032 0)
(163.75423 -1.1334404 0)
(164.01744 -1.1148047 0)
(164.27334 -1.0883018 0)
(164.51991 -1.0542105 0)
(164.75527 -1.0129095 0)
(164.97762 -0.96487523 0)
(165.18532 -0.91067527 0)
(165.37687 -0.85096209 0)
(165.55097 -0.78646338 0)
(165.70654 -0.71797063 0)
(165.84268 -0.64632575 0)
(165.95877 -0.57240563 0)
(166.0544 -0.49710529 0)
(166.12942 -0.42131925 0)
(166.18392 -0.34592232 0)
(166.21824 -0.27174922 0)
(166.23293 -0.19957559 0)
(166.22876 -0.13009499 0)
(166.20668 -0.063909781 0)
(166.1678 -0.0015235072 0)
(166.11335 0.056708501 0)
(166.04461 0.11057517 0)
(165.96293 0.16001328 0)
(165.86959 0.20508803 0)
(165.76588 0.24602521 0)
(165.65296 0.28317545 0)
(165.53187 0.31701119 0)
(165.40347 0.34810619 0)
(165.26844 0.37711351 0)
(165.12723 0.40473976 0)
(164.98007 0.43171626 0)
(164.82695 0.45877058 0)
(164.66763 0.48659891 0)
(164.50166 0.51583617 0)
(164.32841 0.54702726 0)
(164.14707 0.5806039 0)
(163.95674 0.61686667 0)
(163.75643 0.6559716 0)
(163.54513 0.6979227 0)
(163.32186 0.74257038 0)
(163.0857 0.78961622 0)
(162.83588 0.83862376 0)
(162.57176 0.88903493 0)
(162.29291 0.94019091 0)
(161.99914 0.99135698 0)
(161.69047 1.0417496 0)
(161.3672 1.0905648 0)
(161.02988 1.1370062 0)
(160.67929 1.1803115 0)
(160.31647 1.219777 0)
(159.94263 1.2547776 0)
(159.55919 1.2847834 0)
(159.16768 1.3093707 0)
(158.76976 1.3282295 0)
(158.36716 1.3411647 0)
(157.96163 1.3480938 0)
(157.55494 1.3490409 0)
(157.14882 1.3441266 0)
(156.74494 1.3335562 0)
(156.34488 1.317606 0)
(155.95014 1.2966089 0)
(155.56211 1.2709389 0)
(155.18203 1.2409978 0)
(154.81103 1.2072005 0)
(154.45014 1.1699638 0)
(154.10021 1.1296955 0)
(153.76202 1.0867853 0)
(153.43622 1.0415985 0)
(153.12337 0.99447024 0)
(152.82391 0.94570269 0)
(152.53823 0.89556322 0)
(152.26665 0.84428437 0)
(152.00943 0.79206523 0)
(151.76676 0.73907404 0)
(151.53883 0.68545221 0)
(151.32577 0.63131946 0)
(151.12771 0.57678006 0)
(150.94477 0.52192953 0)
(150.77704 0.46686209 0)
(150.6246 0.41168723 0)
(150.4876 0.35656123 0)
(150.36624 0.30170337 0)
(150.26077 0.2473209 0)
(150.17069 0.19359092 0)
(150.09689 0.13773382 0)
(150.04188 0.087516749 0)
(150.00965 0.042797113 0)
(161.31398 0.44215021 0)
(161.1366 0.45502248 0)
(160.99731 0.46140917 0)
(160.85652 0.46115267 0)
(160.71797 0.4541763 0)
(160.58333 0.44036099 0)
(160.45429 0.41961524 0)
(160.33251 0.39190794 0)
(160.21959 0.35728197 0)
(160.11707 0.3158599 0)
(160.02643 0.26784361 0)
(159.94907 0.21351441 0)
(159.88631 0.15322944 0)
(159.83934 0.087419601 0)
(159.80925 0.016587998 0)
(159.79699 -0.058700338 0)
(159.80335 -0.13782736 0)
(159.82898 -0.22011317 0)
(159.87434 -0.30483022 0)
(159.93973 -0.39119978 0)
(160.02526 -0.4784116 0)
(160.13087 -0.5656251 0)
(160.25628 -0.65198281 0)
(160.40104 -0.7366159 0)
(160.5645 -0.81865658 0)
(160.74584 -0.89724469 0)
(160.94402 -0.97154037 0)
(161.15786 -1.040731 0)
(161.38601 -1.1040438 0)
(161.62694 -1.1607533 0)
(161.879 -1.210193 0)
(162.14039 -1.2517633 0)
(162.40922 -1.2849417 0)
(162.68348 -1.3092914 0)
(162.96109 -1.3244684 0)
(163.23991 -1.3302299 0)
(163.51779 -1.3264401 0)
(163.79252 -1.3130755 0)
(164.06193 -1.2902288 0)
(164.32391 -1.2581111 0)
(164.57636 -1.2170529 0)
(164.81732 -1.167502 0)
(165.04493 -1.1100214 0)
(165.25745 -1.0452819 0)
(165.45336 -0.97405532 0)
(165.63128 -0.89720338 0)
(165.79007 -0.81566452 0)
(165.92882 -0.73043844 0)
(166.04687 -0.64256798 0)
(166.1438 -0.55311924 0)
(166.21947 -0.46315944 0)
(166.27398 -0.37373394 0)
(166.30769 -0.28584162 0)
(166.32123 -0.20041246 0)
(166.3154 -0.11827648 0)
(166.29124 -0.040168499 0)
(166.24996 0.03331394 0)
(166.19285 0.10175291 0)
(166.12133 0.1648934 0)
(166.0368 0.22265265 0)
(165.94069 0.27513622 0)
(165.83437 0.32261492 0)
(165.7191 0.36552375 0)
(165.59599 0.40444202 0)
(165.46598 0.44007403 0)
(165.32978 0.47322116 0)
(165.18788 0.50475043 0)
(165.04051 0.53555929 0)
(164.88765 0.56653997 0)
(164.72903 0.59854402 0)
(164.56412 0.63234663 0)
(164.39223 0.66861323 0)
(164.21247 0.70787122 0)
(164.02383 0.75048745 0)
(163.8252 0.79665178 0)
(163.61548 0.84636795 0)
(163.39357 0.89945185 0)
(163.15845 0.95553747 0)
(162.90925 1.0140903 0)
(162.64527 1.0744275 0)
(162.366 1.1357438 0)
(162.07121 1.1971416 0)
(161.76092 1.2576649 0)
(161.43541 1.3163334 0)
(161.09526 1.3721772 0)
(160.74129 1.4242694 0)
(160.37459 1.4717554 0)
(159.99646 1.5138774 0)
(159.60836 1.5499949 0)
(159.21195 1.5795977 0)
(158.80897 1.6023137 0)
(158.40122 1.6179117 0)
(157.99056 1.6262969 0)
(157.57883 1.6275036 0)
(157.16783 1.6216827 0)
(156.75929 1.609087 0)
(156.35487 1.5900542 0)
(155.95608 1.564989 0)
(155.56434 1.5343452 0)
(155.18092 1.4986079 0)
(154.80697 1.4582773 0)
(154.44349 1.4138543 0)
(154.09136 1.3658275 0)
(153.75132 1.3146629 0)
(153.42401 1.2607956 0)
(153.10995 1.2046242 0)
(152.80959 1.1465063 0)
(152.52327 1.0867573 0)
(152.25128 1.0256503 0)
(151.99385 0.96341791 0)
(151.75117 0.9002553 0)
(151.52339 0.83632537 0)
(151.31062 0.77176469 0)
(151.11299 0.70669088 0)
(150.93059 0.64121041 0)
(150.76352 0.57542821 0)
(150.61187 0.50946542 0)
(150.47581 0.44348156 0)
(150.35555 0.37767465 0)
(150.25132 0.31222891 0)
(150.16273 0.24736108 0)
(150.09105 0.17959111 0)
(150.03879 0.11710198 0)
(150.00884 0.058384859 0)
(161.37046 0.53522539 0)
(161.18687 0.54911913 0)
(161.04271 0.55551217 0)
(160.89693 0.55412893 0)
(160.75328 0.54487519 0)
(160.61344 0.52764923 0)
(160.47913 0.50238799 0)
(160.35207 0.4690929 0)
(160.23389 0.42784324 0)
(160.12621 0.37880388 0)
(160.03056 0.32222642 0)
(159.9484 0.25845064 0)
(159.88111 0.18790125 0)
(159.82993 0.11108584 0)
(159.79601 0.028593997 0)
(159.78033 -0.058912565 0)
(159.78375 -0.15071487 0)
(159.80695 -0.24602343 0)
(159.85043 -0.34400079 0)
(159.91452 -0.44375632 0)
(159.99936 -0.54436006 0)
(160.1049 -0.64484981 0)
(160.2309 -0.74424347 0)
(160.37689 -0.84154727 0)
(160.54224 -0.93576927 0)
(160.7261 -1.025927 0)
(160.92746 -1.1110619 0)
(161.14508 -1.190247 0)
(161.37759 -1.2626017 0)
(161.62343 -1.3272993 0)
(161.88091 -1.3835809 0)
(162.14818 -1.4307642 0)
(162.42328 -1.4682547 0)
(162.70415 -1.4955558 0)
(162.98864 -1.5122767 0)
(163.27454 -1.5181423 0)
(163.55959 -1.5129995 0)
(163.84153 -1.4968238 0)
(164.1181 -1.4697239 0)
(164.38708 -1.431944 0)
(164.64631 -1.3838662 0)
(164.89372 -1.3260076 0)
(165.12737 -1.2590184 0)
(165.34546 -1.1836743 0)
(165.54636 -1.1008681 0)
(165.72865 -1.0115978 0)
(165.89115 -0.91695167 0)
(166.03287 -0.8180901 0)
(166.15314 -0.71622503 0)
(166.25153 -0.61259681 0)
(166.32789 -0.50844841 0)
(166.38235 -0.40499856 0)
(166.41532 -0.30341278 0)
(166.42745 -0.20477692 0)
(166.41963 -0.11006008 0)
(166.393 -0.020131236 0)
(166.34885 0.064325889 0)
(166.2886 0.14282823 0)
(166.21377 0.21508118 0)
(166.12589 0.2809894 0)
(166.02652 0.34067456 0)
(165.91712 0.39445861 0)
(165.79908 0.44285749 0)
(165.67361 0.48656089 0)
(165.54171 0.52640749 0)
(165.40416 0.56335252 0)
(165.26149 0.59843061 0)
(165.11393 0.6327145 0)
(164.96144 0.66727201 0)
(164.80371 0.70312269 0)
(164.64016 0.74119504 0)
(164.46999 0.78228688 0)
(164.29221 0.8270311 0)
(164.10568 0.87586813 0)
(163.90917 0.92902607 0)
(163.70145 0.98650952 0)
(163.48127 1.0480977 0)
(163.2475 1.1133516 0)
(162.99916 1.1816303 0)
(162.73544 1.2521157 0)
(162.45578 1.3238431 0)
(162.15988 1.3957387 0)
(161.84773 1.4666593 0)
(161.51964 1.5354346 0)
(161.1762 1.6009081 0)
(160.81828 1.6619769 0)
(160.44704 1.7176261 0)
(160.06385 1.7669592 0)
(159.67031 1.8092206 0)
(159.26814 1.8438124 0)
(158.85921 1.8703028 0)
(158.44543 1.8884282 0)
(158.02875 1.8980883 0)
(157.61112 1.899336 0)
(157.19443 1.8923626 0)
(156.78047 1.8774791 0)
(156.37095 1.855096 0)
(155.96746 1.8257017 0)
(155.57144 1.7898406 0)
(155.18418 1.7480923 0)
(154.80683 1.7010522 0)
(154.4404 1.6493144 0)
(154.08575 1.5934563 0)
(153.74361 1.5340271 0)
(153.41459 1.4715374 0)
(153.0992 1.406453 0)
(152.79782 1.3391903 0)
(152.51079 1.2701141 0)
(152.23836 1.199538 0)
(151.98073 1.1277262 0)
(151.73803 1.054897 0)
(151.51041 0.98122831 0)
(151.29795 0.90686388 0)
(151.10075 0.83192088 0)
(150.91889 0.75649803 0)
(150.75247 0.68068596 0)
(150.60158 0.60458357 0)
(150.4664 0.52831212 0)
(150.34715 0.45201198 0)
(150.24406 0.37581844 0)
(150.15685 0.29993166 0)
(150.08697 0.22009648 0)
(150.03675 0.14516574 0)
(150.00833 0.072896704 0)
(161.43835 0.63321339 0)
(161.24777 0.64873845 0)
(161.09796 0.65573377 0)
(160.94633 0.65380772 0)
(160.79671 0.64282946 0)
(160.65079 0.62269228 0)
(160.51035 0.59334419 0)
(160.37714 0.55480718 0)
(160.25287 0.50718891 0)
(160.13921 0.45069113 0)
(160.03776 0.38561154 0)
(159.95006 0.31234633 0)
(159.87754 0.23138697 0)
(159.82151 0.14331835 0)
(159.78317 0.048817911 0)
(159.76359 -0.051352589 0)
(159.76364 -0.15636878 0)
(159.78407 -0.26532637 0)
(159.82542 -0.37726461 0)
(159.88806 -0.49116049 0)
(159.97216 -0.60594996 0)
(160.07769 -0.72053381 0)
(160.20441 -0.83379224 0)
(160.35188 -0.9445939 0)
(160.51945 -1.0518112 0)
(160.70628 -1.1543288 0)
(160.91133 -1.2510598 0)
(161.13334 -1.340954 0)
(161.37091 -1.4230145 0)
(161.62244 -1.4963064 0)
(161.88617 -1.5599714 0)
(162.16022 -1.6132383 0)
(162.44255 -1.6554352 0)
(162.73104 -1.6860004 0)
(163.02344 -1.7044922 0)
(163.31747 -1.7105994 0)
(163.61078 -1.7041486 0)
(163.901 -1.6851122 0)
(164.18579 -1.6536134 0)
(164.46282 -1.6099299 0)
(164.72983 -1.5544963 0)
(164.98465 -1.4879015 0)
(165.22523 -1.4108872 0)
(165.4497 -1.3243396 0)
(165.65633 -1.2292804 0)
(165.84363 -1.1268535 0)
(166.01034 -1.0183083 0)
(166.15545 -0.90497933 0)
(166.27823 -0.7882629 0)
(166.37824 -0.66959029 0)
(166.45533 -0.55039825 0)
(166.50964 -0.43209769 0)
(166.54164 -0.3160401 0)
(166.55204 -0.20348554 0)
(166.54182 -0.095562841 0)
(166.51221 0.0067102995 0)
(166.46463 0.1025529 0)
(166.40062 0.19140183 0)
(166.32185 0.27291767 0)
(166.22999 0.34699639 0)
(166.12673 0.41379088 0)
(166.0137 0.47368594 0)
(165.89239 0.52729468 0)
(165.76414 0.57543371 0)
(165.63003 0.61909498 0)
(165.49093 0.65940795 0)
(165.34739 0.69759598 0)
(165.19965 0.734928 0)
(165.04767 0.77266747 0)
(164.89107 0.81202082 0)
(164.7292 0.85408693 0)
(164.56115 0.89981046 0)
(164.3858 0.94994102 0)
(164.20186 1.0050004 0)
(164.00796 1.0652587 0)
(163.80269 1.1307215 0)
(163.58466 1.2011268 0)
(163.35259 1.2759546 0)
(163.10535 1.354446 0)
(162.84203 1.4356324 0)
(162.56198 1.5183729 0)
(162.26485 1.6013983 0)
(161.9506 1.683359 0)
(161.61952 1.7628746 0)
(161.27226 1.8385839 0)
(160.90974 1.9091906 0)
(160.5332 1.973505 0)
(160.14412 2.0304793 0)
(159.74421 2.0792341 0)
(159.33532 2.1190777 0)
(158.91944 2.1495154 0)
(158.49862 2.1702509 0)
(158.07493 2.1811806 0)
(157.65043 2.1823803 0)
(157.22711 2.174087 0)
(156.80685 2.156677 0)
(156.39144 2.130641 0)
(155.98251 2.0965588 0)
(155.58154 2.0550729 0)
(155.18984 2.0068648 0)
(154.80859 1.9526315 0)
(154.43878 1.8930663 0)
(154.08126 1.828841 0)
(153.73674 1.7605921 0)
(153.40581 1.68891 0)
(153.08892 1.6143315 0)
(152.78644 1.5373347 0)
(152.49865 1.4583372 0)
(152.22578 1.3776963 0)
(151.96797 1.2957115 0)
(151.72533 1.2126287 0)
(151.49797 1.1286459 0)
(151.28594 1.0439205 0)
(151.0893 0.95857664 0)
(150.90813 0.87271425 0)
(150.7425 0.78641874 0)
(150.5925 0.6997747 0)
(150.45831 0.61287302 0)
(150.34013 0.52580774 0)
(150.2382 0.43866709 0)
(150.15232 0.35159523 0)
(150.08398 0.25951911 0)
(150.03533 0.17212966 0)
(150.00799 0.086704972 0)
(161.51561 0.73359359 0)
(161.3172 0.75051843 0)
(161.16105 0.75786534 0)
(161.00283 0.75515068 0)
(160.84647 0.74220934 0)
(160.69371 0.71892377 0)
(160.54638 0.68524744 0)
(160.40627 0.64121951 0)
(160.27517 0.58697481 0)
(160.15483 0.52275224 0)
(160.04692 0.4488969 0)
(159.95304 0.36586324 0)
(159.87469 0.27421177 0)
(159.81326 0.17460756 0)
(159.77003 0.067817616 0)
(159.7461 -0.045293047 0)
(159.74244 -0.16379144 0)
(159.75982 -0.28665762 0)
(159.79884 -0.41280859 0)
(159.85991 -0.5410994 0)
(159.94323 -0.67033422 0)
(160.04879 -0.79928024 0)
(160.17637 -0.92668129 0)
(160.32555 -1.0512685 0)
(160.49568 -1.1717777 0)
(160.68589 -1.2869584 0)
(160.89513 -1.3955924 0)
(161.12213 -1.4965028 0)
(161.36542 -1.5885722 0)
(161.62338 -1.6707524 0)
(161.89419 -1.7420813 0)
(162.1759 -1.8016932 0)
(162.4664 -1.8488336 0)
(162.76349 -1.8828713 0)
(163.06483 -1.9033084 0)
(163.36804 -1.9097931 0)
(163.67068 -1.9021282 0)
(163.97027 -1.8802792 0)
(164.26435 -1.8443818 0)