/*--------------------------------*- C++ -*----------------------------------*\
| =========                 |                                                 |
| \\      /  F ield         | foam-extend: Open Source CFD                    |
|  \\    /   O peration     | Version:     4.1                                |
|   \\  /    A nd           | Web:         http://www.foam-extend.org         |
|    \\/     M anipulation  |                                                 |
\*---------------------------------------------------------------------------*/
FoamFile
{
    version     2.0;
    format      ascii;
    class       surfaceScalarField;
    location    "0.11";
    object      phi;
}
// * * * * * * * * * * * * * * * * * * * * * * * * * * * * * * * * * * * * * //

dimensions      [0 3 -1 0 0 0 0];

internalField   nonuniform List<scalar> 
8438
(
-0.60177529
0.00052837509
-0.60239562
0.00062033033
-0.60302721
0.00063159171
-0.60369417
0.00066695458
-0.60439588
0.00070171237
-0.60514285
0.00074696557
-0.60594278
0.00079993115
-0.60680453
0.00086174834
-0.607736
0.00093147765
-0.60874428
0.0010082756
-0.60983472
0.0010904396
-0.61101033
0.001175611
-0.61227087
0.0012605435
-0.61361198
0.0013411082
-0.61502429
0.0014123133
-0.61649279
0.0014684908
-0.61799637
0.0015035802
-0.61950793
0.0015115647
-0.62099496
0.0014870255
-0.62242055
0.0014255915
-0.62374498
0.0013244357
-0.62492756
0.0011825811
-0.62592878
0.0010012122
-0.62671256
0.00078378616
-0.62724876
0.00053620118
-0.62751541
0.00026664767
-0.6275009
-1.4510154e-05
-0.62720483
-0.00029607565
-0.62664009
-0.00056473456
-0.62583376
-0.00080633132
-0.62482484
-0.0010089153
-0.62366142
-0.0011634263
-0.62239665
-0.0012647659
-0.6210842
-0.0013124562
-0.6197738
-0.0013103967
-0.6185085
-0.0012652978
-0.61732245
-0.0011860471
-0.61624076
-0.0010816916
-0.61527969
-0.00096107615
-0.61444801
-0.00083168081
-0.61374835
-0.00069965777
-0.61317882
-0.00056952974
-0.61273435
-0.00044446717
-0.6124079
-0.00032644682
-0.61219123
-0.00021667043
-0.61207557
-0.00011566552
-0.61205012
-2.5446639e-05
-0.61209807
4.7945427e-05
0.00014688269
-0.61563561
0.0008737809
-0.61596952
0.00095423808
-0.61632028
0.00098234828
-0.61669755
0.0010442304
-0.61710959
0.001113752
-0.61756587
0.001203249
-0.618075
0.0013090554
-0.61864583
0.0014325842
-0.61928656
0.0015722021
-0.62000447
0.0017261856
-0.62080524
0.0018912159
-0.62169225
0.0020626144
-0.62266562
0.0022339198
-0.62372138
0.0023968615
-0.62485046
0.0025413937
-0.62603802
0.0026560548
-0.62726299
0.0027285467
-0.62849804
0.0027466144
-0.62971022
0.002699202
-0.63086198
0.0025773605
-0.63191282
0.002375272
-0.63282109
0.0020908513
-0.63354627
0.0017263916
-0.63405125
0.0012887695
-0.6343049
0.0007898497
-0.63428443
0.00024618067
-0.63397775
-0.00032119517
-0.6333861
-0.00088772684
-0.63252413
-0.0014266999
-0.63141901
-0.0019114522
-0.63011015
-0.0023177795
-0.62864623
-0.0026273409
-0.6270813
-0.0028297005
-0.62546983
-0.0029239242
-0.6238621
-0.002918126
-0.62230141
-0.0028259923
-0.62082175
-0.0026657
-0.61944792
-0.002455528
-0.61819566
-0.0022133371
-0.61707325
-0.0019540873
-0.61608286
-0.0016900439
-0.61522226
-0.0014301307
-0.61448619
-0.001180538
-0.61386764
-0.00094499907
-0.61335876
-0.00072555031
-0.61295149
-0.00052293261
-0.61263838
-0.00033856112
-0.61241443
-0.00017600485
-2.2746139e-05
-0.61616888
0.0012009852
-0.61648435
0.0012697126
-0.61681293
0.0013109246
-0.61716578
0.0013970815
-0.61755199
0.0014999676
-0.61798137
0.0016326294
-0.61846292
0.0017906043
-0.61900585
0.0019755073
-0.61961877
0.0021851306
-0.62030957
0.0024169801
-0.62108461
0.0026662608
-0.62194809
0.0029260934
-0.62290105
0.0031868794
-0.6239404
0.0034362091
-0.62505789
0.0036588835
-0.62623927
0.0038374316
-0.62746372
0.0039529969
-0.62870378
0.0039866762
-0.62992596
0.0039213818
-0.6310918
0.0037432011
-0.63215954
0.0034430116
-0.63308602
0.0030173373
-0.633829
0.0024693698
-0.63434945
0.0018092115
-0.63461423
0.0010546358
-0.63459865
0.0002306008
-0.63428893
-0.00063091773
-0.63368418
-0.0014924725
-0.6327979
-0.002312985
-0.63165821
-0.0030511395
-0.63030688
-0.0036691079
-0.628796
-0.0041382245
-0.62718352
-0.0044421831
-0.62552763
-0.0045798139
-0.62388127
-0.0045644869
-0.62228945
-0.0044178126
-0.6207866
-0.0041685412
-0.61939719
-0.003844938
-0.61813597
-0.0034745644
-0.61700995
-0.0030801073
-0.61601993
-0.0026800576
-0.61516242
-0.0022876401
-0.61443106
-0.0019119028
-0.61381795
-0.001558108
-0.61331464
-0.0012288564
-0.61291279
-0.00092478232
-0.61260508
-0.00064627112
-0.61238684
-0.0003942534
-0.00016463161
-0.61622783
0.0014996891
-0.61652738
0.0015692613
-0.61684421
0.0016277532
-0.61718594
0.0017388199
-0.61756195
0.0018759769
-0.61798154
0.0020522125
-0.61845396
0.0022630239
-0.61898866
0.0025102122
-0.61959479
0.002791257
-0.62028087
0.0031030638
-0.62105418
0.0034395641
-0.62191992
0.003791837
-0.62288028
0.00414724
-0.62393327
0.0044891991
-0.62507156
0.004797173
-0.62628143
0.0050472991
-0.62754204
0.0052136086
-0.62882521
0.0052698441
-0.63009605
0.0051922303
-0.63131413
0.0049612724
-0.6324352
0.0045640863
-0.6334133
0.0039954358
-0.63420314
0.0032592094
-0.63476251
0.0023685802
-0.63505521
0.0013473365
-0.6350537
0.00022909071
-0.63474185
-0.00094276874
-0.63411726
-0.0021170573
-0.63319341
-0.003236839
-0.63200022
-0.0042443232
-0.63058327
-0.0050860629
-0.62899994
-0.0057215504
-0.6273144
-0.0061277239
-0.6255907
-0.0063035169
-0.62388585
-0.0062693328
-0.6222475
-0.0060561625
-0.62071062
-0.0057054238
-0.61929907
-0.0052564873
-0.61802597
-0.0047476699
-0.61689637
-0.0042097028
-0.615909
-0.0036674289
-0.61505848
-0.0031381564
-0.61433691
-0.0026334774
-0.61373526
-0.0021597563
-0.61324442
-0.0017196934
-0.61285595
-0.0013132602
-0.61256294
-0.00093927406
-0.61236117
-0.00059602695
-0.00028085051
-0.61636006
0.0017900766
-0.61665257
0.001861769
-0.61695578
0.0019309622
-0.61728152
0.0020645553
-0.61763939
0.0022338471
-0.61803964
0.0024524678
-0.61849225
0.0027156345
-0.61900751
0.0030254683
-0.61959558
0.003379325
-0.62026626
0.0037737509
-0.62102836
0.004201663
-0.62188884
0.0046523128
-0.62285172
0.0051101257
-0.62391682
0.0055542985
-0.62507829
0.0059586398
-0.62632329
0.0062923035
-0.62763106
0.0065213721
-0.62897238
0.0066111681
-0.63031044
0.0065302853
-0.63160193
0.0062527641
-0.63279918
0.0057613343
-0.63385221
0.0050484689
-0.63471145
0.0041184502
-0.63533007
0.0029871993
-0.63566733
0.0016845946
-0.63569142
0.00025317981
-0.63538263
-0.001251556
-0.63473617
-0.0027635175
-0.63376517
-0.0042078384
-0.63250179
-0.0055077021
-0.63099693
-0.006590919
-0.62931566
-0.0074028252
-0.62753117
-0.0079122146
-0.62571606
-0.0081186216
-0.623933
-0.0080523966
-0.62223322
-0.0077559469
-0.62065211
-0.0072865306
-0.61921251
-0.0066960897
-0.617925
-0.0060351766
-0.6167918
-0.0053429061
-0.61580862
-0.0046506093
-0.61496743
-0.0039793408
-0.61425809
-0.0033428206
-0.61366986
-0.0027479861
-0.61319244
-0.0021971142
-0.61281676
-0.0016889413
-0.61253586
-0.0012201729
-0.61234584
-0.00078604154
-0.00038189397
-0.61649265
0.0020438222
-0.61675529
0.0021244099
-0.61703634
0.0022120085
-0.61734276
0.0023709776
-0.61768334
0.0025744228
-0.61806752
0.0028366453
-0.6185053
0.0031534178
-0.61900733
0.0035274963
-0.61958453
0.0039565284
-0.62024784
0.0044370619
-0.62100755
0.0049613735
-0.62187245
0.0055172134
-0.62284862
0.0060862949
-0.62393793
0.006643606
-0.62513631
0.007157021
-0.62643205
0.0075880406
-0.62780446
0.0078937844
-0.62922304
0.0080297525
-0.63064848
0.0079557217
-0.63203385
0.0076381355
-0.63332712
0.0070545983
-0.6344733
0.00619465
-0.63541752
0.0050626741
-0.63610724
0.0036769204
-0.63649619
0.002073538
-0.63654734
0.00030433353
-0.63623665
-0.0015622462
-0.63555636
-0.003443806
-0.63451905
-0.0052451451
-0.63315952
-0.0068672368
-0.6315356
-0.008214837
-0.62972256
-0.0092158663
-0.62780598
-0.0098287911
-0.62587029
-0.010054315
-0.62398533
-0.0099373545
-0.62220697
-0.0095343121
-0.62057058
-0.008922918
-0.61909726
-0.0081694102
-0.6177939
-0.0073385346
-0.61665877
-0.0064780335
-0.61568358
-0.0056258053
-0.61485682
-0.0048060963
-0.61416548
-0.004034166
-0.61359662
-0.0033168413
-0.61313835
-0.0026553898
-0.61278047
-0.0020468212
-0.61251512
-0.0014855161
-0.61233738
-0.0009637861
-0.00047432273
-0.6167141
0.0022926237
-0.61696872
0.0023790299
-0.61723078
0.0024740708
-0.61751409
0.0026542827
-0.6178278
0.0028881378
-0.6181828
0.0031916407
-0.61858993
0.003560551
-0.61906097
0.0039985394
-0.61960829
0.0045038435
-0.6202447
0.005073473
-0.6209829
0.0056995704
-0.62183455
0.0063688651
-0.62280895
0.0070606977
-0.62391125
0.0077459062
-0.62514028
0.0083860522
-0.62648629
0.008934044
-0.62792912
0.0093366192
-0.62943678
0.0095374156
-0.63096687
0.0094858104
-0.63246788
0.0091391471
-0.63388232
0.008469037
-0.63514894
0.0074612675
-0.63620625
0.0061199814
-0.63699426
0.0044649361
-0.63745932
0.0025385904
-0.6375571
0.00040211337
-0.63725682
-0.001862526
-0.63654524
-0.0041553863
-0.63543305
-0.0063573277
-0.63395786
-0.0083424319
-0.63218674
-0.0099859584
-0.63020882
-0.011193782
-0.62812688
-0.011910737
-0.6260418
-0.01213939
-0.62403236
-0.011946794
-0.62216023
-0.011406445
-0.62045984
-0.010623307
-0.61894951
-0.0096797347
-0.61763087
-0.0086571832
-0.6164969
-0.0076119993
-0.61553411
-0.0065885947
-0.61472667
-0.0056135343
-0.61405805
-0.0047027927
-0.61351272
-0.0038621704
-0.61307695
-0.0030911582
-0.61273939
-0.0023843795
-0.61249145
-0.001733455
-0.61232756
-0.001127677
-0.0005569324
-0.61690604
0.0024892054
-0.61711431
0.0025872965
-0.61734252
0.002702281
-0.61759602
0.0029077882
-0.61788296
0.0031750776
-0.61821286
0.0035215374
-0.6185965
0.0039441875
-0.61904606
0.0044481062
-0.61957496
0.0050327389
-0.62019762
0.0056961308
-0.62092895
0.0064309047
-0.62178345
0.0072233606
-0.62277369
0.0080509414
-0.62390832
0.0088805367
-0.62518938
0.0096671089
-0.62660931
0.010353979
-0.62814859
0.0108759
-0.62977316
0.011161985
-0.63143672
0.011149366
-0.63308201
0.010784439
-0.63464491
0.010031931
-0.63605654
0.0088728973
-0.63724759
0.007311034
-0.63814909
0.0053664329
-0.63869871
0.0030882133
-0.63884379
0.00054719644
-0.6385462
-0.0021601137
-0.63778673
-0.0049148603
-0.63657361
-0.0075704505
-0.63494696
-0.0099690781
-0.63298513
-0.011947789
-0.63079486
-0.013384057
-0.6285018
-0.014203795
-0.62622942
-0.014411769
-0.62406672
-0.014109488
-0.62208246
-0.013390705
-0.6203083
-0.012397468
-0.61875824
-0.011229796
-0.61742638
-0.0099890465
-0.61629875
-0.0087396249
-0.61535517
-0.0075321806
-0.61457442
-0.0063942792
-0.61393571
-0.0053415055
-0.61342039
-0.0043774856
-0.6130125
-0.0034990496
-0.61269914
-0.0026977471
-0.61247057
-0.0019620219
-0.61232032
-0.0012779221
-0.00063245618
-0.61720916
0.0026868883
-0.6174125
0.0027906356
-0.61761906
0.0029088374
-0.61784443
0.0031331575
-0.6180973
0.003427951
-0.61838898
0.003813222
-0.61873111
0.0042863084
-0.61913705
0.0048540514
-0.61962185
0.0055175345
-0.6202023
0.0062765851
-0.6208966
0.0071252068
-0.62172348
0.0080502414
-0.62270063
0.0090280895
-0.62384228
0.010022184
-0.62515584
0.010980666
-0.62663782
0.011835967
-0.6282706
0.012508675
-0.63001796
0.012909352
-0.63182905
0.012960448
-0.63363958
0.012594968
-0.63537757
0.011769924
-0.6369652
0.010460527
-0.63832434
0.0086701755
-0.63937514
0.0064172304
-0.64004459
0.003757668
-0.6402689
0.0007715091
-0.63999839
-0.0024306231
-0.63920213
-0.0057111195
-0.63788212
-0.0088904682
-0.63607984
-0.011771358
-0.63388844
-0.01413919
-0.63143839
-0.015834105
-0.62888722
-0.01675496
-0.62639052
-0.016908471
-0.62404844
-0.016451571
-0.62193833
-0.015500809
-0.62008595
-0.014249851
-0.61849878
-0.01281697
-0.61716045
-0.011327375
-0.61604806
-0.0098520183
-0.61513313
-0.0084471107
-0.61438815
-0.0071392555
-0.6137875
-0.0059421557
-0.61330919
-0.0048557949
-0.61293497
-0.0038732673
-0.61265048
-0.0029822394
-0.61244501
-0.002167495
-0.61231128
-0.0014116457
-0.00069878977
-0.61744002
0.0028126577
-0.61757776
0.0029283734
-0.61773685
0.0030679338
-0.61791965
0.0033159597
-0.61813363
0.0036419218
-0.618388
0.0040675989
-0.61869424
0.0045925433
-0.61906619
0.0052260003
-0.61952021
0.0059715614
-0.6200753
0.006831672
-0.62075276
0.0078026717
-0.62157548
0.0088729539
-0.62256621
0.010018819
-0.6237449
0.01120088
-0.62512462
0.01236038
-0.62670614
0.013417488
-0.6284738
0.01427634
-0.63038792
0.014823465
-0.63239154
0.014964071
-0.63441145
0.014614882
-0.6363663
0.013724767
-0.63816746
0.012261696
-0.63972674
0.010229451
-0.64095061
0.0076410967
-0.64175328
0.0045603365
-0.64205835
0.001076579
-0.64180441
-0.0026845549
-0.64094855
-0.0065669794
-0.63948556
-0.01035346
-0.6374562
-0.013800718
-0.63497092
-0.016624467
-0.63218939
-0.018615642
-0.62931168
-0.019632663
-0.62653897
-0.01968119
-0.62398145
-0.019009089
-0.62172691
-0.017755342
-0.61978997
-0.016186795
-0.61816852
-0.014438418
-0.61683172
-0.012664181
-0.61574515
-0.010938586
-0.61487008
-0.0093221801
-0.61417153
-0.0078378082
-0.61361834
-0.0064953417
-0.61318484
-0.0052892991
-0.61285033
-0.0042077745
-0.61259894
-0.0032336319
-0.612419
-0.0023474306
-0.61230264
-0.0015280092
-0.00075647721
-0.61781342
0.0029487446
-0.6179534
0.0030683513
-0.61809144
0.0032059735
-0.61824434
0.003468864
-0.61842004
0.0038176219
-0.61862972
0.0042772754
-0.61888531
0.0048481302
-0.61920148
0.0055421786
-0.61959596
0.0063660358
-0.62009011
0.0073258227
-0.6207091
0.0084216605
-0.62148142
0.0096452798
-0.62243738
0.010974773
-0.62360604
0.012369544
-0.6250102
0.013764542
-0.62665892
0.015066203
-0.62854195
0.016159372
-0.63061618
0.016897691
-0.6328178
0.017165693
-0.63506263
0.016859706
-0.63725846
0.015920598
-0.63930425
0.014307486
-0.64110187
0.012027075
-0.6425423
0.009081523
-0.64352592
0.0055439612
-0.64396164
0.0015123009
-0.64377015
-0.0028760528
-0.64288382
-0.0074533029
-0.64127995
-0.01195733
-0.63899265
-0.016088024
-0.63615535
-0.019461766
-0.63296746
-0.021803531
-0.62968974
-0.022910382
-0.62659177
-0.022779161
-0.62378942
-0.021811442
-0.62138291
-0.020161844
-0.61936699
-0.01820272
-0.61772555
-0.016079858
-0.61640794
-0.013981791
-0.61536542
-0.011981099
-0.61454707
-0.010140536
-0.6139096
-0.0084752732
-0.61341609
-0.0069888506
-0.61303726
-0.0056681341
-0.61275023
-0.0044948044
-0.6125379
-0.0034459631
-0.61238792
-0.0024974098
-0.61229197
-0.0016239606
-0.00080364349
-0.61806432
0.0029918453
-0.61811784
0.0031218714
-0.61819297
0.0032810982
-0.61828784
0.0035637367
-0.61840882
0.0039386002
-0.61856415
0.0044326059
-0.61876541
0.0050493904
-0.61902773
0.0058045052
-0.61937048
0.0067087766
-0.61981786
0.0077732053
-0.62039937
0.0090031715
-0.62114954
0.010395453
-0.62210651
0.011931739
-0.62330877
0.013571807
-0.62478918
0.015244954
-0.62656503
0.016842053
-0.62863177
0.018226105
-0.63093893
0.01920485
-0.63341253
0.019639294
-0.63595365
0.019400832
-0.63845759
0.018424532
-0.64080879
0.01665869
-0.64289954
0.01411783
-0.64459984
0.010781821
-0.64579149
0.0067356132
-0.64636532
0.0020861238
-0.64622428
-0.003017085
-0.64527625
-0.0084013387
-0.64348127
-0.013752311
-0.64086024
-0.018709051
-0.63757257
-0.022749436
-0.63386388
-0.025512222
-0.63007621
-0.026698046
-0.62658209
-0.026273287
-0.62349061
-0.024902919
-0.62091759
-0.022734863
-0.61882474
-0.02029557
-0.61717645
-0.017728151
-0.61589552
-0.015262724
-0.61491549
-0.012961123
-0.61417094
-0.01088509
-0.61360932
-0.0090368881
-0.61318757
-0.0074106027
-0.61287285
-0.0059828549
-0.61264033
-0.004727322
-0.61247198
-0.0036143129
-0.61235508
-0.0026143163
-0.61228118
-0.0016978633
-0.0008398688
-0.61849023
0.0030557575
-0.61855561
0.0031872544
-0.61861356
0.0033390401
-0.61868086
0.0036310438
-0.61876402
0.0040217557
-0.61887306
0.0045416482
-0.61901924
0.0051955662
-0.6192175
0.0060027673
-0.61948741
0.0069786852
-0.6198546
0.0081403991
-0.62035194
0.0095005132
-0.62102022
0.011063727
-0.62190746
0.012818987
-0.62306616
0.014730502
-0.62454634
0.016725138
-0.6263818
0.018677511
-0.62858297
0.020427272
-0.63109231
0.021714191
-0.63382494
0.022371925
-0.63666378
0.022239672
-0.63948995
0.021250701
-0.64216997
0.019338711
-0.64458921
0.016537064
-0.6465931
0.012785717
-0.64804734
0.0081898528
-0.64882964
0.002868425
-0.64882207
-0.0030246545
-0.64788137
-0.0093420431
-0.64592222
-0.015711463
-0.64292976
-0.021701504
-0.63909839
-0.026580806
-0.63473817
-0.029872451
-0.63031096
-0.031125254
-0.626355
-0.030229244
-0.62294571
-0.028312207
-0.62021668
-0.025463893
-0.61807463
-0.022437626
-0.61645583
-0.019346949
-0.61524775
-0.016470805
-0.61436267
-0.013846202
-0.61371894
-0.011528815
-0.6132547
-0.0095011314
-0.61292129
-0.0077440129
-0.61268316
-0.0062209842
-0.61251435
-0.0048961322
-0.6123966
-0.0037320627
-0.61231736
-0.0026935568
-0.61226846
-0.0017467657
-0.00086352688
-0.6187453
0.00300911
-0.61870567
0.0031476234
-0.61868523
0.003318599
-0.6186773
0.0036231173
-0.61868621
0.0040306612
-0.61871802
0.0045734592
-0.61878311
0.0052606639
-0.61889657
0.006116223
-0.61907962
0.0071617344
-0.61936133
0.0084221133
-0.61978036
0.0099195431
-0.62038629
0.011669656
-0.6212395
0.013672195
-0.62240853
0.015899535
-0.62396227
0.018278877
-0.62595088
0.020666117
-0.62840156
0.022877956
-0.63123791
0.024550537
-0.63435532
0.02548934
-0.6376095
0.025493848
-0.64086558
0.024506779
-0.64397043
0.02244356
-0.64681242
0.019379058
-0.64920361
0.015176911
-0.65098319
0.0099694258
-0.65200563
0.0038908723
-0.65212766
-0.0029026303
-0.65115121
-0.010318496
-0.64895579
-0.017906882
-0.64547668
-0.025180612
-0.64094852
-0.031108967
-0.63574609
-0.035074875
-0.63048909
-0.036382262
-0.62598057
-0.034737763
-0.62220568
-0.032087092
-0.61932178
-0.028347796
-0.61715077
-0.024608639
-0.61559191
-0.020905808
-0.61448772
-0.017574988
-0.61372566
-0.014608267
-0.61320614
-0.012048333
-0.61285778
-0.0098494959
-0.6126268
-0.0079749861
-0.61247564
-0.0063721461
-0.61237792
-0.0049938534
-0.6123158
-0.0037941828
-0.61227744
-0.0027319205
-0.61225535
-0.0017688555
-0.00087392266
-0.61919248
0.0029902072
-0.61917258
0.0031277228
-0.61914053
0.003286546
-0.61911094
0.0035935297
-0.6190878
0.0040075273
-0.61907854
0.0045641974
-0.61909212
0.0052742379
-0.61914186
0.0061659662
-0.61924713
0.0072670012
-0.61943588
0.0086108646
-0.61974755
0.010231213
-0.62023614
0.012158248
-0.62097229
0.014408343
-0.62204317
0.016970422
-0.6235462
0.019781902
-0.62556311
0.022683024
-0.62816337
0.025478217
-0.63125147
0.027638645
-0.63470352
0.028941385
-0.6383431
0.029133424
-0.64202091
0.028184591
-0.64555566
0.025978313
-0.64884675
0.022670143
-0.65165366
0.017983825
-0.65379235
0.012108113
-0.65512433
0.0052228527
-0.65551155
-0.0025154064
-0.65465711
-0.011172936
-0.65233006
-0.020233932
-0.64833325
-0.029177426
-0.64295112
-0.036491093
-0.63665349
-0.041372505
-0.63030282
-0.042732936
-0.62515902
-0.039881564
-0.62100716
-0.036238948
-0.61802538
-0.031329583
-0.61590079
-0.026733223
-0.61447902
-0.022327574
-0.61354551
-0.018508504
-0.61295975
-0.015194029
-0.61260467
-0.012403411
-0.6124014
-0.010052768
-0.61229352
-0.0080828592
-0.61224364
-0.0064220319
-0.61222675
-0.005010743
-0.61222676
-0.0037941692
-0.61223349
-0.0027251956
-0.61224076
-0.0017615859
-0.000869729
-0.61944613
0.0028543498
-0.61931218
0.0029937744
-0.61919071
0.0031650779
-0.61907072
0.0034735372
-0.618953
0.003889813
-0.61883971
0.0044509041
-0.61873754
0.0051720706
-0.61865851
0.0060869288
-0.61862237
0.0072308637
-0.61865989
0.008648385
-0.618817
0.010388326
-0.61915967
0.012500918
-0.61977787
0.015026538
-0.62078724
0.01797979
-0.62232322
0.021317883
-0.62450222
0.02486203
-0.6274476
0.028423592
-0.63100927
0.031200317
-0.6350194
0.032951516
-0.63924467
0.033358695
-0.64351548
0.032455404
-0.64761499
0.030077819
-0.651499
0.026554152
-0.65487008
0.021354901
-0.6575107
0.014748733
-0.65927193
0.0069840923
-0.6599831
-0.0018042377
-0.6591968
-0.011959238
-0.65661913
-0.022811603
-0.65190865
-0.033887909
-0.64543143
-0.042968314
-0.63771194
-0.049091988
-0.62990983
-0.050535049
-0.62404769
-0.045743706
-0.61949397
-0.040792661
-0.61645738
-0.034366174
-0.61443364
-0.028756963
-0.61320314
-0.023558076
-0.61248592
-0.019225724
-0.61211202
-0.015567929
-0.61194791
-0.012567523
-0.61190875
-0.010091927
-0.61193728
-0.0080543333
-0.6119977
-0.00636161
-0.61206761
-0.0049408322
-0.61213356
-0.0037282195
-0.61218767
-0.0026710867
-0.61222554
-0.0017237107
-0.00085047272
-0.6198583
0.0027421442
-0.61974318
0.0028786517
-0.61961329
0.003035193
-0.61947774
0.0033379808
-0.61933666
0.003748732
-0.619193
0.0043072484
-0.61905133
0.005030404
-0.61892061
0.0059562043
-0.61881646
0.007126714
-0.61876495
0.0085968748
-0.61880768
0.010431055
-0.61900877
0.012702009
-0.61946265
0.015480416
-0.62030234
0.018819483
-0.62170394
0.022719481
-0.6238372
0.026995288
-0.62694921
0.031535599
-0.63083029
0.035081398
-0.63527093
0.037392158
-0.63997513
0.038062898
-0.64477763
0.037257901
-0.64941452
0.034714708
-0.65393541
0.03107504
-0.65789174
0.025311232
-0.66098789
0.017844886
-0.66313161
0.0091278099
-0.66430712
-0.00062872641
-0.66391919
-0.012347164
-0.66144003
-0.025290766
-0.65608243
-0.03924551
-0.64825227
-0.050798476
-0.63857123
-0.05877303
-0.6286897
-0.060416575
-0.62202286
-0.052410551
-0.61713374
-0.04568178
-0.61421172
-0.037288185
-0.61246621
-0.030502474
-0.61157836
-0.024445925
-0.61119385
-0.019610241
-0.61111439
-0.015647382
-0.61119742
-0.012484498
-0.61135904
-0.0099303075
-0.6115473
-0.0078660722
-0.61173251
-0.0061764038
-0.61189802
-0.0047753222
-0.61203513
-0.0035911075
-0.61213964
-0.0025665718
-0.61220978
-0.0016535689
-0.00081530667
-0.62012878
0.0025268696
-0.61990976
0.0026596287
-0.61969121
0.002816644
-0.61945992
0.0031066937
-0.61921137
0.0035001788
-0.61894163
0.0040375103
-0.61865003
0.0047388092
-0.61834032
0.0056464854
-0.61802372
0.0068101217
-0.61772394
0.0082970885
-0.61748465
0.010191772
-0.6173808
0.01259816
-0.61753246
0.015632073
-0.618121
0.019408026
-0.61940422
0.024002697
-0.62163165
0.029222721
-0.62523753
0.03514148
-0.62984524
0.039689109
-0.63513575
0.042682668
-0.64069194
0.043619085
-0.6463268
0.042892761
-0.6516629
0.040050802
-0.65697219
0.036384335
-0.66168543
0.030024467
-0.66546939
0.021628852
-0.66838174
0.012040164
-0.67041273
0.0014022639
-0.67044364
-0.012316262
-0.66781552
-0.027918884
-0.66135392
-0.045707111
-0.65177043
-0.060381962
-0.63957185
-0.070971607
-0.62688447
-0.073103959
-0.61948747
-0.059807556
-0.61435987
-0.05080938
-0.61168162
-0.039966426
-0.61031545
-0.031868644
-0.60983867
-0.024922714
-0.60983292
-0.01961599
-0.61007646
-0.015403835
-0.61042459
-0.012136374
-0.61079768
-0.009557212
-0.6111519
-0.0075118528
-0.61146523
-0.0058630721
-0.61172795
-0.0045126093
-0.61193681
-0.0033822412
-0.6120918
-0.0024115817
-0.61219407
-0.0015513032
-0.00076442516
-0.62033226
0.0023122074
-0.62011434
0.0024417012
-0.61988178
0.0025840832
-0.61963404
0.0028589595
-0.61936578
0.0032319145
-0.61907333
0.0037450625
-0.61875426
0.0044197384
-0.61840951
0.0053017326
-0.61804589
0.0064465056
-0.61768062
0.0079318218
-0.61734851
0.009859663
-0.61711374
0.012363383
-0.6170866
0.015604934
-0.61744744
0.019768866
-0.61849219
0.025047445
-0.62052538
0.031255916
-0.62435287
0.038968964
-0.62940788
0.044744126
-0.63526245
0.048537231
-0.64134671
0.049703351
-0.64756255
0.049108597
-0.65343982
0.045928074
-0.65973589
0.042680404
-0.66541387
0.035702453
-0.66981746
0.026032433
-0.67300374
0.015226443
-0.67559277
0.0039912995
-0.67648642
-0.011422611
-0.67477357
-0.029631738
-0.66790181
-0.052578874
-0.65631737
-0.071966396
-0.64038457
-0.086904407
-0.62317737
-0.090311155
-0.61498124
-0.068003689
-0.60998191
-0.055808713
-0.60798309
-0.04196524
-0.60739619
-0.032455545
-0.60761846
-0.024700449
-0.60818835
-0.019046096
-0.6088778
-0.014714382
-0.60956494
-0.011449238
-0.61019172
-0.008930434
-0.61073502
-0.0069685505
-0.61118845
-0.0054096418
-0.61155412
-0.0041469411
-0.61183719
-0.0030991708
-0.6120435
-0.0022052711
-0.61217809
-0.0014167182
-0.00069771089
-0.62028825
0.0020342556
-0.62000271
0.0021561624
-0.61970096
0.0022823323
-0.61937133
0.0025293302
-0.61900248
0.0028630589
-0.61858273
0.0033253128
-0.61810012
0.0039371344
-0.61754351
0.0047451181
-0.61690473
0.0058077239
-0.6161835
0.0072105909
-0.61539682
0.0090729806
-0.61459697
0.011563539
-0.61390264
0.014910605
-0.61354762
0.019413845
-0.6139915
0.025491327
-0.61573379
0.032998198
-0.62027457
0.043509744
-0.6265147
0.050984256
-0.63369823
0.055720763
-0.64105005
0.057055176
-0.64851968
0.056578221
-0.65521379
0.052622181
-0.66249998
0.049966602
-0.66900265
0.042205117
-0.67376646
0.03079624
-0.67802814
0.019488123
-0.68311582
0.0090789879
-0.68579883
-0.0087396009
-0.68462221
-0.030808357
-0.67573272
-0.061468372
-0.66136183
-0.086337279
-0.64098615
-0.10728009
-0.61786883
-0.11342848
-0.60979369
-0.07607883
-0.60542726
-0.060175141
-0.60431852
-0.043073977
-0.60459373
-0.032180339
-0.60551338
-0.023780795
-0.60664141
-0.017918064
-0.60775324
-0.013602553
-0.60876005
-0.01044243
-0.60962507
-0.0080654115
-0.61034584
-0.0062477873
-0.61093056
-0.0048249158
-0.61139257
-0.0036849346
-0.61174493
-0.0027468145
-0.61199904
-0.0019511574
-0.61216364
-0.0012521153
-0.00061640343
-0.61844856
0.0017088643
-0.61812206
0.001829658
-0.61778271
0.0019429882
-0.61741619
0.002162811
-0.61700968
0.0024565508
-0.61655021
0.0028658415
-0.61602469
0.0034116109
-0.61542053
0.0041409536
-0.61472751
0.0051147063
-0.61394197
0.006425051
-0.61307494
0.008205952
-0.61216798
0.010656584
-0.611323
0.014065621
-0.61074011
0.018830953
-0.61087818
0.025629402
-0.61212906
0.034249075
-0.61707903
0.048459716
-0.62402839
0.057933619
-0.63198111
0.063673479
-0.63966409
0.064738153
-0.64737067
0.0642848
-0.65372994
0.058981456
-0.66253742
0.058774079
-0.67083231
0.050500008
-0.67708148
0.037045411
-0.68142349
0.023830139
-0.68616864
0.013824132
-0.68961205
-0.0052961883
-0.69116631
-0.029254102
-0.68434279
-0.068291888
-0.66862618
-0.1020539
-0.64165174
-0.13425452
-0.60799591
-0.14708431
-0.5997736
-0.084301138
-0.59758375
-0.062364995
-0.59849982
-0.042157901
-0.60055796
-0.030122203
-0.60273914
-0.021599612
-0.6047577
-0.015899506
-0.60647272
-0.01188753
-0.60789174
-0.0090234171
-0.60903931
-0.0069178405
-0.60995633
-0.005330764
-0.6106786
-0.0041026495
-0.61123739
-0.0031261371
-0.61165727
-0.002326936
-0.61195699
-0.0016514367
-0.61214987
-0.0010592397
-0.00052132195
-0.61468055
0.0013807196
-0.61434227
0.0014913721
-0.61396908
0.001569796
-0.61355424
0.0017479753
-0.6130795
0.0019818088
-0.61252511
0.0023114538
-0.61186598
0.0027524794
-0.61107136
0.0033463327
-0.6101034
0.0041467523
-0.60891692
0.0052385674
-0.60746193
0.0067509593
-0.60569436
0.008889021
-0.60361382
0.011985076
-0.60132143
0.016538566
-0.59942619
0.023734159
-0.59873516
0.033558047
-0.60459218
0.054316731
-0.61362714
0.066968586
-0.62341632
0.073462649
-0.63270088
0.074022717
-0.64226087
0.073844787
-0.6499232
0.066643793
-0.66005199
0.068902862
-0.66956504
0.060013058
-0.67281397
0.040294343
-0.67556011
0.026576284
-0.68783814
0.026102161
-0.69838587
0.0052515393
-0.70477523
-0.022864743
-0.69145823
-0.08160889
-0.66947065
-0.12404148
-0.63660838
-0.16711679
-0.5932629
-0.19042979
-0.59071081
-0.086853223
-0.59175142
-0.06132439
-0.59429547
-0.039613849
-0.5976916
-0.026726077
-0.60071192
-0.018579287
-0.60334909
-0.013262339
-0.60548753
-0.009749089
-0.60720893
-0.0073020191
-0.60857025
-0.0055565188
-0.60964037
-0.004260647
-0.61047231
-0.0032707042
-0.61110958
-0.0024888645
-0.61158481
-0.0018517137
-0.61192215
-0.0013140879
-0.61213842
-0.0008429765
-0.00041493989
-0.60889959
0.0009423163
-0.6084774
0.0010691852
-0.60804435
0.0011367386
-0.60756892
0.0012725472
-0.60703101
0.0014439016
-0.60640599
0.0016864283
-0.60566655
0.0020130439
-0.60477947
0.0024592521
-0.60370513
0.0030724166
-0.60239789
0.0039313236
-0.60081084
0.0051639048
-0.59890838
0.0069865659
-0.5967218
0.0097984924
-0.59437207
0.01418884
-0.59258194
0.021944031
-0.59141443
0.032390532
-0.59903139
0.061933691
-0.60983186
0.077769062
-0.62181613
0.085446914
-0.63158819
0.083794782
-0.64170953
0.083966126
-0.64402707
0.068961334
-0.65511081
0.038652734
-0.66330697
0.035304795
-0.67098795
0.018377244
-0.68258026
0.0097963149
-0.69423346
0.02172213
-0.70185302
0.011938571
-0.70208657
-0.0014271697
-0.69550522
-0.051803974
-0.66919217
-0.077816257
-0.62604607
-0.095781445
-0.56491394
-0.25156191
-0.56642692
-0.085340247
-0.57744655
-0.050304752
-0.58562152
-0.031438879
-0.59262421
-0.019723391
-0.59771928
-0.013484216
-0.60153667
-0.0094449538
-0.6043676
-0.0069181563
-0.60650069
-0.0051689305
-0.60811762
-0.0039395866
-0.60935088
-0.0030273841
-0.61029037
-0.002331212
-0.61099982
-0.0017794194
-0.61152372
-0.0013278086
-0.61189318
-0.00094463121
-0.61212905
-0.00060710579
-0.00029904168
-0.59741992
0.00059970342
-0.59708917
0.00073843076
-0.59670865
0.0007562189
-0.59627829
0.0008421866
-0.59577531
0.00094092079
-0.59517457
0.0010856949
-0.59444215
0.001280617
-0.5935325
0.0015496028
-0.59238278
0.0019227037
-0.59090329
0.0024518255
-0.58896226
0.0032228799
-0.5863542
0.0043785065
-0.58278722
0.0062315137
-0.57760905
0.0090106719
-0.57041456
0.014749539
-0.5609971
0.022973075
-0.57315801
0.038016404
-0.58994821
0.04310767
-0.59541291
0.047121631
-0.58118027
0.042625397
-0.48614131
0.043807449
-0.20207762
0.024238843
0
0
0
0
0
0
0
0
0
0
0
0
0
0
0
0
0
0
-0.25087136
0
-0.51606865
-0.14664007
-0.56674545
-0.034663442
-0.57828503
-0.038765177
-0.58398319
-0.025740714
-0.59145657
-0.012250014
-0.59672596
-0.0082148272
-0.60082551
-0.0053454021
-0.60385402
-0.0038896481
-0.60614079
-0.0028821585
-0.60786866
-0.0022117135
-0.60918275
-0.0017133017
-0.61018054
-0.0013334184
-0.61093181
-0.0010281448
-0.61148523
-0.00077439084
-0.61187473
-0.00055513129
-0.61212304
-0.00035880004
-0.00017717448
-0.42161733
-0.00039725176
-0.4203453
-0.00053360431
-0.41904114
-0.00054794171
-0.41757204
-0.00062690672
-0.41591464
-0.00071648065
-0.41397992
-0.0008490286
-0.4116706
-0.0010286968
-0.40884216
-0.0012788437
-0.40529042
-0.0016290356
-0.4007082
-0.0021303914
-0.39461757
-0.002867747
-0.38625707
-0.0039819943