/*--------------------------------*- C++ -*----------------------------------*\
| =========                 |                                                 |
| \\      /  F ield         | foam-extend: Open Source CFD                    |
|  \\    /   O peration     | Version:     4.1                                |
|   \\  /    A nd           | Web:         http://www.foam-extend.org         |
|    \\/     M anipulation  |                                                 |
\*---------------------------------------------------------------------------*/
FoamFile
{
    version     2.0;
    format      ascii;
    class       volVectorField;
    location    "0.11";
    object      U;
}
// * * * * * * * * * * * * * * * * * * * * * * * * * * * * * * * * * * * * * //

dimensions      [0 1 -1 0 0 0 0];

internalField   nonuniform List<vector> 
4393
(
(147.32063 -0.076933921 0)
(147.52744 -0.089375605 0)
(147.65525 -0.090903367 0)
(147.82428 -0.094941991 0)
(147.98725 -0.098478429 0)
(148.16594 -0.10276196 0)
(148.35418 -0.10745798 0)
(148.55753 -0.1126729 0)
(148.77661 -0.11831068 0)
(149.01391 -0.12430287 0)
(149.27073 -0.13051419 0)
(149.54825 -0.13676462 0)
(149.84683 -0.14280783 0)
(150.16598 -0.14833158 0)
(150.50406 -0.15295807 0)
(150.8581 -0.15625713 0)
(151.2237 -0.15776966 0)
(151.59493 -0.15704036 0)
(151.96443 -0.15366156 0)
(152.32362 -0.14730957 0)
(152.66299 -0.13778349 0)
(152.97258 -0.12502936 0)
(153.24241 -0.10916377 0)
(153.46309 -0.090481002 0)
(153.62635 -0.069462897 0)
(153.72568 -0.046762744 0)
(153.75683 -0.023182249 0)
(153.71839 0.00046082341 0)
(153.61158 0.023036053 0)
(153.44149 0.043295718 0)
(153.21635 0.060268461 0)
(152.94705 0.073222544 0)
(152.64627 0.081757556 0)
(152.32738 0.085848835 0)
(152.00326 0.085826958 0)
(151.68542 0.082253321 0)
(151.38338 0.075864951 0)
(151.10439 0.067413947 0)
(150.85345 0.057634707 0)
(150.63355 0.047151424 0)
(150.44598 0.036479925 0)
(150.29076 0.026005136 0)
(150.16694 0.01600539 0)
(150.07298 0.0066703444 0)
(150.007 -0.0018568611 0)
(149.9668 -0.0094527893 0)
(149.95002 -0.01575599 0)
(149.95723 -0.020127994 0)
(149.96526 -0.025376162 0)
(150.75868 -0.097960654 0)
(150.88459 -0.11348 0)
(150.94819 -0.11590605 0)
(151.04534 -0.12320638 0)
(151.13782 -0.1309781 0)
(151.24521 -0.14137944 0)
(151.36226 -0.15389555 0)
(151.49432 -0.16877596 0)
(151.64214 -0.1858192 0)
(151.80822 -0.20481976 0)
(151.99397 -0.22536098 0)
(152.20063 -0.24685537 0)
(152.42866 -0.26849166 0)
(152.67766 -0.28923548 0)
(152.94606 -0.30783615 0)
(153.23099 -0.32287052 0)
(153.52806 -0.33281955 0)
(153.83131 -0.33617183 0)
(154.1333 -0.33156222 0)
(154.42532 -0.31788466 0)
(154.69769 -0.29441425 0)
(154.94021 -0.26088307 0)
(155.1427 -0.21755844 0)
(155.29547 -0.16527105 0)
(155.39002 -0.10546018 0)
(155.4196 -0.040138123 0)
(155.37983 0.028140522 0)
(155.26913 0.096482557 0)
(155.08971 0.16163664 0)
(154.84659 0.22027274 0)
(154.54808 0.26945712 0)
(154.20518 0.30696294 0)
(153.83076 0.33152197 0)
(153.43843 0.3429997 0)
(153.04124 0.34233952 0)
(152.65079 0.33117101 0)
(152.27662 0.31166264 0)
(151.9259 0.28601817 0)
(151.60353 0.25639454 0)
(151.31237 0.224612 0)
(151.05361 0.19216618 0)
(150.82713 0.16015152 0)
(150.63193 0.12932914 0)
(150.46646 0.10016206 0)
(150.32885 0.072910638 0)
(150.2171 0.047675551 0)
(150.12925 0.024795383 0)
(150.06382 0.0050544122 0)
(150.01828 -0.016043566 0)
(150.89308 -0.1859906 0)
(151.01245 -0.19768877 0)
(151.07206 -0.20425859 0)
(151.16296 -0.21732652 0)
(151.24946 -0.232377 0)
(151.35029 -0.25137521 0)
(151.46068 -0.27359977 0)
(151.5859 -0.2992615 0)
(151.72687 -0.32801733 0)
(151.88619 -0.35950306 0)
(152.06542 -0.39304405 0)
(152.26599 -0.4276937 0)
(152.48858 -0.46214789 0)
(152.73301 -0.49473626 0)
(152.99795 -0.52342783 0)
(153.28067 -0.54589768 0)
(153.57692 -0.55965245 0)
(153.88074 -0.56220188 0)
(154.18462 -0.55130034 0)
(154.47966 -0.5251335 0)
(154.75591 -0.48252897 0)
(155.00284 -0.42307706 0)
(155.20984 -0.34726462 0)
(155.36681 -0.25651289 0)
(155.46474 -0.15326587 0)
(155.49639 -0.040927196 0)
(155.45693 0.076165902 0)
(155.34443 0.19293422 0)
(155.16039 0.30392726 0)
(154.90995 0.40372758 0)
(154.60181 0.48736017 0)
(154.24772 0.55105552 0)
(153.86148 0.59266812 0)
(153.45769 0.61202113 0)
(153.05019 0.6108231 0)
(152.65115 0.59191253 0)
(152.27033 0.55906325 0)
(151.9149 0.51604304 0)
(151.58961 0.46653287 0)
(151.29699 0.41359992 0)
(151.03791 0.35975569 0)
(150.81193 0.30681902 0)
(150.61775 0.25604727 0)
(150.45357 0.20818992 0)
(150.31732 0.16363836 0)
(150.20692 0.12250763 0)
(150.12052 0.084917932 0)
(150.05553 0.051251201 0)
(150.01396 0.019805903 0)
(150.91311 -0.20750075 0)
(151.02319 -0.21800064 0)
(151.08168 -0.22511265 0)
(151.16898 -0.24003498 0)
(151.25322 -0.25843299 0)
(151.35146 -0.28252762 0)
(151.45957 -0.31163628 0)
(151.58262 -0.34607833 0)
(151.72172 -0.38549112 0)
(151.87958 -0.42943426 0)
(152.05795 -0.47702746 0)
(152.25853 -0.52698056 0)
(152.48223 -0.57747198 0)
(152.72917 -0.62612669 0)
(152.99828 -0.6700191 0)
(153.28703 -0.70576504 0)
(153.59122 -0.72970499 0)
(153.90483 -0.7381525 0)
(154.22006 -0.72776604 0)
(154.5276 -0.69581118 0)
(154.81695 -0.64047533 0)
(155.07691 -0.561026 0)
(155.29618 -0.4580117 0)
(155.46385 -0.33330023 0)
(155.57015 -0.19024142 0)
(155.6071 -0.033569769 0)
(155.56922 0.13061803 0)
(155.45407 0.29516318 0)
(155.26294 0.45209794 0)
(155.00115 0.59336084 0)
(154.67812 0.71156307 0)
(154.30674 0.80110227 0)
(153.9023 0.85878386 0)
(153.48096 0.88438793 0)
(153.05779 0.88057466 0)
(152.6458 0.85155847 0)
(152.25513 0.80296523 0)
(151.8929 0.74026088 0)
(151.56356 0.66877434 0)
(151.26918 0.59285183 0)
(151.0101 0.51602643 0)
(150.7854 0.44080264 0)
(150.59336 0.36888352 0)
(150.43183 0.3012449 0)
(150.29854 0.23835539 0)
(150.19129 0.18031882 0)
(150.10831 0.12714648 0)
(150.04691 0.078908106 0)
(150.01055 0.035432753 0)
(150.94719 -0.28092065 0)
(151.05469 -0.29329537 0)
(151.11118 -0.30499997 0)
(151.19439 -0.3265036 0)
(151.27461 -0.35310826 0)
(151.36811 -0.38688328 0)
(151.47143 -0.42698901 0)
(151.58959 -0.47368189 0)
(151.72404 -0.52648238 0)
(151.8777 -0.58480543 0)
(152.05272 -0.64753425 0)
(152.25116 -0.71303129 0)
(152.47441 -0.77897659 0)
(152.72305 -0.84232196 0)
(152.99641 -0.89927954 0)
(153.29228 -0.9454278 0)
(153.60659 -0.97594996 0)
(153.93319 -0.98595494 0)
(154.26393 -0.97101641 0)
(154.5889 -0.92750286 0)
(154.8968 -0.85302147 0)
(155.17554 -0.74659748 0)
(155.41276 -0.60895977 0)
(155.59648 -0.44255003 0)
(155.71577 -0.25180054 0)
(155.76154 -0.042967611 0)
(155.72736 0.17586696 0)
(155.60999 0.39513462 0)
(155.41033 0.60419979 0)
(155.13392 0.79224504 0)
(154.79109 0.94919782 0)
(154.39641 1.0674254 0)
(153.96728 1.1425779 0)
(153.5222 1.1745093 0)
(153.07799 1.1672336 0)
(152.64879 1.1266511 0)
(152.24522 1.0606811 0)
(151.87426 0.97671917 0)
(151.5399 0.88196345 0)
(151.24348 0.78210852 0)
(150.98466 0.68174048 0)
(150.76176 0.58400865 0)
(150.57248 0.490996 0)
(150.41418 0.40380319 0)
(150.28422 0.32284121 0)
(150.18021 0.24799558 0)
(150.10027 0.17886836 0)
(150.04168 0.11486848 0)
(150.00862 0.055319014 0)
(150.98717 -0.30562906 0)
(151.0815 -0.31672496 0)
(151.13394 -0.32802819 0)
(151.21135 -0.35004391 0)
(151.28747 -0.3785211 0)
(151.37676 -0.41579741 0)
(151.47634 -0.46121743 0)
(151.591 -0.51523049 0)
(151.72244 -0.57747459 0)
(151.87379 -0.6474247 0)
(152.04751 -0.72390394 0)
(152.24607 -0.80505951 0)
(152.47137 -0.88814484 0)
(152.72447 -0.96943257 0)
(153.00523 -1.0441752 0)
(153.3118 -1.1067209 0)
(153.64029 -1.1508236 0)
(153.98441 -1.1700456 0)
(154.33552 -1.1585478 0)
(154.68294 -1.111476 0)
(155.0144 -1.025576 0)
(155.31663 -0.89935579 0)
(155.57601 -0.73347958 0)
(155.7792 -0.53069112 0)
(155.91386 -0.29630139 0)
(155.96958 -0.037926468 0)
(155.9387 0.23441068 0)
(155.81705 0.50873168 0)
(155.60506 0.77123972 0)
(155.30842 1.0076695 0)
(154.93867 1.2044934 0)
(154.51253 1.3514677 0)
(154.05029 1.4427169 0)
(153.57371 1.4781953 0)
(153.1019 1.4638168 0)
(152.65048 1.4075145 0)
(152.2306 1.320097 0)
(151.84892 1.2111333 0)
(151.50874 1.0899529 0)
(151.21039 0.96363953 0)
(150.95254 0.83784683 0)
(150.73258 0.71630326 0)
(150.54742 0.60140825 0)
(150.39381 0.49432586 0)
(150.26865 0.39538586 0)
(150.16921 0.30428185 0)
(150.09341 0.22032025 0)
(150.03835 0.14250605 0)
(150.00775 0.069839431 0)
(151.04248 -0.35967208 0)
(151.13517 -0.37479733 0)
(151.18446 -0.39152927 0)
(151.25628 -0.42153115 0)
(151.32639 -0.45972813 0)
(151.40867 -0.50850415 0)
(151.50089 -0.56706099 0)
(151.60791 -0.63583195 0)
(151.7318 -0.71438496 0)
(151.87605 -0.8020961 0)
(152.04367 -0.89759545 0)
(152.23779 -0.9987095 0)
(152.46104 -1.1021866 0)
(152.71533 -1.2035615 0)
(153.00128 -1.2970737 0)
(153.31769 -1.3757748 0)
(153.66101 -1.431909 0)
(154.02482 -1.4573701 0)
(154.39991 -1.4448536 0)
(154.77463 -1.3882514 0)
(155.13547 -1.2835055 0)
(155.46769 -1.1286909 0)
(155.75612 -0.9245838 0)
(155.98566 -0.67440272 0)
(156.14214 -0.38466111 0)
(156.21332 -0.06468792 0)
(156.18982 0.27316181 0)
(156.06583 0.61390867 0)
(155.84079 0.94022733 0)
(155.5204 1.2340491 0)
(155.11769 1.4777878 0)
(154.65232 1.658146 0)
(154.14851 1.76741 0)
(153.63265 1.805804 0)
(153.12687 1.7821264 0)
(152.64861 1.7068388 0)
(152.20958 1.5945678 0)
(151.81577 1.4573778 0)
(151.46954 1.3071134 0)
(151.16978 1.1522897 0)
(150.91389 0.99964253 0)
(150.69804 0.85336609 0)
(150.51822 0.71604901 0)
(150.3704 0.58875922 0)
(150.25096 0.47158488 0)
(150.15683 0.36386129 0)
(150.08567 0.26445619 0)
(150.03455 0.17187907 0)
(150.00675 0.084741731 0)
(151.10042 -0.39221789 0)
(151.17381 -0.4055516 0)
(151.21639 -0.42067008 0)
(151.27955 -0.44952417 0)
(151.34321 -0.48754173 0)
(151.419 -0.53749664 0)
(151.50533 -0.59889251 0)
(151.60676 -0.67250711 0)
(151.72569 -0.75822159 0)
(151.86587 -0.85570437 0)
(152.03081 -0.96378622 0)
(152.22424 -1.080339 0)
(152.44957 -1.2019045 0)
(152.70955 -1.323464 0)
(153.00567 -1.438267 0)
(153.33742 -1.5378988 0)
(153.70167 -1.6127557 0)
(154.09182 -1.6525345 0)
(154.49789 -1.6479985 0)
(154.90703 -1.591311 0)
(155.30418 -1.477252 0)
(155.67282 -1.3030933 0)
(155.99593 -1.0694189 0)
(156.2563 -0.77944801 0)
(156.43756 -0.44052447 0)
(156.52538 -0.063262759 0)
(156.50841 0.33795656 0)
(156.37915 0.74558233 0)
(156.13588 1.1380916 0)
(155.78409 1.4924525 0)
(155.33851 1.7854582 0)
(154.82245 1.9996212 0)
(154.26524 2.1245682 0)
(153.69966 2.160802 0)
(153.15169 2.1214977 0)
(152.64083 2.0201445 0)
(152.17933 1.876473 0)
(151.77199 1.705306 0)
(151.41975 1.5214372 0)
(151.11955 1.3347534 0)
(150.86717 1.1530323 0)
(150.65722 0.98075241 0)
(150.48455 0.82054017 0)
(150.34422 0.67321586 0)
(150.23199 0.53851785 0)
(150.14431 0.41534517 0)
(150.07853 0.30208178 0)
(150.03159 0.19670632 0)
(150.00617 0.097297474 0)
(151.17449 -0.4172097 0)
(151.24842 -0.43557945 0)
(151.28745 -0.45693754 0)
(151.34408 -0.49512162 0)
(151.40021 -0.54451453 0)
(151.46699 -0.60810657 0)
(151.54353 -0.68532645 0)
(151.63443 -0.77704387 0)
(151.74249 -0.88317279 0)
(151.87192 -1.0033863 0)
(152.02692 -1.1364154 0)
(152.21213 -1.279877 0)
(152.43213 -1.4298174 0)
(152.69102 -1.5803931 0)
(152.9917 -1.723604 0)
(153.33484 -1.849296 0)
(153.71818 -1.9457548 0)
(154.13506 -2.0000967 0)
(154.57463 -2.00101 0)
(155.02256 -1.9388141 0)
(155.46192 -1.8072151 0)
(155.87411 -1.6027467 0)
(156.23998 -1.3260485 0)
(156.53991 -0.98043657 0)
(156.7548 -0.57461902 0)
(156.86769 -0.12114257 0)
(156.8645 0.3628052 0)
(156.73463 0.85584387 0)
(156.47389 1.331519 0)
(156.08692 1.7613542 0)
(155.59042 2.1153243 0)
(155.01263 2.3709305 0)
(154.38976 2.5143088 0)
(153.76394 2.5463499 0)
(153.16599 2.4871891 0)
(152.61772 2.3538615 0)
(152.13174 2.1731551 0)
(151.71076 1.9628935 0)
(151.35385 1.7414441 0)
(151.05521 1.5199582 0)
(150.80866 1.3072204 0)
(150.60692 1.1077591 0)
(150.44354 0.92404406 0)
(150.31257 0.7564416 0)
(150.2091 0.60418089 0)
(150.12915 0.46560501 0)
(150.06977 0.33855793 0)
(150.02783 0.22050643 0)
(150.00537 0.10911678 0)
(151.2461 -0.46504789 0)
(151.29318 -0.48106969 0)
(151.32261 -0.49975804 0)
(151.36712 -0.53511576 0)
(151.41389 -0.58207208 0)
(151.47118 -0.64404869 0)
(151.53882 -0.72085765 0)
(151.62106 -0.81385904 0)
(151.7211 -0.92350508 0)
(151.84348 -1.0500749 0)
(151.99308 -1.1929007 0)
(152.17543 -1.3501056 0)
(152.39624 -1.5179925 0)
(152.66097 -1.6905362 0)
(152.97398 -1.8588919 0)
(153.33722 -2.011206 0)
(153.74936 -2.1333526 0)
(154.20352 -2.2090102 0)
(154.68759 -2.2241659 0)
(155.18533 -2.1665929 0)
(155.67754 -2.0285368 0)
(156.14307 -1.8053366 0)
(156.56036 -1.497503 0)
(156.90686 -1.1077031 0)
(157.16002 -0.64554882 0)
(157.29988 -0.12461923 0)
(157.30934 0.43617889 0)
(157.17481 1.0135534 0)
(156.88955 1.5755313 0)
(156.45664 2.086258 0)
(155.89478 2.5055407 0)
(155.23807 2.8035875 0)
(154.53145 2.9610854 0)
(153.83043 2.9789946 0)
(153.1718 2.8887319 0)
(152.5795 2.7111597 0)
(152.06633 2.4829512 0)
(151.63146 2.224867 0)
(151.27142 1.9595053 0)
(150.97674 1.6988734 0)
(150.73879 1.4525551 0)
(150.54798 1.2246986 0)
(150.39638 1.0173024 0)
(150.27688 0.82998402 0)
(150.18388 0.66125026 0)
(150.11291 0.50872168 0)
(150.06074 0.36957866 0)
(150.02419 0.24067123 0)
(150.00468 0.1191474 0)
(151.33554 -0.44834617 0)
(151.38668 -0.46945074 0)
(151.41291 -0.49453131 0)
(151.45079 -0.53971281 0)
(151.48927 -0.59897892 0)
(151.53626 -0.67616194 0)
(151.59223 -0.77119693 0)
(151.66135 -0.88575752 0)
(151.74715 -1.0205643 0)
(151.85457 -1.176142 0)
(151.98924 -1.351953 0)
(152.15784 -1.5460525 0)
(152.36769 -1.7543408 0)
(152.62633 -1.9698981 0)
(152.94054 -2.1822901 0)
(153.31455 -2.3771693 0)
(153.74906 -2.5373141 0)
(154.23736 -2.6418677 0)
(154.76587 -2.6738453 0)
(155.31611 -2.6182359 0)
(155.86612 -2.466128 0)
(156.39178 -2.2117138 0)
(156.86904 -1.8557966 0)
(157.27222 -1.3998731 0)
(157.57488 -0.85508302 0)
(157.75388 -0.23701606 0)
(157.78843 0.43214846 0)
(157.6592 1.1244895 0)
(157.35375 1.8006688 0)
(156.87131 2.4171552 0)
(156.23262 2.9212647 0)
(155.47982 3.2746754 0)
(154.66966 3.4504334 0)
(153.8781 3.4488757 0)
(153.14936 3.3201062 0)
(152.50865 3.0883167 0)
(151.96859 2.8043116 0)
(151.52247 2.4913197 0)
(151.16352 2.1771436 0)
(150.87729 1.8740955 0)
(150.65233 1.5923984 0)
(150.47633 1.335366 0)
(150.3398 1.1042316 0)
(150.23446 0.89758778 0)
(150.15407 0.71304057 0)
(150.09375 0.54737179 0)
(150.05005 0.39704989 0)
(150.0198 0.25831056 0)
(150.00381 0.12782851 0)
(151.41648 -0.52121189 0)
(151.4327 -0.54006655 0)
(151.4461 -0.56221938 0)
(151.46784 -0.60369782 0)
(151.49329 -0.65892672 0)
(151.52675 -0.73206173 0)
(151.56949 -0.8233848 0)
(151.62525 -0.93509606 0)
(151.69799 -1.0686065 0)
(151.79311 -1.2253497 0)
(151.91714 -1.4058781 0)
(152.07799 -1.6094384 0)
(152.28471 -1.8330227 0)
(152.54696 -2.0703949 0)
(152.87407 -2.3109166 0)
(153.27249 -2.5385319 0)
(153.74523 -2.7331216 0)
(154.2852 -2.8677698 0)
(154.87636 -2.9218117 0)
(155.49707 -2.8763503 0)
(156.12197 -2.7209855 0)
(156.72342 -2.4480426 0)
(157.27499 -2.0589974 0)
(157.74724 -1.5529742 0)
(158.10826 -0.94290424 0)
(158.33076 -0.24537344 0)
(158.38973 0.51675845 0)
(158.26045 1.3172125 0)
(157.92514 2.1103804 0)
(157.37788 2.8422563 0)
(156.64071 3.4398907 0)
(155.76497 3.8516055 0)
(154.82141 4.0377936 0)
(153.91694 3.995943 0)
(153.10447 3.8082025 0)
(152.4083 3.5003646 0)
(151.84063 3.1438007 0)
(151.38532 2.7627586 0)
(151.03161 2.3911557 0)
(150.75832 2.0403328 0)
(150.55083 1.7205687 0)
(150.39356 1.4334722 0)
(150.2754 1.1789489 0)
(150.18684 0.9540964 0)
(150.12107 0.75531207 0)
(150.07284 0.57832488 0)
(150.03857 0.418756 0)
(150.0152 0.27214061 0)
(150.00293 0.13462992 0)
(151.51658 -0.44903402 0)
(151.54093 -0.4715478 0)
(151.55216 -0.49869202 0)
(151.56809 -0.54841966 0)
(151.58558 -0.61470744 0)
(151.60864 -0.70239133 0)
(151.63903 -0.81227167 0)
(151.68017 -0.9472874 0)
(151.73611 -1.1096194 0)
(151.81232 -1.3015038 0)
(151.91592 -1.5242121 0)
(152.05591 -1.777486 0)
(152.24329 -2.058343 0)
(152.49066 -2.3598034 0)
(152.81136 -2.6692751 0)
(153.21593 -2.9668931 0)
(153.71235 -3.2279396 0)
(154.29429 -3.4161539 0)
(154.94288 -3.5066843 0)
(155.63281 -3.4762685 0)
(156.33468 -3.3141891 0)
(157.01647 -3.0112295 0)
(157.64961 -2.5710668 0)
(158.20072 -1.9878134 0)
(158.63175 -1.2760866 0)
(158.91282 -0.45386712 0)
(159.01619 0.4530844 0)
(158.90744 1.4143853 0)
(158.55571 2.3716435 0)
(157.94248 3.2609696 0)
(157.08978 3.9846029 0)
(156.06208 4.4769853 0)
(154.94887 4.6801775 0)
(153.90731 4.5838128 0)
(153.00082 4.3249063 0)
(152.24715 3.9248358 0)
(151.65795 3.4849932 0)
(151.20149 3.0275586 0)
(150.86242 2.5939877 0)
(150.61053 2.1930811 0)
(150.42787 1.8347756 0)
(150.29522 1.5181988 0)
(150.20006 1.2415263 0)
(150.13179 1.0000268 0)
(150.08324 0.78870883 0)
(150.04901 0.60214604 0)
(150.02552 0.43507777 0)
(150.00994 0.28234253 0)
(150.00191 0.13959168 0)
(151.60229 -0.55694693 0)
(151.58492 -0.57873072 0)
(151.58017 -0.60435731 0)
(151.57578 -0.65155913 0)
(151.57589 -0.71433314 0)
(151.58023 -0.7975602 0)
(151.59135 -0.90213576 0)
(151.61207 -1.0313174 0)
(151.64683 -1.1878639 0)
(151.70164 -1.3749736 0)
(151.78471 -1.595337 0)
(151.90681 -1.8506066 0)
(152.08148 -2.1400697 0)
(152.32482 -2.4590463 0)
(152.65474 -2.7964709 0)
(153.08578 -3.1315504 0)
(153.63186 -3.4373989 0)
(154.28589 -3.665367 0)
(155.02311 -3.7862596 0)
(155.8124 -3.7707874 0)
(156.61898 -3.6080311 0)
(157.40558 -3.2851265 0)
(158.14358 -2.8094414 0)
(158.7962 -2.1665697 0)
(159.31572 -1.3765711 0)
(159.6675 -0.46119331 0)
(159.81888 0.55355403 0)
(159.72434 1.650786 0)
(159.34246 2.7694704 0)
(158.64067 3.8347286 0)
(157.63948 4.7046711 0)
(156.41704 5.288491 0)
(155.0809 5.4962731 0)
(153.86794 5.29847 0)
(152.85292 4.9302336 0)
(152.03589 4.3980547 0)
(151.42973 3.8480012 0)
(150.97835 3.2946415 0)
(150.6621 2.7878668 0)
(150.43881 2.330836 0)
(150.28741 1.9317676 0)
(150.18445 1.5857416 0)
(150.11627 1.2882871 0)
(150.07123 1.032184 0)
(150.04204 0.81066992 0)
(150.02328 0.6169408 0)
(150.01154 0.44474402 0)
(150.00437 0.28817926 0)
(150.00084 0.14239367 0)
(151.70605 -0.41790974 0)
(151.69962 -0.43983563 0)
(151.69397 -0.46652683 0)
(151.68522 -0.51686055 0)
(151.67882 -0.58528995 0)
(151.67416 -0.67768309 0)
(151.67409 -0.79603006 0)
(151.68079 -0.9449938 0)
(151.69832 -1.1289966 0)
(151.73222 -1.35317 0)
(151.7906 -1.6223014 0)
(151.88471 -1.9400977 0)
(152.02974 -2.3074126 0)
(152.24517 -2.7200275 0)
(152.55505 -3.1652077 0)
(152.98046 -3.616164 0)
(153.54802 -4.0398274 0)
(154.25292 -4.3647839 0)
(155.06353 -4.5563418 0)
(155.94243 -4.5777327 0)
(156.84938 -4.4212127 0)
(157.7402 -4.0717517 0)
(158.58742 -3.5480255 0)
(159.34915 -2.8200416 0)
(159.96324 -1.910921 0)
(160.39571 -0.84191072 0)
(160.62091 0.36418401 0)
(160.58128 1.695521 0)
(160.20692 3.0615873 0)
(159.42723 4.3768696 0)
(158.25268 5.4450391 0)
(156.78271 6.1585863 0)
(155.14749 6.3819214 0)
(153.72077 6.0422722 0)
(152.59124 5.5467468 0)
(151.71615 4.8581007 0)
(151.11266 4.1878567 0)
(150.68492 3.5323392 0)
(150.40996 2.9516868 0)
(150.22979 2.4400284 0)
(150.12109 2.003177 0)
(150.05614 1.63114 0)
(150.02092 1.3164114 0)
(150.00326 1.0490287 0)
(149.99629 0.82037699 0)
(149.99494 0.62226783 0)
(149.99622 0.44749697 0)
(149.99825 0.28948709 0)
(149.99965 0.14294196 0)
(151.79291 -0.56703865 0)
(151.74214 -0.59173997 0)
(151.71841 -0.62074693 0)
(151.68614 -0.67306009 0)
(151.6581 -0.74237339 0)
(151.62902 -0.83424971 0)
(151.60225 -0.95031956 0)
(151.57897 -1.0950661 0)
(151.56332 -1.2729361 0)
(151.56108 -1.4894878 0)
(151.58142 -1.750564 0)
(151.63775 -2.0618607 0)
(151.74893 -2.4273575 0)
(151.94019 -2.8472045 0)
(152.24454 -3.3136285 0)
(152.69008 -3.8013829 0)
(153.32056 -4.2818084 0)
(154.12968 -4.6538 0)
(155.06955 -4.8801575 0)
(156.09087 -4.9150593 0)
(157.14436 -4.7575447 0)
(158.17499 -4.3836904 0)
(159.16415 -3.8264614 0)
(160.07195 -3.0219481 0)
(160.81669 -2.0079928 0)
(161.36409 -0.8230091 0)
(161.68887 0.49702802 0)
(161.70321 1.9832673 0)
(161.31415 3.5637104 0)
(160.41738 5.1632347 0)
(159.01682 6.4844207 0)
(157.23225 7.3695687 0)
(155.19444 7.5978815 0)
(153.50165 7.0022546 0)
(152.25446 6.305292 0)
(151.32099 5.3859112 0)
(150.73671 4.5515102 0)
(150.34487 3.765365 0)
(150.12439 3.0967999 0)
(149.9969 2.5246704 0)
(149.93856 2.049278 0)
(149.91703 1.6530685 0)
(149.91865 1.3240881 0)
(149.93103 1.0488254 0)
(149.94805 0.81640075 0)
(149.96525 0.61706869 0)
(149.98026 0.44262785 0)
(149.99192 0.28585105 0)
(149.99844 0.1410489 0)
(151.88884 -0.35778187 0)
(151.84768 -0.37687429 0)
(151.82364 -0.4000151 0)
(151.78808 -0.44583356 0)
(151.7554 -0.50957229 0)
(151.71972 -0.59790067 0)
(151.68461 -0.71403106 0)
(151.65037 -0.86451262 0)
(151.62035 -1.0565711 0)
(151.59916 -1.2994309 0)
(151.59478 -1.6035986 0)
(151.61971 -1.98038 0)
(151.69275 -2.4397711 0)
(151.84115 -2.9872875 0)
(152.1058 -3.6176729 0)
(152.5216 -4.2973231 0)
(153.16591 -4.9939685 0)
(154.0394 -5.5426685 0)
(155.07401 -5.9010933 0)
(156.20822 -6.0096714 0)
(157.38762 -5.8796783 0)
(158.54534 -5.4789295 0)
(159.68096 -4.8855969 0)
(160.74908 -3.9933517 0)
(161.61977 -2.8537329 0)
(162.25995 -1.5136053 0)
(162.68841 0.02871994 0)
(162.82294 1.870318 0)
(162.52045 3.8523277 0)
(161.56713 5.886773 0)
(159.91457 7.531654 0)
(157.71505 8.6453643 0)
(155.09114 8.8959848 0)
(153.04518 7.9215775 0)
(151.70014 7.006686 0)
(150.73368 5.8288778 0)
(150.21912 4.8345017 0)
(149.90211 3.9246657 0)
(149.77 3.1798862 0)
(149.71878 2.5583862 0)
(149.72751 2.0544952 0)
(149.7603 1.642556 0)
(149.80582 1.3062728 0)
(149.85263 1.028802 0)
(149.89636 0.79724784 0)
(149.93372 0.60055037 0)
(149.96342 0.42971841 0)
(149.98525 0.27705513 0)
(149.99715 0.13661557 0)
(151.97692 -0.5444964 0)
(151.89659 -0.57171621 0)
(151.85499 -0.60331463 0)
(151.79557 -0.65921268 0)
(151.73905 -0.73294677 0)
(151.67484 -0.83078136 0)
(151.60634 -0.95521563 0)
(151.53206 -1.1121454 0)
(151.45433 -1.3080535 0)
(151.37671 -1.551478 0)
(151.30698 -1.8525196 0)
(151.2589 -2.2228657 0)
(151.25523 -2.6743576 0)
(151.33145 -3.2170592 0)
(151.54683 -3.8545604 0)
(151.94756 -4.5576502 0)
(152.66561 -5.3276484 0)
(153.70036 -5.9191902 0)
(154.93379 -6.2988407 0)
(156.28027 -6.3927376 0)
(157.67246 -6.2484274 0)
(159.01011 -5.8112952 0)
(160.32464 -5.2219093 0)
(161.59285 -4.2345434 0)
(162.6314 -2.9326014 0)
(163.44141 -1.4001548 0)
(164.09474 0.26581489 0)
(164.40277 2.2389475 0)
(164.1516 4.4446263 0)
(163.04261 6.9356159 0)
(161.03439 9.0661645 0)
(158.32463 10.574744 0)
(154.89696 10.890829 0)
(152.42584 9.2421438 0)
(151.04236 7.948561 0)
(150.05593 6.3741032 0)
(149.64927 5.1431569 0)
(149.42332 4.0690884 0)
(149.39484 3.230557 0)
(149.42793 2.5554662 0)
(149.5094 2.0249354 0)
(149.59975 1.6018653 0)
(149.69116 1.2634901 0)
(149.77348 0.98883553 0)
(149.84446 0.76262386 0)
(149.90223 0.57244395 0)
(149.94667 0.40858053 0)
(149.97865 0.26299107 0)
(149.99589 0.12959182 0)
(152.02654 -0.2762608 0)
(151.9473 -0.29093827 0)
(151.90401 -0.30769024 0)
(151.84027 -0.34392083 0)
(151.7796 -0.39548192 0)
(151.71012 -0.4692441 0)
(151.63568 -0.56903566 0)
(151.55395 -0.70263618 0)
(151.46652 -0.87960304 0)
(151.3756 -1.1133457 0)
(151.28711 -1.4214728 0)
(151.21235 -1.8268105 0)
(151.17116 -2.3565891 0)
(151.19615 -3.040352 0)
(151.3542 -3.9038263 0)
(151.68122 -4.9153497 0)
(152.39925 -6.1047904 0)
(153.53081 -7.0271226 0)
(154.89475 -7.6521243 0)
(156.37556 -7.8904995 0)
(157.90733 -7.8205128 0)
(159.36057 -7.3381171 0)
(160.86385 -6.7200074 0)
(162.40847 -5.6222673 0)
(163.64719 -4.1636763 0)
(164.53783 -2.598623 0)
(165.26914 -0.86083831 0)
(165.75947 1.6430793 0)
(165.79487 4.5799578 0)
(164.79839 7.9859022 0)
(162.49674 10.644633 0)
(159.10065 12.568037 0)
(154.3778 12.954085 0)
(151.25577 10.231839 0)
(149.95514 8.6077984 0)
(149.03153 6.6486302 0)
(148.85124 5.2467087 0)
(148.79673 4.0589273 0)
(148.93142 3.1692514 0)
(149.08611 2.4715283 0)
(149.26331 1.9366678 0)
(149.42454 1.5183727 0)
(149.56926 1.1892872 0)
(149.69104 0.92574427 0)
(149.79124 0.71104336 0)
(149.87029 0.53211075 0)
(149.9298 0.37897514 0)
(149.972 0.24358925 0)
(149.99461 0.11996203 0)
(152.02917 -0.48127316 0)
(151.92594 -0.51006806 0)
(151.86961 -0.54179207 0)
(151.78654 -0.59756861 0)
(151.70444 -0.67075614 0)
(151.60738 -0.76845702 0)
(151.49807 -0.89412546 0)
(151.37116 -1.0552991 0)
(151.2251 -1.2609503 0)
(151.058 -1.523497 0)
(150.87118 -1.8589527 0)
(150.67179 -2.2879631 0)
(150.47791 -2.8351905 0)
(150.32584 -3.5283298 0)
(150.31588 -4.3990273 0)
(150.49113 -5.4029424 0)
(151.26307 -6.7050703 0)
(152.66676 -7.6318578 0)
(154.34816 -8.2141843 0)
(156.14774 -8.3131797 0)
(158.00971 -8.1541372 0)
(159.69911 -7.5535412 0)
(161.41162 -7.1467347 0)
(163.22509 -5.9825098 0)
(164.55921 -4.3501832 0)
(165.53773 -2.3366938 0)
(166.79635 -0.25176119 0)
(167.89869 2.3219401 0)
(168.27621 5.2552162 0)
(167.05197 9.134155 0)
(164.13206 12.792859 0)
(159.98904 15.828836 0)
(153.5331 16.683307 0)
(149.73665 12.125739 0)
(148.82666 9.7042524 0)
(147.98309 7.11687 0)
(148.08518 5.3847152 0)
(148.19806 4.0271027 0)
(148.49544 3.0610622 0)
(148.76486 2.3396905 0)
(149.03277 1.8055551 0)
(149.26052 1.3998949 0)
(149.45532 1.0874999 0)
(149.61409 0.84151958 0)
(149.74164 0.64360661 0)
(149.84058 0.4802115 0)
(149.91415 0.34131687 0)
(149.96587 0.21910023 0)
(149.99343 0.10784352 0)
(151.58822 -0.18418349 0)
(151.46799 -0.19455342 0)
(151.40498 -0.2035705 0)
(151.3117 -0.22717303 0)
(151.22107 -0.2610859 0)
(151.11438 -0.31148061 0)
(150.99512 -0.38147539 0)
(150.85719 -0.47823167 0)
(150.69885 -0.61118997 0)
(150.51751 -0.79498603 0)
(150.31346 -1.0514174 0)
(150.09208 -1.413673 0)
(149.86824 -1.9308921 0)
(149.66936 -2.6734194 0)
(149.60974 -3.7531855 0)
(149.63319 -5.1805513 0)
(150.38488 -7.3587665 0)
(151.968 -8.9390368 0)
(153.84882 -9.945539 0)
(155.78212 -10.347213 0)
(157.73895 -10.409974 0)
(159.31162 -9.8139721 0)
(161.15298 -9.2860653 0)
(163.47577 -7.9394651 0)
(165.25236 -5.6226861 0)
(166.43282 -3.898225 0)
(167.54724 -2.9639968 0)
(168.60413 0.13693307 0)
(169.50655 4.3475851 0)
(169.07593 11.045449 0)
(166.35484 15.568999 0)
(161.38712 19.191254 0)
(151.98997 20.253214 0)
(146.82401 12.454427 0)
(146.738 9.8240963 0)
(146.27777 6.8566714 0)
(146.92438 5.0775962 0)
(147.38461 3.7110823 0)
(147.94625 2.7761859 0)
(148.3903 2.094809 0)
(148.77886 1.6007693 0)
(149.08845 1.232085 0)
(149.33998 0.95191772 0)
(149.53834 0.73373394 0)
(149.69378 0.55960705 0)
(149.81231 0.41674436 0)
(149.89939 0.29583253 0)
(149.96009 0.18975575 0)
(149.99232 0.093371266 0)
(150.66583 -0.36939542 0)
(150.54454 -0.39887853 0)
(150.47598 -0.42560207 0)
(150.37238 -0.47402026 0)
(150.26808 -0.53663237 0)
(150.14186 -0.62143502 0)
(149.99561 -0.73238562 0)
(149.81936 -0.87834179 0)
(149.60616 -1.0706379 0)
(149.34521 -1.326156 0)
(149.02458 -1.6689442 0)
(148.63188 -2.1337936 0)
(148.15853 -2.7695811 0)
(147.59611 -3.6388117 0)
(147.08285 -4.8552448 0)
(146.45847 -6.2884773 0)
(147.06785 -8.7191748 0)
(149.17446 -10.128775 0)
(151.54786 -10.976288 0)
(153.86607 -10.80433 0)
(156.28112 -10.568916 0)
(158.23591 -9.0737387 0)
(160.33866 -9.7749919 0)
(163.23507 -8.229998 0)
(164.71322 -6.6533537 0)
(164.66735 -4.4054638 0)
(166.77899 -1.2627117 0)
(170.02731 2.1551851 0)
(172.82536 6.2981542 0)
(171.8606 10.976901 0)
(167.23239 17.109898 0)
(161.21501 24.421961 0)
(148.90127 28.195595 0)
(143.4578 15.745476 0)
(145.31167 10.751465 0)
(144.97544 7.0732032 0)
(146.12667 4.8236229 0)
(146.79069 3.3811766 0)
(147.54234 2.4335394 0)
(148.10467 1.796719 0)
(148.58104 1.3506223 0)
(148.95153 1.0295257 0)
(149.24688 0.79023356 0)
(149.47654 0.60677438 0)
(149.65447 0.46168804 0)
(149.78901 0.3433814 0)
(149.8872 0.243587 0)
(149.95534 0.15619426 0)
(149.99141 0.076846806 0)
(149.27197 -0.090603313 0)
(149.1115 -0.096782154 0)
(149.03324 -0.099107455 0)
(148.91278 -0.11009988 0)
(148.79453 -0.12528408 0)
(148.65172 -0.14897095 0)
(148.48728 -0.18233163 0)
(148.28994 -0.22950412 0)
(148.05248 -0.29593571 0)
(147.76365 -0.391011 0)
(147.41166 -0.53037635 0)
(146.98533 -0.74162895 0)
(146.4813 -1.0771445 0)
(145.88411 -1.6242505 0)
(145.44025 -2.6247912 0)
(144.63717 -4.1838189 0)
(145.4103 -8.5695032 0)
(148.03037 -11.550576 0)
(150.93648 -12.770392 0)
(153.54933 -13.357875 0)
(156.37029 -13.347481 0)
(157.28999 -13.465276 0)
(159.18688 -12.746828 7.8592478e-18)
(161.41059 -11.687146 4.6002587e-18)
(163.21151 -6.2016826 4.9668392e-18)
(165.17756 -3.4543206 -2.6461566e-20)
(168.90898 -7.425373 -3.9193418e-18)
(170.90802 -4.3413513 0)
(172.69985 -0.13327172 -4.8564694e-18)
(171.20856 16.230058 7.0710896e-18)
(169.99198 24.503252 0)
(159.71817 30.486924 8.3242461e-19)
(143.22938 33.442235 0)
(136.17151 11.084189 0)
(140.83718 8.9201016 0)
(142.33788 5.5884839 0)
(144.53152 3.8040518 0)
(145.87986 2.6277815 0)
(146.98644 1.8722101 0)
(147.76781 1.3738356 0)
(148.36817 1.0278709 0)
(148.81626 0.78202973 0)
(149.15992 0.59974082 0)
(149.42131 0.46066505 0)
(149.62034 0.35079416 0)
(149.76918 0.26119259 0)
(149.87695 0.18548291 0)
(149.95135 0.11904305 0)
(149.99064 0.058591628 0)
(146.43919 -0.20257058 0)
(146.31566 -0.24037145 0)
(146.24954 -0.25442707 0)
(146.1418 -0.28534607 0)
(146.03316 -0.3226631 0)
(145.89789 -0.37493486 0)
(145.73786 -0.44475502 0)
(145.53967 -0.53991837 0)
(145.29222 -0.67082161 0)
(144.97689 -0.85483965 0)
(144.56801 -1.1202884 0)
(144.02616 -1.5147733 0)
(143.29863 -2.1281231 0)
(142.24128 -3.0743905 0)
(140.97035 -4.791843 0)
(137.88925 -7.0995413 0)
(137.38823 -12.138281 0)
(142.53526 -14.036566 -1.3050772e-18)
(145.85468 -15.40152 1.512942e-19)
(145.30555 -13.970147 0)
(138.93359 -14.353061 -8.0638733e-18)
(98.745322 -7.9647096 1.1866658e-17)
(0 0 0)
(0 0 0)
(0 0 0)
(0 0 0)
(0 0 0)
(0 0 0)
(0 0 0)
(0 0 0)
(0 0 0)
(0 0 0)
(126.84657 50.935036 1.1912545e-16)
(133.28405 20.256151 0)
(142.33374 7.893039 0)
(141.71575 5.0862716 0)
(144.27516 2.7429459 0)
(145.58865 1.8425404 0)
(146.78684 1.2375735 0)
(147.61988 0.89883644 0)
(148.2642 0.66616979 0)
(148.74376 0.50758599 0)
(149.11037 0.39041573 0)
(149.3884 0.30142019 0)