/*--------------------------------*- C++ -*----------------------------------*\
| =========                 |                                                 |
| \\      /  F ield         | foam-extend: Open Source CFD                    |
|  \\    /   O peration     | Version:     4.1                                |
|   \\  /    A nd           | Web:         http://www.foam-extend.org         |
|    \\/     M anipulation  |                                                 |
\*---------------------------------------------------------------------------*/
FoamFile
{
    version     2.0;
    format      ascii;
    class       volScalarField;
    location    "1.2";
    object      rAU;
}
// * * * * * * * * * * * * * * * * * * * * * * * * * * * * * * * * * * * * * //

dimensions      [0 0 1 0 0 0 0];

internalField   nonuniform List<scalar> 
16126
(
0.00049528198
0.00049486325
0.00049486332
0.00049486333
0.00049486345
0.00049486364
0.00049486387
0.0004948642
0.00049486456
0.00049486501
0.00049486549
0.00049486607
0.00049486668
0.00049486738
0.00049486813
0.00049486896
0.00049486984
0.0004948708
0.00049487182
0.00049487292
0.00049487408
0.00049487531
0.0004948766
0.00049487797
0.00049487937
0.00049488086
0.00049488237
0.00049488394
0.00049488553
0.00049488715
0.00049488876
0.00049489037
0.00049489196
0.00049489349
0.00049489496
0.00049489632
0.00049489755
0.0004948986
0.00049489946
0.00049490006
0.00049490026
0.00049489972
0.00049489876
0.00049489735
0.00049489544
0.000494893
0.00049488998
0.00049488636
0.00049488209
0.00049487715
0.00049487152
0.00049486517
0.0004948581
0.00049485029
0.00049484175
0.00049483248
0.00049482251
0.00049481185
0.00049480053
0.00049478862
0.00049477614
0.00049476317
0.00049474977
0.00049473603
0.00049472203
0.00049470788
0.00049469367
0.00049467953
0.00049466557
0.00049465192
0.00049463871
0.00049462607
0.00049461413
0.000494603
0.00049459281
0.00049458364
0.00049457558
0.00049456866
0.00049456294
0.00049455838
0.00049455495
0.00049455259
0.00049455118
0.00049455057
0.00049455057
0.00049455059
0.00049455108
0.00049455181
0.00049455243
0.00049455151
0.00049454911
0.00049454506
0.00049453924
0.00049453156
0.00049452196
0.00049451032
0.00049449651
0.00049448036
0.00049446164
0.00049444006
0.00049441529
0.00049438687
0.00049435429
0.00049431683
0.00049427359
0.00049422336
0.00049416454
0.00049409489
0.00049401152
0.00049391043
0.00049378658
0.00049363318
0.00049344231
0.00049320377
0.00049290691
0.00049253866
0.00049208809
0.00049154162
0.0004908942
0.00049013439
0.00048928066
0.00048831504
0.00048738608
0.00048591085
0.00049356229
0.00049314682
0.00049314682
0.00049314672
0.00049314679
0.00049314696
0.00049314718
0.00049314757
0.00049314798
0.00049314857
0.00049314917
0.00049314993
0.00049315073
0.00049315167
0.00049315265
0.00049315377
0.00049315494
0.00049315623
0.00049315757
0.00049315904
0.00049316055
0.00049316217
0.00049316381
0.00049316556
0.00049316731
0.00049316915
0.00049317096
0.00049317282
0.00049317461
0.00049317641
0.00049317809
0.00049317967
0.00049318112
0.0004931823
0.00049318326
0.00049318386
0.00049318408
0.00049318344
0.00049318164
0.00049317914
0.00049317586
0.00049317142
0.00049316611
0.00049315976
0.00049315231
0.00049314368
0.00049313381
0.00049312266
0.00049311017
0.0004930963
0.00049308103
0.00049306435
0.00049304627
0.0004930268
0.00049300598
0.00049298386
0.00049296051
0.00049293602
0.00049291049
0.00049288404
0.0004928568
0.00049282893
0.00049280059
0.00049277196
0.00049274325
0.00049271465
0.00049268638
0.00049265866
0.00049263174
0.00049260583
0.00049258118
0.000492558
0.00049253653
0.00049251695
0.00049249943
0.0004924841
0.00049247105
0.00049246031
0.00049245187
0.00049244562
0.00049244142
0.00049243901
0.0004924381
0.00049243831
0.00049243889
0.0004924387
0.00049243906
0.00049243854
0.00049243471
0.00049242681
0.00049241485
0.00049239852
0.00049237745
0.00049235124
0.00049231949
0.0004922818
0.00049223772
0.00049218675
0.00049212834
0.00049206182
0.00049198645
0.00049190133
0.00049180543
0.00049169753
0.00049157622
0.0004914398
0.00049128638
0.00049111367
0.00049091923
0.00049070015
0.00049045368
0.00049017656
0.00048986664
0.00048952133
0.00048914123
0.00048872639
0.00048828436
0.00048782034
0.00048735685
0.00048690434
0.00048652228
0.00048620626
0.00048615525
0.00048575113
0.00049135348
0.00049094203
0.00049094175
0.00049094156
0.00049094136
0.00049094121
0.00049094109
0.00049094113
0.00049094114
0.00049094133
0.00049094148
0.00049094179
0.00049094208
0.0004909425
0.00049094291
0.00049094343
0.00049094392
0.00049094453
0.0004909451
0.00049094576
0.00049094637
0.00049094705
0.00049094766
0.00049094831
0.00049094886
0.00049094941
0.00049094981
0.00049095017
0.00049095032
0.00049095035
0.00049095011
0.00049094964
0.00049094888
0.00049094769
0.00049094526
0.000490942
0.00049093817
0.00049093331
0.00049092713
0.00049091994
0.00049091171
0.00049090227
0.00049089161
0.00049087961
0.00049086621
0.00049085136
0.000490835
0.00049081709
0.00049079762
0.00049077657
0.00049075395
0.00049072978
0.0004907041
0.00049067698
0.0004906485
0.00049061874
0.00049058783
0.0004905559
0.00049052309
0.00049048958
0.00049045554
0.00049042116
0.00049038666
0.00049035224
0.00049031815
0.0004902846
0.00049025186
0.00049022018
0.00049018979
0.00049016097
0.00049013395
0.00049010897
0.00049008623
0.00049006592
0.00049004816
0.00049003303
0.00049002056
0.00049001069
0.00049000329
0.00048999811
0.00048999484
0.00048999305
0.0004899922
0.00048999163
0.00048999022
0.00048998679
0.00048998168
0.00048997355
0.00048996042
0.00048994275
0.00048992007
0.00048989189
0.00048985774
0.00048981723
0.00048976997
0.00048971559
0.00048965374
0.00048958403
0.00048950607
0.00048941943
0.00048932365
0.00048921824
0.00048910265
0.00048897629
0.00048883852
0.00048868864
0.00048852595
0.00048834966
0.00048815918
0.00048795381
0.0004877335
0.00048749813
0.00048724925
0.0004869884
0.00048672072
0.00048645089
0.00048619108
0.00048594986
0.00048575255
0.00048560761
0.00048557047
0.00048562421
0.00048592336
0.00048589621
0.0004897078
0.00048929913
0.00048929839
0.00048929819
0.00048929767
0.00048929707
0.00048929637
0.00048929576
0.00048929507
0.0004892945
0.00048929384
0.00048929329
0.00048929263
0.00048929206
0.00048929138
0.00048929076
0.00048929002
0.00048928932
0.00048928849
0.00048928766
0.00048928668
0.00048928568
0.0004892845
0.00048928326
0.00048928179
0.00048928023
0.0004892784
0.00048927641
0.0004892741
0.00048927112
0.0004892673
0.00048926305
0.00048925833
0.00048925301
0.00048924634
0.00048923858
0.00048923
0.00048922035
0.0004892097
0.00048919782
0.00048918478
0.00048917037
0.00048915465
0.00048913753
0.00048911897
0.00048909893
0.0004890774
0.00048905438
0.00048902988
0.00048900392
0.00048897654
0.0004889478
0.00048891778
0.00048888657
0.00048885428
0.00048882103
0.00048878695
0.00048875221
0.00048871694
0.00048868134
0.00048864558
0.00048860986
0.00048857437
0.00048853932
0.00048850494
0.00048847145
0.00048843908
0.00048840808
0.00048837867
0.00048835109
0.00048832557
0.00048830228
0.00048828142
0.0004882631
0.00048824738
0.00048823428
0.00048822371
0.00048821551
0.00048820943
0.0004882051
0.00048820206
0.00048819975
0.00048819751
0.00048819458
0.00048819016
0.00048818344
0.00048817372
0.00048816049
0.00048814329
0.00048812166
0.00048809523
0.00048806367
0.00048802679
0.0004879844
0.00048793636
0.00048788251
0.00048782271
0.00048775683
0.00048768474
0.00048760634
0.00048752151
0.00048743018
0.00048733227
0.00048722771
0.00048711649
0.00048699855
0.00048687399
0.00048674289
0.00048660561
0.00048646257
0.00048631489
0.00048616381
0.00048601217
0.0004858629
0.00048572219
0.00048559552
0.00048549479
0.00048542728
0.00048541429
0.00048545821
0.0004855998
0.00048581054
0.00048618787
0.00048618963
0.00048860126
0.00048819408
0.00048819276
0.00048819222
0.00048819117
0.00048819016
0.00048818891
0.00048818771
0.00048818638
0.00048818506
0.00048818359
0.00048818208
0.00048818032
0.00048817857
0.00048817663
0.00048817468
0.00048817253
0.00048817033
0.00048816791
0.00048816539
0.00048816244
0.00048815932
0.00048815584
0.00048815215
0.00048814806
0.00048814371
0.0004881389
0.00048813378
0.00048812815
0.0004881217
0.0004881142
0.00048810603
0.00048809713
0.00048808733
0.00048807671
0.00048806504
0.00048805243
0.00048803864
0.00048802379
0.00048800765
0.00048799036
0.00048797173
0.00048795183
0.00048793059
0.00048790802
0.00048788411
0.00048785888
0.00048783236
0.00048780459
0.00048777561
0.00048774552
0.00048771437
0.00048768228
0.00048764935
0.0004876157
0.00048758145
0.00048754675
0.00048751173
0.00048747655
0.00048744137
0.00048740634
0.00048737164
0.00048733745
0.00048730396
0.00048727135
0.00048723985
0.00048720966
0.000487181
0.00048715409
0.00048712913
0.00048710632
0.00048708583
0.00048706779
0.00048705226
0.00048703928
0.00048702877
0.00048702059
0.00048701452
0.00048701024
0.00048700733
0.00048700532
0.00048700366
0.00048700174
0.00048699896
0.0004869947
0.00048698841
0.00048697957
0.00048696772
0.00048695243
0.00048693341
0.00048691055
0.00048688381
0.00048685321
0.00048681879
0.00048678056
0.00048673856
0.00048669281
0.00048664333
0.00048659015
0.00048653333
0.00048647293
0.00048640906
0.00048634182
0.00048627138
0.00048619794
0.00048612172
0.0004860431
0.00048596245
0.00048588049
0.00048579799
0.0004857164
0.00048563726
0.0004855635
0.00048549797
0.00048544614
0.00048541235
0.00048540599
0.0004854313
0.00048550396
0.00048562175
0.00048581401
0.00048605349
0.00048640388
0.00048636737
0.00048792658
0.00048752002
0.00048751813
0.00048751698
0.00048751521
0.00048751363
0.00048751176
0.00048750989
0.0004875078
0.00048750564
0.00048750326
0.00048750075
0.00048749791
0.00048749499
0.00048749179
0.00048748847
0.00048748484
0.00048748106
0.00048747693
0.00048747258
0.00048746766
0.00048746243
0.0004874567
0.0004874506
0.00048744391
0.00048743678
0.00048742899
0.00048742066
0.00048741159
0.00048740189
0.00048739135
0.00048738002
0.00048736788
0.00048735473
0.00048734069
0.00048732554
0.00048730943
0.00048729214
0.00048727381
0.00048725423
0.00048723355
0.0004872116
0.00048718849
0.00048716418
0.0004871387
0.00048711207
0.00048708434
0.00048705557
0.0004870258
0.00048699513
0.00048696363
0.0004869314
0.00048689855
0.0004868652
0.00048683145
0.00048679743
0.00048676326
0.00048672908
0.00048669501
0.00048666121
0.0004866278
0.00048659495
0.00048656281
0.00048653156
0.00048650138
0.00048647246
0.00048644503
0.00048641927
0.00048639541
0.00048637364
0.00048635414
0.00048633706
0.00048632252
0.00048631054
0.00048630111
0.00048629413
0.00048628942
0.00048628672
0.00048628571
0.00048628595
0.00048628701
0.00048628838
0.00048628952
0.00048628993
0.00048628909
0.00048628653
0.0004862818
0.00048627459
0.00048626468
0.00048625197
0.00048623651
0.0004862184
0.00048619779
0.00048617483
0.00048614968
0.00048612244
0.00048609321
0.0004860621
0.00048602919
0.00048599457
0.00048595837
0.00048592073
0.0004858818
0.0004858418
0.00048580097
0.0004857596
0.0004857181
0.00048567692
0.00048563677
0.00048559846
0.00048556333
0.00048553281
0.00048550942
0.00048549551
0.00048549553
0.00048551262
0.00048555402
0.000485622
0.00048572821
0.0004858686
0.00048606408
0.00048629095
0.00048658903
0.00048649066
0.00048755133
0.00048714483
0.00048714245
0.00048714073
0.00048713834
0.00048713609
0.00048713347
0.00048713082
0.00048712786
0.0004871248
0.00048712144
0.00048711792
0.00048711408
0.00048711004
0.00048710564
0.00048710101
0.00048709596
0.00048709063
0.00048708483
0.00048707871
0.00048707206
0.00048706501
0.00048705737
0.00048704928
0.00048704051
0.00048703121
0.00048702116
0.0004870105
0.000486999
0.00048698681
0.00048697369
0.00048695975
0.00048694494
0.00048692909
0.00048691235
0.00048689449
0.00048687566
0.00048685567
0.00048683468
0.0004868125
0.00048678931
0.00048676494
0.00048673955
0.0004867131
0.00048668564
0.00048665722
0.00048662789
0.00048659775
0.00048656685
0.00048653528
0.00048650315
0.00048647055
0.00048643759
0.00048640439
0.00048637105
0.00048633769
0.00048630442
0.00048627137
0.00048623865
0.0004862064
0.00048617476
0.00048614386
0.00048611386
0.00048608495
0.00048605731
0.00048603114
0.00048600666
0.00048598408
0.00048596361
0.00048594547
0.00048592981
0.00048591677
0.00048590645
0.00048589886
0.00048589393
0.00048589156
0.00048589151
0.00048589351
0.0004858972
0.00048590216
0.00048590794
0.00048591405
0.00048592
0.00048592531
0.00048592954
0.0004859323
0.00048593326
0.00048593221
0.00048592904
0.00048592374
0.00048591646
0.00048590739
0.00048589674
0.00048588472
0.00048587152
0.00048585728
0.00048584215
0.00048582622
0.00048580959
0.00048579234
0.00048577458
0.00048575641
0.00048573797
0.00048571944
0.000485701
0.0004856829
0.00048566549
0.00048564917
0.00048563456
0.00048562235
0.0004856137
0.0004856098
0.00048561274
0.00048562439
0.00048564829
0.00048568673
0.00048574538
0.00048582551
0.00048593623
0.0004860737
0.00048625358
0.00048645775
0.00048671067
0.00048656452
0.00048735958
0.00048695285
0.00048695007
0.00048694785
0.00048694494
0.00048694214
0.00048693892
0.00048693562
0.00048693197
0.00048692816
0.000486924
0.00048691963
0.00048691488
0.00048690989
0.00048690446
0.00048689875
0.00048689255
0.00048688603
0.00048687896
0.0004868715
0.00048686345
0.00048685494
0.00048684577
0.00048683608
0.00048682565
0.00048681464
0.00048680282
0.00048679033
0.00048677696
0.00048676286
0.00048674779
0.00048673187
0.00048671505
0.00048669718
0.00048667841
0.00048665854
0.00048663772
0.00048661579
0.0004865929
0.00048656888
0.00048654394
0.00048651792
0.00048649097
0.00048646309
0.00048643434
0.00048640477
0.00048637447
0.00048634352
0.00048631199
0.00048627999
0.00048624761
0.00048621496
0.00048618214
0.00048614928
0.00048611646
0.00048608382
0.00048605146
0.0004860195
0.00048598805
0.00048595728
0.0004859273
0.00048589827
0.00048587037
0.00048584379
0.00048581873
0.00048579541
0.00048577406
0.0004857549
0.00048573816
0.00048572403
0.00048571267
0.0004857042
0.00048569869
0.00048569611
0.00048569637
0.0004856993
0.00048570464
0.00048571207
0.00048572122
0.00048573162
0.00048574283
0.00048575435
0.00048576571
0.00048577646
0.00048578621
0.00048579461
0.00048580142
0.00048580648
0.00048580975
0.00048581131
0.00048581132
0.00048580996
0.00048580748
0.00048580409
0.00048579998
0.00048579532
0.00048579022
0.00048578481
0.00048577914
0.00048577329
0.00048576735
0.00048576139
0.00048575551
0.00048574985
0.00048574457
0.00048573987
0.00048573606
0.00048573348
0.00048573268
0.00048573429
0.0004857393
0.00048574878
0.0004857645
0.00048578806
0.00048582241
0.0004858694
0.00048593364
0.00048601596
0.00048612341
0.00048625246
0.00048641409
0.00048659401
0.00048680624
0.00048661705
0.00048726866
0.00048686158
0.0004868585
0.00048685586
0.00048685257
0.00048684932
0.00048684563
0.00048684183
0.00048683764
0.00048683325
0.00048682847
0.00048682346
0.000486818
0.00048681227
0.00048680606
0.00048679952
0.00048679245
0.00048678501
0.00048677697
0.00048676851
0.0004867594
0.00048674979
0.00048673947
0.00048672859
0.00048671694
0.00048670465
0.00048669152
0.00048667769
0.00048666294
0.00048664743
0.00048663094
0.00048661359
0.00048659534
0.00048657603
0.00048655584
0.00048653455
0.00048651236
0.00048648907
0.00048646487
0.0004864396
0.00048641347
0.00048638632
0.00048635834
0.00048632952
0.00048629993
0.00048626964
0.00048623871
0.00048620727
0.00048617537
0.00048614313
0.00048611064
0.00048607802
0.00048604537
0.00048601282
0.00048598047
0.00048594843
0.00048591683
0.00048588581
0.00048585547
0.000485826
0.00048579753
0.00048577025
0.00048574435
0.00048572004
0.00048569755
0.00048567711
0.00048565897
0.00048564336
0.0004856305
0.00048562057
0.00048561373
0.00048561006
0.00048560959
0.00048561225
0.00048561791
0.00048562635
0.00048563727
0.0004856503
0.00048566504
0.000485681
0.00048569771
0.00048571467
0.00048573143
0.00048574754
0.00048576127
0.00048577107
0.00048578239
0.00048579518
0.00048580818
0.00048581553
0.00048582145
0.00048582613
0.00048582978
0.00048583261
0.0004858348
0.00048583651
0.00048583786
0.00048583895
0.00048583984
0.00048584061
0.00048584131
0.00048584202
0.00048584281
0.00048584381
0.00048584516
0.00048584703
0.00048584972
0.00048585356
0.00048585904
0.00048586678
0.00048587769
0.00048589272
0.00048591348
0.00048594136
0.00048597888
0.00048602761
0.00048609134
0.00048617069
0.00048627119
0.0004863899
0.00048653448
0.00048669394
0.00048687539
0.0004866534
0.00048722797
0.00048682053
0.00048681724
0.00048681427
0.00048681068
0.0004868071
0.00048680305
0.00048679887
0.00048679427
0.00048678946
0.00048678421
0.0004867787
0.00048677273
0.00048676644
0.00048675964
0.00048675249
0.00048674477
0.00048673663
0.00048672788
0.00048671867
0.00048670877
0.00048669835
0.00048668718
0.00048667543
0.00048666286
0.00048664965
0.00048663556
0.00048662075
0.00048660502
0.0004865885
0.00048657099
0.00048655261
0.00048653333
0.000486513
0.00048649178
0.00048646949
0.00048644632
0.00048642207
0.00048639696
0.0004863708
0.00048634383
0.00048631591
0.0004862872
0.00048625772
0.00048622753
0.00048619671
0.00048616534
0.00048613353
0.00048610135
0.00048606891
0.00048603633
0.00048600371
0.00048597117
0.00048593883
0.00048590681
0.00048587524
0.00048584426
0.000485814
0.00048578462
0.00048575631
0.00048572922
0.00048570357
0.00048567958
0.00048565748
0.00048563751
0.00048561992
0.00048560498
0.0004855929
0.00048558391
0.00048557817
0.00048557581
0.00048557687
0.00048558135
0.00048558914
0.00048560006
0.00048561383
0.00048563012
0.00048564853
0.0004856686
0.00048568983
0.00048571173
0.00048573381
0.0004857556
0.00048577067
0.0004857808
0.00048578991
0.00048580358
0.00048582183
0.00048584339
0.00048586227
0.00048588253
0.00048589267
0.00048590072
0.00048590783
0.00048591416
0.00048591987
0.00048592506
0.00048592987
0.00048593435
0.00048593858
0.00048594264
0.00048594661
0.00048595058
0.00048595468
0.00048595907
0.00048596395
0.00048596962
0.0004859764
0.00048598482
0.00048599547
0.00048600921
0.00048602696
0.00048605015
0.00048608003
0.00048611877
0.00048616768
0.00048622983
0.0004863056
0.00048639909
0.00048650766
0.00048663626
0.0004867763
0.00048693087
0.00048668101
0.00048721018
0.00048680241
0.00048679897
0.00048679574
0.00048679193
0.00048678808
0.00048678377
0.0004867793
0.00048677439
0.00048676924
0.00048676364
0.00048675776
0.00048675138
0.00048674467
0.00048673743
0.0004867298
0.00048672158
0.00048671293
0.00048670364
0.00048669386
0.00048668337
0.00048667233
0.00048666053
0.00048664811
0.00048663487
0.00048662096
0.00048660615
0.00048659062
0.00048657413
0.00048655686
0.00048653859
0.00048651944
0.0004864994
0.00048647831
0.00048645634
0.0004864333
0.0004864094
0.00048638444
0.00048635863
0.00048633181
0.0004863042
0.00048627567
0.00048624639
0.00048621638
0.0004861857
0.00048615444
0.00048612268
0.00048609053
0.00048605807
0.00048602542
0.00048599268
0.00048595998
0.00048592744
0.00048589521
0.00048586339
0.00048583215
0.00048580163
0.000485772
0.00048574343
0.00048571613
0.00048569029
0.00048566615
0.00048564394
0.00048562392
0.00048560635
0.00048559149
0.0004855796
0.00048557091
0.00048556561
0.00048556385
0.00048556574
0.00048557127
0.00048558041
0.000485593
0.00048560882
0.00048562755
0.00048564883
0.0004856722
0.00048569719
0.00048572328
0.00048574995
0.00048577671
0.00048579564
0.00048580233
0.00048580816
0.00048581852
0.00048583347
0.000485853
0.00048587703
0.0004859054
0.00048593788
0.00048596275
0.0004859876
0.00048599772
0.00048600684
0.00048601511
0.00048602264
0.00048602956
0.00048603596
0.00048604193
0.00048604758
0.00048605301
0.00048605833
0.0004860637
0.0004860693
0.00048607535
0.00048608217
0.00048609012
0.0004860997
0.00048611151
0.00048612637
0.00048614513
0.00048616909
0.00048619936
0.00048623779
0.00048628548
0.00048634489
0.00048641627
0.00048650264
0.00048660178
0.00048671674
0.00048684081
0.00048697442
0.00048670235
0.00048720204
0.00048679399
0.00048679045
0.00048678699
0.00048678301
0.00048677895
0.00048677442
0.00048676971
0.00048676456
0.00048675914
0.00048675326
0.00048674707
0.00048674038
0.00048673333
0.00048672573
0.00048671773
0.00048670911
0.00048670005
0.00048669032
0.00048668008
0.00048666912
0.00048665759
0.00048664527
0.00048663233
0.00048661855
0.00048660407
0.0004865887
0.00048657258
0.0004865555
0.00048653763
0.00048651875
0.00048649898
0.00048647832
0.00048645661
0.00048643403
0.00048641038
0.00048638587
0.00048636032
0.00048633393
0.00048630655
0.00048627839
0.00048624933
0.00048621955
0.00048618904
0.00048615791
0.00048612622
0.00048609406
0.00048606155
0.00048602877
0.00048599584
0.00048596288
0.00048593002
0.00048589739
0.00048586514
0.00048583342
0.00048580239
0.00048577222
0.0004857431
0.00048571522
0.00048568882
0.0004856641
0.00048564134
0.00048562078
0.0004856027
0.00048558737
0.00048557506
0.00048556603
0.00048556049
0.00048555862
0.00048556056
0.00048556637
0.00048557603
0.00048558946
0.00048560645
0.00048562676
0.00048565004
0.00048567586
0.00048570377
0.00048573325
0.00048576376
0.00048579479
0.00048582037
0.00048582633
0.00048582857
0.00048583524
0.00048584648
0.00048586233
0.00048588276
0.00048590767
0.00048593688
0.00048597015
0.00048600718
0.00048604746
0.00048607501
0.00048609836
0.00048610838
0.00048611742
0.00048612564
0.00048613313
0.00048614004
0.00048614648
0.00048615258
0.00048615851
0.00048616445
0.0004861706
0.00048617722
0.00048618465
0.00048619327
0.00048620357
0.00048621615
0.00048623178
0.00048625124
0.00048627569
0.0004863061
0.00048634401
0.00048639031
0.00048644692
0.00048651391
0.00048659338
0.00048668339
0.0004867856
0.00048689479
0.00048701011
0.00048671936
0.00048719768
0.0004867894
0.00048678578
0.00048678213
0.00048677801
0.00048677376
0.00048676906
0.00048676415
0.00048675878
0.00048675314
0.00048674702
0.00048674057
0.00048673361
0.00048672627
0.00048671836
0.00048671004
0.00048670109
0.00048669167
0.00048668157
0.00048667094
0.00048665957
0.00048664762
0.00048663488
0.00048662148
0.00048660724
0.00048659228
0.00048657642
0.0004865598
0.00048654221
0.00048652382
0.00048650441
0.00048648411
0.00048646292
0.00048644066
0.00048641754
0.00048639336
0.00048636831
0.00048634222
0.0004863153
0.00048628739
0.00048625872
0.00048622916
0.00048619887
0.00048616789
0.00048613629
0.00048610415
0.00048607156
0.00048603864
0.00048600548
0.00048597221
0.00048593895
0.00048590585
0.00048587304
0.0004858407
0.00048580897
0.00048577805
0.00048574812
0.0004857194
0.00048569209
0.00048566646
0.00048564274
0.00048562121
0.00048560215
0.00048558584
0.00048557256
0.00048556259
0.00048555617
0.00048555352
0.0004855548
0.00048556013
0.00048556953
0.00048558295
0.0004856003
0.00048562133
0.00048564576
0.0004856732
0.00048570321
0.00048573529
0.00048576893
0.00048580355
0.00048583862
0.00048584716
0.00048584562
0.00048584842
0.00048585572
0.00048586765
0.00048588422
0.0004859054
0.00048593106
0.000485961
0.00048599498
0.00048603267
0.00048607372
0.00048611777
0.00048615947
0.00048618944
0.000486206
0.00048621513
0.00048622336
0.00048623083
0.00048623769
0.00048624413
0.00048625032
0.00048625647
0.00048626282
0.00048626965
0.0004862773
0.00048628617
0.00048629676
0.00048630962
0.00048632548
0.00048634506
0.00048636937
0.00048639926
0.00048643602
0.00048648036
0.00048653378
0.00048659624
0.00048666922
0.00048675101
0.00048684236
0.00048693913
0.00048703962
0.0004867334
0.00048719476
0.00048678628
0.00048678258
0.00048677877
0.00048677453
0.00048677011
0.00048676525
0.00048676016
0.00048675461
0.00048674876
0.00048674243
0.00048673575
0.00048672854
0.00048672095
0.00048671277
0.00048670415
0.0004866949
0.00048668516
0.00048667473
0.00048666375
0.00048665202
0.00048663969
0.00048662655
0.00048661275
0.00048659808
0.0004865827
0.00048656639
0.00048654931
0.00048653126
0.00048651239
0.0004864925
0.00048647171
0.00048645001
0.00048642726
0.00048640362
0.00048637893
0.00048635337
0.00048632676
0.00048629933
0.0004862709
0.00048624172
0.00048621164
0.00048618085
0.00048614936
0.00048611726
0.00048608463
0.00048605157
0.00048601819
0.00048598459
0.00048595092
0.00048591729
0.00048588387
0.00048585081
0.00048581828
0.00048578646
0.00048575556
0.00048572578
0.00048569735
0.00048567051
0.00048564553
0.00048562268
0.00048560225
0.00048558453
0.00048556982
0.00048555841
0.00048555056
0.00048554654
0.00048554653
0.00048555069
0.00048555912
0.00048557181
0.00048558871
0.00048560967
0.00048563444
0.00048566268
0.000485694
0.00048572792
0.00048576393
0.00048580149
0.00048583999
0.00048586338
0.00048585809
0.00048585683
0.00048586001
0.00048586781
0.00048588031
0.00048589753
0.00048591939
0.00048594576
0.00048597643
0.00048601112
0.00048604951
0.00048609124
0.00048613594
0.00048618322
0.00048623272
0.00048627026
0.00048629763
0.00048630642
0.0004863143
0.00048632147
0.00048632812
0.00048633446
0.00048634075
0.00048634722
0.00048635419
0.00048636202
0.00048637109
0.00048638189
0.00048639497
0.00048641096
0.00048643055
0.00048645459
0.00048648382
0.00048651928
0.00048656153
0.00048661168
0.00048666962
0.00048673627
0.00048681015
0.0004868914
0.00048697675
0.00048706428
0.00048674499
0.00048719237
0.00048678373
0.00048677997
0.000486776
0.00048677165
0.00048676708
0.00048676208
0.00048675682
0.0004867511
0.00048674507
0.00048673853
0.00048673165
0.00048672421
0.00048671638
0.00048670795
0.00048669907
0.00048668953
0.0004866795
0.00048666876
0.00048665746
0.00048664539
0.00048663271
0.0004866192
0.00048660502
0.00048658996
0.00048657417
0.00048655744
0.00048653993
0.00048652144
0.00048650212
0.00048648176
0.00048646051
0.00048643833
0.00048641509
0.00048639096
0.00048636577
0.0004863397
0.00048631258
0.00048628463
0.00048625568
0.00048622597
0.00048619536
0.00048616404
0.00048613202
0.00048609938
0.00048606623
0.00048603264
0.00048599875
0.00048596466
0.00048593052
0.00048589646
0.00048586264
0.00048582924
0.00048579644
0.00048576444
0.00048573346
0.00048570372
0.00048567548
0.00048564899
0.00048562455
0.00048560244
0.00048558296
0.00048556642
0.00048555314
0.00048554341
0.00048553749
0.00048553564
0.00048553805
0.00048554487
0.00048555616
0.00048557192
0.00048559205
0.00048561639
0.00048564466
0.00048567652
0.00048571152
0.00048574919
0.00048578898
0.00048583031
0.00048586666
0.00048586668
0.00048586119
0.00048586007
0.00048586355
0.00048587178
0.00048588483
0.00048590269
0.00048592528
0.00048595242
0.00048598389
0.00048601941
0.00048605863
0.00048610117
0.00048614667
0.00048619471
0.00048624492
0.00048629692
0.00048634644
0.00048637842
0.00048639186
0.00048639921
0.00048640596
0.00048641233
0.0004864186
0.00048642504
0.00048643197
0.00048643976
0.00048644878
0.00048645951
0.00048647247
0.00048648824
0.00048650742
0.00048653078
0.00048655892
0.00048659271
0.00048663258
0.00048667936
0.00048673289
0.0004867937
0.00048686053
0.00048693308
0.00048700871
0.00048708537
0.00048675492
0.00048719023
0.00048678145
0.00048677763
0.00048677353
0.00048676907
0.00048676436
0.00048675923
0.00048675382
0.00048674793
0.00048674173
0.00048673501
0.00048672793
0.00048672028
0.00048671222
0.00048670355
0.00048669442
0.00048668462
0.00048667431
0.00048666327
0.00048665166
0.00048663928
0.00048662626
0.0004866124
0.00048659786
0.00048658243
0.00048656625
0.00048654912
0.0004865312
0.00048651228
0.00048649252
0.00048647172
0.00048645
0.00048642736
0.00048640364
0.00048637902
0.00048635332
0.00048632675
0.00048629911
0.00048627063
0.00048624115
0.00048621089
0.00048617973
0.00048614785
0.00048611526
0.00048608206
0.00048604833
0.00048601417
0.00048597971
0.00048594507
0.00048591039
0.00048587582
0.00048584153
0.00048580771
0.00048577456
0.00048574229
0.00048571113
0.00048568133
0.00048565316
0.00048562691
0.00048560287
0.00048558136
0.00048556269
0.0004855472
0.00048553518
0.00048552696
0.00048552279
0.00048552294
0.00048552759
0.00048553687
0.00048555084
0.00048556948
0.00048559267
0.00048562024
0.00048565187
0.00048568721
0.0004857258
0.00048576712
0.0004858106
0.00048585567
0.00048587264
0.00048586271
0.00048585707
0.00048585598
0.00048585968
0.00048586829
0.00048588188
0.0004859004
0.00048592376
0.00048595176
0.00048598414
0.00048602061
0.0004860608
0.00048610431
0.00048615076
0.00048619972
0.00048625081
0.00048630364
0.00048635787
0.00048641317
0.00048645079
0.00048647192
0.00048647869
0.00048648503
0.00048649123
0.00048649758
0.0004865044
0.00048651207
0.00048652097
0.00048653154
0.00048654426
0.00048655968
0.00048657833
0.00048660085
0.00048662776
0.00048665974
0.00048669713
0.0004867405
0.00048678965
0.00048684483
0.00048690493
0.00048696942
0.00048703621
0.00048710331
0.00048676332
0.00048718822
0.00048677933
0.00048677545
0.00048677123
0.00048676668
0.00048676184
0.00048675659
0.00048675103
0.00048674499
0.00048673863
0.00048673173
0.00048672446
0.00048671662
0.00048670835
0.00048669945
0.00048669008
0.00048668003
0.00048666946
0.00048665814
0.00048664624
0.00048663355
0.00048662021
0.00048660602
0.00048659114
0.00048657534
0.00048655879
0.00048654127
0.00048652295
0.00048650361
0.00048648343
0.00048646219
0.00048644003
0.00048641692
0.00048639272
0.00048636762
0.00048634142
0.00048631433
0.00048628618
0.00048625716
0.00048622712
0.0004861963
0.00048616456
0.00048613209
0.0004860989
0.00048606508
0.00048603073
0.00048599595
0.00048596087
0.00048592561
0.00048589032
0.00048585517
0.00048582033
0.000485786
0.0004857524
0.00048571975
0.00048568831
0.00048565833
0.00048563012
0.00048560397
0.00048558021
0.00048555916
0.00048554115
0.00048552654
0.00048551563
0.00048550876
0.00048550618
0.00048550817
0.0004855149
0.00048552649
0.00048554299
0.00048556438
0.00048559052
0.00048562121
0.00048565613
0.00048569489
0.00048573702
0.00048578197
0.00048582916
0.00048586946
0.00048586279
0.00048585237
0.00048584646
0.00048584533
0.0004858492
0.00048585819
0.00048587233
0.00048589157
0.00048591579
0.00048594475
0.00048597818
0.00048601575
0.00048605708
0.00048610174
0.00048614932
0.00048619938
0.00048625153
0.00048630534
0.00048636047
0.00048641656
0.00048647333
0.00048651949
0.00048654728
0.00048655345
0.00048655943
0.00048656552
0.00048657205
0.0004865794
0.00048658794
0.0004865981
0.00048661032
0.0004866251
0.00048664291
0.0004866643