/*--------------------------------*- C++ -*----------------------------------*\
| =========                 |                                                 |
| \\      /  F ield         | foam-extend: Open Source CFD                    |
|  \\    /   O peration     | Version:     4.1                                |
|   \\  /    A nd           | Web:         http://www.foam-extend.org         |
|    \\/     M anipulation  |                                                 |
\*---------------------------------------------------------------------------*/
FoamFile
{
    version     2.0;
    format      ascii;
    class       volVectorField;
    location    "1.2";
    object      U;
}
// * * * * * * * * * * * * * * * * * * * * * * * * * * * * * * * * * * * * * //

dimensions      [0 1 -1 0 0 0 0];

internalField   nonuniform List<vector> 
16126
(
(0.14053133 -1.4940564e-05 0)
(0.14059616 4.421767e-06 0)
(0.14053114 -6.8463304e-07 0)
(0.14058326 2.4936536e-06 0)
(0.14051782 3.4528568e-06 0)
(0.14053795 4.2162963e-06 0)
(0.14047791 6.5415687e-06 0)
(0.14046906 6.830448e-06 0)
(0.14041012 8.8737876e-06 0)
(0.14037811 9.27568e-06 0)
(0.14031521 1.0949541e-05 0)
(0.14026431 1.1587201e-05 0)
(0.14019363 1.3026976e-05 0)
(0.14012634 1.3879693e-05 0)
(0.14004537 1.5213668e-05 0)
(0.13996296 1.6237263e-05 0)
(0.13987012 1.7540725e-05 0)
(0.13977322 1.8692272e-05 0)
(0.1396676 2.001517e-05 0)
(0.13955661 2.1287782e-05 0)
(0.1394379 2.2687922e-05 0)
(0.13931333 2.4104624e-05 0)
(0.13918187 2.5639855e-05 0)
(0.13904468 2.7246665e-05 0)
(0.13890153 2.898594e-05 0)
(0.13875341 3.0827585e-05 0)
(0.13860064 3.2783027e-05 0)
(0.13844431 3.4717839e-05 0)
(0.13828529 3.6519205e-05 0)
(0.13812493 3.7619446e-05 0)
(0.13796479 3.7665401e-05 0)
(0.13780658 3.6600538e-05 0)
(0.13765219 3.4637758e-05 0)
(0.1375034 3.184106e-05 0)
(0.13736215 3.0263408e-05 0)
(0.13723314 3.1459653e-05 0)
(0.13712011 3.6019834e-05 0)
(0.13702538 4.2970434e-05 0)
(0.13695161 4.5954307e-05 0)
(0.13690478 4.2721436e-05 0)
(0.13689261 3.3294984e-05 0)
(0.13692613 2.4633914e-05 0)
(0.13699871 2.0031279e-05 0)
(0.13711512 1.5063772e-05 0)
(0.13727831 9.9919807e-06 0)
(0.1374925 4.3450993e-06 0)
(0.13776144 -1.8058181e-06 0)
(0.13808888 -8.5086537e-06 0)
(0.13847819 -1.5733712e-05 0)
(0.1389325 -2.3468105e-05 0)
(0.13945443 -3.1679152e-05 0)
(0.14004618 -4.0333181e-05 0)
(0.14070933 -4.938653e-05 0)
(0.1414449 -5.8790175e-05 0)
(0.14225319 -6.8486369e-05 0)
(0.14313378 -7.8410457e-05 0)
(0.14408547 -8.8488e-05 0)
(0.14510626 -9.8634858e-05 0)
(0.14619328 -0.00010875568 0)
(0.14734278 -0.00011874223 0)
(0.14855012 -0.00012847229 0)
(0.14980973 -0.00013780955 0)
(0.15111513 -0.00014660231 0)
(0.15245888 -0.00015468506 0)
(0.15383263 -0.00016187959 0)
(0.15522712 -0.00016799956 0)
(0.15663221 -0.00017285384 0)
(0.15803694 -0.0001762547 0)
(0.15942962 -0.00017802532 0)
(0.16079797 -0.0001780108 0)
(0.16212926 -0.00017608628 0)
(0.16341059 -0.00017217248 0)
(0.16462912 -0.00016623893 0)
(0.16577244 -0.00015832126 0)
(0.16682899 -0.00014851432 0)
(0.16778839 -0.00013698948 0)
(0.16864207 -0.00012396611 0)
(0.16938344 -0.00010973368 0)
(0.17000871 -9.4593375e-05 0)
(0.1705167 -7.8891321e-05 0)
(0.17090988 -6.2978258e-05 0)
(0.17119358 -4.7224328e-05 0)
(0.17137745 -3.2574674e-05 0)
(0.17147379 -1.9743943e-05 0)
(0.17149818 -1.5956674e-05 0)
(0.17147031 -1.9261221e-05 0)
(0.17140281 -2.2824385e-05 0)
(0.17132802 -1.8858254e-05 0)
(0.17128384 -2.6057782e-06 0)
(0.17131921 8.8242051e-06 0)
(0.17148209 9.1879352e-06 0)
(0.17179916 5.5678762e-06 0)
(0.17228685 2.4002072e-06 0)
(0.17295397 3.1516929e-06 0)
(0.17380799 8.4543719e-06 0)
(0.17485703 1.778673e-05 0)
(0.17611296 3.0356857e-05 0)
(0.17759054 4.5512128e-05 0)
(0.17931056 6.3119493e-05 0)
(0.18129671 8.3095795e-05 0)
(0.18358183 0.0001057541 0)
(0.18620134 0.00013068074 0)
(0.18920691 0.00015742437 0)
(0.19265279 0.00018303109 0)
(0.19662564 0.00020352803 0)
(0.20121497 0.00020857237 0)
(0.20657714 0.00018503063 0)
(0.21286883 0.00010585295 0)
(0.2203824 -6.0525315e-05 0)
(0.2293917 -0.00037244757 0)
(0.2404361 -0.00089000651 0)
(0.25395751 -0.001719131 0)
(0.27090005 -0.0029481446 0)
(0.29185463 -0.0047383901 0)
(0.31835893 -0.0071747969 0)
(0.35089366 -0.010466749 0)
(0.39183278 -0.014611249 0)
(0.44071693 -0.019873051 0)
(0.50137153 -0.025971386 0)
(0.57016048 -0.033383446 0)
(0.65489919 -0.040702591 0)
(0.74101262 -0.049854601 0)
(0.85366553 -0.051318673 0)
(0.92415154 -0.06280407 0)
(0.40363675 -4.2097126e-05 0)
(0.4037048 7.8335919e-06 0)
(0.40365873 -8.6373762e-07 0)
(0.4036978 1.4530049e-05 0)
(0.40364309 2.043096e-05 0)
(0.40364688 2.7314852e-05 0)
(0.40358631 3.5766879e-05 0)
(0.40355804 4.1205047e-05 0)
(0.40348845 4.9837002e-05 0)
(0.40343342 5.5649664e-05 0)
(0.40335132 6.3993416e-05 0)
(0.40327308 7.047431e-05 0)
(0.40317596 7.8609358e-05 0)
(0.40307665 8.5658905e-05 0)
(0.40296306 9.3699907e-05 0)
(0.40284407 0.00010115028 0)
(0.40271346 0.00010916138 0)
(0.40257601 0.00011683287 0)
(0.40242869 0.00012475373 0)
(0.40227428 0.00013238374 0)
(0.40211156 0.00013997221 0)
(0.40194243 0.0001471707 0)
(0.40176685 0.00015403189 0)
(0.40158649 0.00016027964 0)
(0.40140217 0.00016583223 0)
(0.40121575 0.00017043991 0)
(0.40102879 0.00017394662 0)
(0.40084363 0.00017618239 0)
(0.40066256 0.00017702128 0)
(0.4004886 0.00017664008 0)
(0.40032575 0.00017514114 0)
(0.40017854 0.00017240351 0)
(0.40005182 0.00016812614 0)
(0.39995158 0.00016233762 0)
(0.39988422 0.00015090107 0)
(0.39985653 0.00013087563 0)
(0.39987741 0.00010329844 0)
(0.3999585 6.9771803e-05 0)
(0.40010676 3.4543701e-05 0)
(0.40031993 -3.4874483e-06 0)
(0.40060211 -4.7611796e-05 0)
(0.40095562 -9.5458031e-05 0)
(0.40139669 -0.00014631477 0)
(0.40193218 -0.0002019034 0)
(0.40257025 -0.00026222636 0)
(0.40331794 -0.00032728732 0)
(0.40418198 -0.00039686483 0)
(0.40516849 -0.00047066465 0)
(0.40628285 -0.00054828335 0)
(0.40752954 -0.00062923614 0)
(0.408912 -0.00071294149 0)
(0.41043247 -0.00079873738 0)
(0.4120919 -0.00088587744 0)
(0.41388983 -0.00097354321 0)
(0.41582427 -0.0010608476 0)
(0.41789163 -0.0011468475 0)
(0.42008671 -0.0012305495 0)
(0.42240263 -0.001310922 0)
(0.42483084 -0.0013869032 0)
(0.42736114 -0.0014574103 0)
(0.42998169 -0.0015213479 0)
(0.43267909 -0.0015776176 0)
(0.43543839 -0.0016251251 0)
(0.43824321 -0.0016627918 0)
(0.44107579 -0.0016895656 0)
(0.44391708 -0.0017044393 0)
(0.44674685 -0.0017064703 0)
(0.44954384 -0.001694812 0)
(0.45228594 -0.0016687501 0)
(0.4549504 -0.0016277527 0)
(0.45751418 -0.0015715212 0)
(0.45995434 -0.0015000621 0)
(0.46224853 -0.0014137405 0)
(0.46437564 -0.0013133614 0)
(0.46631647 -0.0012002014 0)
(0.46805455 -0.0010760779 0)
(0.46957702 -0.00094331845 0)
(0.47087536 -0.00080481328 0)
(0.47194642 -0.00066388525 0)
(0.47279287 -0.00052436361 0)
(0.47342423 -0.00039027576 0)
(0.47385662 -0.00026603676 0)
(0.47411409 -0.00015529809 0)
(0.4742265 -6.1477826e-05 0)
(0.4742341 1.8130066e-05 0)
(0.47417455 8.3478075e-05 0)
(0.47411893 0.00011887144 0)
(0.47415615 9.8675955e-05 0)
(0.47440039 8.3502596e-06 0)
(0.47492768 -0.00014108085 0)
(0.47578993 -0.0003297422 0)
(0.47704138 -0.00054321519 0)
(0.47873098 -0.00077412781 0)
(0.48090438 -0.0010199066 0)
(0.48360284 -0.0012807313 0)
(0.48686528 -0.0015589536 0)
(0.49073147 -0.0018583108 0)
(0.49524372 -0.0021839818 0)
(0.50045081 -0.0025420348 0)
(0.50640753 -0.0029401443 0)
(0.51317975 -0.003386948 0)
(0.52084094 -0.0038939377 0)
(0.52948076 -0.0044742939 0)
(0.53919603 -0.0051469076 0)
(0.55010733 -0.0059336056 0)
(0.56233781 -0.0068671665 0)
(0.5760464 -0.0079842298 0)
(0.59137955 -0.0093408933 0)
(0.60853939 -0.010994761 0)
(0.6276756 -0.013035188 0)
(0.64903006 -0.015539271 0)
(0.67269708 -0.018632058 0)
(0.69894162 -0.022383557 0)
(0.72766616 -0.026936645 0)
(0.75913707 -0.032276119 0)
(0.79277237 -0.038524506 0)
(0.8288702 -0.045423253 0)
(0.86572218 -0.053077386 0)
(0.90396377 -0.060662943 0)
(0.93921368 -0.068571236 0)
(0.97381913 -0.074243991 0)
(0.99686074 -0.080428641 0)
(1.0165888 -0.07478145 0)
(1.0120295 -0.080173388 0)
(0.62391256 -7.410985e-05 0)
(0.62400154 2.1086035e-06 0)
(0.62397785 -6.1944406e-06 0)
(0.62402652 2.0991733e-05 0)
(0.62400055 3.0977195e-05 0)
(0.62401955 4.6800847e-05 0)
(0.62399074 6.1994508e-05 0)
(0.62398518 7.4626405e-05 0)
(0.62394958 8.9725261e-05 0)
(0.62392406 0.00010190547 0)
(0.62387942 0.00011643692 0)
(0.62383762 0.00012889608 0)
(0.62378316 0.00014295338 0)
(0.62372793 0.00015571573 0)
(0.62366402 0.00016939012 0)
(0.62359798 0.00018221689 0)
(0.62352606 0.0001953979 0)
(0.62345209 0.00020788024 0)
(0.62337466 0.0002202473 0)
(0.62329637 0.00023184428 0)
(0.62321727 0.0002428786 0)
(0.62313959 0.00025286886 0)
(0.62306439 0.00026177804 0)
(0.62299404 0.0002691927 0)
(0.6229305 0.00027490913 0)
(0.62287664 0.00027850496 0)
(0.62283538 0.0002796332 0)
(0.62281036 0.00027770957 0)
(0.62280566 0.00027219862 0)
(0.62282592 0.00026135981 0)
(0.62287597 0.000243663 0)
(0.62296166 0.00021848281 0)
(0.62309028 0.00018509554 0)
(0.62326834 0.00014220739 0)
(0.62350621 9.1713053e-05 0)
(0.62380102 3.399261e-05 0)
(0.62415668 -3.3631188e-05 0)
(0.62457572 -0.00011052306 0)
(0.62506588 -0.00019474452 0)
(0.62564158 -0.00028699167 0)
(0.62630981 -0.00038993865 0)
(0.62707899 -0.00050443084 0)
(0.62795885 -0.00063000374 0)
(0.6289574 -0.00076597379 0)
(0.63008185 -0.00091211573 0)
(0.63133903 -0.0010679885 0)
(0.63273491 -0.0012329132 0)
(0.63427471 -0.001406017 0)
(0.63596258 -0.0015861898 0)
(0.6378015 -0.0017721289 0)
(0.63979312 -0.0019623225 0)
(0.64193764 -0.0021550819 0)
(0.64423369 -0.0023485479 0)
(0.64667825 -0.002540721 0)
(0.64926659 -0.0027294814 0)
(0.65199223 -0.0029126217 0)
(0.65484695 -0.0030878721 0)
(0.65782079 -0.0032529306 0)
(0.66090213 -0.0034054898 0)
(0.66407771 -0.0035432593 0)
(0.66733273 -0.0036639867 0)
(0.67065091 -0.003765475 0)
(0.67401461 -0.0038455951 0)
(0.67740484 -0.003902302 0)
(0.68080141 -0.0039336494 0)
(0.68418298 -0.0039378172 0)
(0.68752717 -0.0039131442 0)
(0.69081068 -0.0038581853 0)
(0.69400952 -0.0037717826 0)
(0.69709921 -0.0036531683 0)
(0.70005523 -0.0035020785 0)
(0.7028534 -0.0033189036 0)
(0.70547061 -0.0031048224 0)
(0.70788546 -0.0028619681 0)
(0.71007921 -0.002593526 0)
(0.71203669 -0.0023038592 0)
(0.7137474 -0.0019984915 0)
(0.71520642 -0.0016841528 0)
(0.71641563 -0.0013685897 0)
(0.71738445 -0.0010605419 0)
(0.71813093 -0.00076935315 0)
(0.71868251 -0.00050500815 0)
(0.71907687 -0.00027768331 0)
(0.71936419 -9.8793291e-05 0)
(0.71960674 1.9138697e-05 0)
(0.71989043 5.6702763e-05 0)
(0.72030581 -1.2954584e-05 0)
(0.7209276 -0.00020696717 0)
(0.72179918 -0.00051536971 0)
(0.72298156 -0.00091581769 0)
(0.72454375 -0.00139699 0)
(0.72655575 -0.00195093 0)
(0.72908171 -0.002567228 0)
(0.73217579 -0.0032373419 0)
(0.73588368 -0.0039562582 0)
(0.74024365 -0.0047234129 0)
(0.7452894 -0.0055419323 0)
(0.75105134 -0.0064182532 0)
(0.75755936 -0.0073609683 0)
(0.7648425 -0.0083811675 0)
(0.77293191 -0.0094913413 0)
(0.78185797 -0.010707002 0)
(0.79165467 -0.012045059 0)
(0.80235241 -0.013527525 0)
(0.8139863 -0.015178025 0)
(0.82658038 -0.01702927 0)
(0.84016509 -0.019114752 0)
(0.8547433 -0.021483456 0)
(0.8703283 -0.024180062 0)
(0.8868709 -0.02727409 0)
(0.90434479 -0.030813451 0)
(0.92258913 -0.034883839 0)
(0.94150665 -0.039502093 0)
(0.96071792 -0.044744749 0)
(0.98003563 -0.050507028 0)
(0.99867577 -0.056806338 0)
(1.0164296 -0.063223878 0)
(1.0317597 -0.069696013 0)
(1.0448022 -0.075066076 0)
(1.0525036 -0.079443941 0)
(1.0565149 -0.079605313 0)
(1.0507186 -0.077541502 0)
(1.0403374 -0.062596822 0)
(1.0190165 -0.047411164 0)
(0.78930159 -0.00011730287 0)
(0.78943834 -2.2009921e-05 0)
(0.78944987 -2.8259985e-05 0)
(0.78954138 7.8568604e-06 0)
(0.78956239 1.8889135e-05 0)
(0.78962855 3.8718657e-05 0)
(0.7896575 5.5219601e-05 0)
(0.78971071 7.1363333e-05 0)
(0.78974336 8.8803392e-05 0)
(0.78978895 0.0001040164 0)
(0.78982398 0.00012084126 0)
(0.78986657 0.00013571021 0)
(0.7899048 0.00015158959 0)
(0.78994862 0.00016591838 0)
(0.78999234 0.00018055313 0)
(0.79004169 0.00019388161 0)
(0.7900944 0.00020689934 0)
(0.79015419 0.00021855921 0)
(0.79022077 0.00022926827 0)
(0.790297 0.00023823516 0)
(0.7903838 0.00024542185 0)
(0.79048388 0.00025016377 0)
(0.7905991 0.0002521665 0)
(0.79073241 0.00025073416 0)
(0.79088652 0.00024531048 0)
(0.79106493 0.00023509419 0)
(0.79127118 0.00021929959 0)
(0.79150955 0.00019705421 0)
(0.79178407 0.00016737028 0)
(0.79210014 0.00013006098 0)
(0.79245938 8.4664927e-05 0)
(0.79286474 2.9564795e-05 0)
(0.79331897 -3.6238626e-05 0)
(0.79382601 -0.0001140062 0)
(0.79438696 -0.00020226278 0)
(0.79501399 -0.00030064468 0)
(0.79571296 -0.00041133686 0)
(0.79649093 -0.00053570197 0)
(0.79735553 -0.00067621576 0)
(0.79831536 -0.00083326353 0)
(0.79937726 -0.0010064869 0)
(0.80054716 -0.001195491 0)
(0.80183101 -0.0013995606 0)
(0.80323472 -0.0016184918 0)
(0.8047637 -0.0018515794 0)
(0.80642257 -0.0020979518 0)
(0.80821514 -0.0023563419 0)
(0.8101443 -0.0026252052 0)
(0.81221186 -0.0029026649 0)
(0.81441847 -0.0031865645 0)
(0.81676354 -0.0034744633 0)
(0.81924512 -0.0037636809 0)
(0.82185989 -0.0040513207 0)
(0.82460311 -0.0043343167 0)
(0.82746862 -0.0046094731 0)
(0.83044882 -0.0048735134 0)
(0.8335348 -0.0051231226 0)
(0.83671626 -0.0053549908 0)
(0.8399817 -0.005565848 0)
(0.84331835 -0.0057524929 0)
(0.84671234 -0.0059118129 0)
(0.85014865 -0.0060407986 0)
(0.85361115 -0.0061365515 0)
(0.85708267 -0.0061962951 0)
(0.86054492 -0.0062173895 0)
(0.8639786 -0.0061973663 0)
(0.86736338 -0.00613398 0)
(0.87067803 -0.0060252992 0)
(0.87390062 -0.0058698267 0)
(0.87700876 -0.0056666707 0)
(0.87998006 -0.0054157379 0)
(0.88279269 -0.0051179759 0)
(0.88542603 -0.0047756001 0)
(0.88786156 -0.0043923489 0)
(0.89008378 -0.0039736566 0)
(0.89208121 -0.0035268344 0)
(0.89384749 -0.0030610848 0)
(0.89538235 -0.002587555 0)
(0.89669262 -0.0021191493 0)
(0.89779303 -0.001670507 0)
(0.89870698 -0.00125768 0)
(0.89946684 -0.00089821037 0)
(0.90011414 -0.00061081762 0)
(0.90069847 -0.0004154421 0)
(0.90127544 -0.00033308674 0)
(0.90190246 -0.0003816013 0)
(0.90262868 -0.00056979348 0)
(0.90349393 -0.00089597609 0)
(0.90454334 -0.001362446 0)
(0.90583317 -0.0019727608 0)
(0.90742544 -0.0027156226 0)
(0.90937407 -0.0035726915 0)
(0.91172532 -0.0045262533 0)
(0.91451851 -0.0055614374 0)
(0.91778517 -0.0066678024 0)
(0.92154923 -0.0078396991 0)
(0.92582743 -0.0090757351 0)
(0.93062986 -0.010378481 0)
(0.93596144 -0.011753355 0)
(0.94182175 -0.013208693 0)
(0.94820691 -0.014754513 0)
(0.95510757 -0.016403726 0)
(0.96251166 -0.018170468 0)
(0.97039911 -0.020073213 0)
(0.97874704 -0.022131481 0)
(0.98751817 -0.024372166 0)
(0.99667201 -0.026821777 0)
(1.0061402 -0.029518648 0)
(1.015852 -0.032494335 0)
(1.0256813 -0.03579748 0)
(1.035507 -0.039450473 0)
(1.0450989 -0.043498884 0)
(1.0542629 -0.04791383 0)
(1.0625916 -0.0527042 0)
(1.0698226 -0.057699551 0)
(1.0752677 -0.0628299 0)
(1.0787119 -0.067621302 0)
(1.079037 -0.07195375 0)
(1.0764827 -0.074731448 0)
(1.0692678 -0.076147272 0)
(1.0590353 -0.073510316 0)
(1.0434574 -0.068858987 0)
(1.0261503 -0.054156629 0)
(1.0099676 -0.037795995 0)
(0.90109073 -0.00018414225 0)
(0.901295 -8.1054871e-05 0)
(0.90135526 -8.6824545e-05 0)
(0.90151536 -4.5344956e-05 0)
(0.90160443 -3.3773134e-05 0)
(0.90174335 -1.182354e-05 0)
(0.90184895 3.7535005e-06 0)
(0.90198294 1.9977041e-05 0)
(0.90210384 3.5710504e-05 0)
(0.90224326 4.9463178e-05 0)
(0.90238046 6.3612258e-05 0)
(0.90253217 7.5525024e-05 0)
(0.90268843 8.7479103e-05 0)
(0.90285834 9.739897e-05 0)
(0.90303746 0.00010671468 0)
(0.90323122 0.00011393819 0)
(0.90343826 0.00011977574 0)
(0.90366231 0.00012317552 0)
(0.90390372 0.0001243266 0)
(0.90416554 0.00012243123 0)
(0.90444907 0.00011736265 0)
(0.90475693 0.00010835988 0)
(0.90509102 9.4970422e-05 0)
(0.90545401 7.6394994e-05 0)
(0.90584819 5.1960049e-05 0)
(0.90627625 2.0779709e-05 0)
(0.90674072 -1.8012576e-05 0)
(0.90724419 -6.5335734e-05 0)
(0.90778954 -0.00012220437 0)
(0.90837886 -0.00018885068 0)
(0.90901769 -0.00026570462 0)
(0.90971054 -0.00035417302 0)
(0.91046183 -0.00045538528 0)
(0.91127575 -0.00057032634 0)
(0.91215711 -0.00070186445 0)
(0.91311229 -0.00085180453 0)
(0.91414674 -0.0010198562 0)
(0.91526571 -0.0012063457 0)
(0.91647376 -0.0014111584 0)
(0.91777486 -0.0016346723 0)
(0.91917334 -0.0018775537 0)
(0.92067327 -0.0021399107 0)
(0.92227866 -0.0024211481 0)
(0.92399301 -0.0027203243 0)
(0.92581911 -0.0030363119 0)
(0.92775911 -0.0033676355 0)
(0.92981434 -0.0037124511 0)
(0.93198533 -0.0040685512 0)
(0.93427169 -0.0044333527 0)
(0.93667212 -0.0048039379 0)
(0.93918431 -0.0051770704 0)
(0.94180499 -0.0055492488 0)
(0.94452989 -0.0059167469 0)
(0.94735377 -0.0062756742 0)
(0.95027045 -0.0066220284 0)
(0.95327288 -0.0069517545 0)
(0.95635314 -0.007260792 0)
(0.95950251 -0.0075451203 0)
(0.96271147 -0.0078007881 0)
(0.96596973 -0.0080239335 0)
(0.96926615 -0.0082107909 0)
(0.97258877 -0.008357692 0)
(0.97592467 -0.0084610611 0)
(0.97925988 -0.0085174215 0)
(0.98257935 -0.008523414 0)
(0.98586684 -0.0084758512 0)
(0.98910497 -0.0083718052 0)
(0.99227525 -0.0082087544 0)
(0.99535827 -0.0079847766 0)
(0.9983341 -0.0076988094 0)
(1.0011826 -0.00735094 0)
(1.0038843 -0.0069427487 0)
(1.0064208 -0.0064776247 0)
(1.0087758 -0.0059610964 0)
(1.010936 -0.0054010498 0)
(1.012892 -0.0048079245 0)
(1.0146388 -0.0041947035 0)
(1.0161772 -0.0035768999 0)
(1.0175137 -0.0029722534 0)
(1.0186609 -0.0024005117 0)
(1.0196376 -0.0018827918 0)
(1.0204681 -0.0014411276 0)
(1.0211812 -0.0010972602 0)
(1.021809 -0.0008718787 0)
(1.0223842 -0.00078294456 0)
(1.0229388 -0.00084626498 0)
(1.0235054 -0.0010764111 0)
(1.0241209 -0.0014851557 0)
(1.0248272 -0.0020750492 0)
(1.025661 -0.0028369348 0)
(1.0266539 -0.0037565386 0)
(1.027837 -0.0048157044 0)
(1.0292397 -0.005994133 0)
(1.0308866 -0.0072734125 0)
(1.0327975 -0.0086383555 0)
(1.0349855 -0.010078442 0)
(1.0374574 -0.011587641 0)
(1.0402133 -0.013164352 0)
(1.0432474 -0.014810262 0)
(1.0465476 -0.016530287 0)
(1.0500972 -0.018331238 0)
(1.0538728 -0.020222586 0)
(1.0578469 -0.022214737 0)
(1.0619838 -0.024321347 0)
(1.0662432 -0.026556107 0)
(1.0705717 -0.02893765 0)
(1.0749108 -0.031482325 0)
(1.079178 -0.034213881 0)
(1.0832865 -0.037146745 0)
(1.087105 -0.040305539 0)
(1.0905055 -0.043687052 0)
(1.0932781 -0.047302266 0)
(1.0952494 -0.051091466 0)
(1.0960956 -0.055023028 0)
(1.0956354 -0.058902961 0)
(1.0933973 -0.062627274 0)
(1.0893388 -0.06573003 0)
(1.082801 -0.068074868 0)
(1.0742312 -0.068656022 0)
(1.0627087 -0.067626598 0)
(1.0497149 -0.062747383 0)
(1.0343258 -0.055607865 0)
(1.0187134 -0.041071226 0)
(1.0063652 -0.024413488 0)
(0.96943041 -0.00027709499 0)
(0.9697016 -0.00017959238 0)
(0.96980567 -0.00018846531 0)
(0.97003239 -0.00014854018 0)
(0.97018729 -0.00013989285 0)
(0.97040251 -0.00011944867 0)
(0.97058909 -0.00010812915 0)
(0.97081029 -9.6172722e-05 0)
(0.97102444 -8.6641013e-05 0)
(0.97126258 -7.9160522e-05 0)
(0.97150508 -7.2671676e-05 0)
(0.97176781 -6.8838652e-05 0)
(0.97204176 -6.6145317e-05 0)
(0.97233574 -6.6198404e-05 0)
(0.97264616 -6.8000823e-05 0)
(0.97297827 -7.2835551e-05 0)
(0.97333119 -8.025331e-05 0)
(0.97370848 -9.123731e-05 0)
(0.97411069 -0.00010576358 0)
(0.97454061 -0.0001246276 0)
(0.97499969 -0.0001480673 0)
(0.97549067 -0.00017686428 0)
(0.97601558 -0.00021153959 0)
(0.97657709 -0.00025290524 0)
(0.97717761 -0.00030165704 0)
(0.97781994 -0.00035867637 0)
(0.97850678 -0.00042481119 0)
(0.9792411 -0.0005010774 0)
(0.98002584 -0.00058845244 0)
(0.98086427 -0.000688736 0)
(0.98176019 -0.00080351614 0)
(0.98271731 -0.00093364969 0)
(0.98373913 -0.0010801028 0)
(0.98482962 -0.0012439409 0)
(0.98599226 -0.0014256592 0)
(0.98722954 -0.0016259594 0)
(0.98854439 -0.0018459853 0)
(0.98994004 -0.0020866424 0)
(0.99141954 -0.0023490102 0)
(0.99298593 -0.0026332682 0)
(0.9946416 -0.0029392069 0)
(0.99638836 -0.0032662715 0)
(0.99822763 -0.003613487 0)
(1.0001605 -0.0039797503 0)
(1.0021875 -0.0043635023 0)
(1.0043087 -0.0047628646 0)
(1.0065233 -0.0051755095 0)
(1.00883 -0.0055987356 0)
(1.0112269 -0.006029443 0)
(1.0137114 -0.0064641937 0)
(1.0162801 -0.0068992355 0)
(1.0189291 -0.0073305665 0)
(1.0216542 -0.0077539844 0)
(1.0244502 -0.0081651521 0)
(1.0273117 -0.0085596532 0)
(1.030233 -0.0089330464 0)
(1.0332076 -0.0092809056 0)
(1.036229 -0.0095988495 0)
(1.0392899 -0.009882552 0)
(1.0423826 -0.01012774 0)
(1.0454987 -0.010330179 0)
(1.0486291 -0.01048565 0)
(1.0517636 -0.010589938 0)
(1.0548908 -0.010638838 0)
(1.0579982 -0.010628185 0)
(1.0610717 -0.010553952 0)
(1.064096 -0.010412382 0)
(1.0670541 -0.01020022 0)
(1.0699283 -0.0099149817 0)
(1.0727 -0.009555318 0)
(1.0753502 -0.0091213919 0)
(1.0778605 -0.0086153068 0)
(1.0802135 -0.0080414803 0)
(1.0823939 -0.0074070063 0)
(1.0843887 -0.0067218624 0)
(1.0861885 -0.0059990577 0)
(1.0877879 -0.0052545249 0)
(1.0891856 -0.0045069629 0)
(1.090385 -0.0037773506 0)
(1.0913937 -0.0030884981 0)
(1.0922235 -0.0024642385 0)
(1.0928897 -0.0019288187 0)
(1.0934104 -0.0015060096 0)
(1.0938056 -0.0012184524 0)
(1.0940976 -0.0010870182 0)
(1.0943103 -0.0011290537 0)
(1.0944678 -0.0013568513 0)
(1.0945927 -0.0017766118 0)
(1.0947041 -0.0023897991 0)
(1.0948204 -0.0031918463 0)
(1.0949607 -0.0041684321 0)
(1.0951428 -0.0052994904 0)
(1.0953837 -0.0065631275 0)
(1.0956988 -0.007938177 0)
(1.096101 -0.0094063561 0)
(1.096599 -0.010953501 0)
(1.0971974 -0.012569537 0)
(1.097895 -0.014248609 0)
(1.0986859 -0.015988243 0)
(1.0995584 -0.017789245 0)
(1.100496 -0.019654473 0)
(1.1014761 -0.021589384 0)
(1.1024719 -0.023600411 0)
(1.1034493 -0.025696722 0)
(1.1043696 -0.027887355 0)
(1.1051834 -0.030184998 0)
(1.1058369 -0.032599661 0)
(1.106258 -0.0351462 0)
(1.1063716 -0.037829799 0)
(1.1060701 -0.040661501 0)
(1.1052523 -0.043625617 0)
(1.1037581 -0.046714658 0)
(1.1014669 -0.049857442 0)
(1.0981504 -0.053004981 0)
(1.0937139 -0.055969111 0)
(1.0878529 -0.058647214 0)
(1.0806288 -0.060634102 0)
(1.0716592 -0.061835088 0)
(1.0614211 -0.061433051 0)
(1.0494743 -0.059619648 0)
(1.0370059 -0.05465785 0)
(1.0239645 -0.047763926 0)
(1.0116523 -0.035249618 0)
(1.0034071 -0.020197923 0)
(1.0074291 -0.00039343206 0)
(1.0077591 -0.00030926029 0)
(1.0078961 -0.00032255824 0)
(1.0081776 -0.00028937394 0)
(1.0083831 -0.00028783469 0)
(1.0086592 -0.00027452125 0)
(1.0089093 -0.00027156379 0)
(1.0092001 -0.000267616 0)
(1.0094881 -0.0002674967 0)
(1.0098052 -0.00026964966 0)
(1.0101319 -0.0002740899 0)
(1.010484 -0.00028172446 0)
(1.0108531 -0.0002917415 0)
(1.0112477 -0.00030541103 0)
(1.0116646 -0.00032209405 0)
(1.012109 -0.00034285592 0)
(1.0125803 -0.0003674466 0)
(1.0130822 -0.00039676645 0)
(1.0136153 -0.0004309227 0)
(1.0141826 -0.00047077037 0)
(1.0147856 -0.00051674548 0)
(1.0154271 -0.00056968598 0)
(1.0161091 -0.00063022364 0)
(1.0168341 -0.00069926887 0)
(1.0176046 -0.000777659 0)
(1.0184232 -0.00086639779 0)
(1.0192925 -0.00096647586 0)
(1.0202152 -0.0010789475 0)
(1.0211941 -0.0012048754 0)
(1.0222321 -0.0013451922 0)
(1.0233313 -0.0015009194 0)
(1.0244943 -0.001673285 0)
(1.0257236 -0.001863494 0)
(1.0270215 -0.0020727238 0)
(1.0283904 -0.0023025461 0)
(1.0298326 -0.0025540393 0)
(1.0313502 -0.0028275622 0)
(1.0329449 -0.0031234704 0)
(1.0346179 -0.0034418023 0)
(1.03637 -0.0037825542 0)
(1.0382018 -0.0041455384 0)
(1.0401135 -0.0045301609 0)
(1.0421049 -0.0049353131 0)
(1.0441754 -0.005359493 0)
(1.0463241 -0.0058008119 0)
(1.0485493 -0.0062569832 0)
(1.050849 -0.0067253094 0)
(1.0532207 -0.0072027082 0)
(1.0556614 -0.0076857235 0)
(1.0581679 -0.0081705777 0)
(1.0607363 -0.0086532103 0)
(1.0633627 -0.0091293423 0)
(1.0660427 -0.0095945288 0)
(1.0687719 -0.010044222 0)
(1.0715455 -0.010473815 0)
(1.0743589 -0.010878688 0)
(1.0772069 -0.011254221 0)
(1.0800842 -0.011595805 0)
(1.0829853 -0.011898818 0)
(1.085904 -0.0121586 0)
(1.0888334 -0.012370409 0)
(1.0917659 -0.01252939 0)
(1.0946926 -0.012630549 0)
(1.0976034 -0.012668776 0)
(1.1004865 -0.012638913 0)
(1.1033288 -0.012535892 0)
(1.1061154 -0.012354955 0)
(1.1088301 -0.012091955 0)
(1.1114556 -0.011743737 0)
(1.1139736 -0.011308583 0)
(1.1163658 -0.010786683 0)
(1.1186144 -0.010180623 0)
(1.1207026 -0.0094957913 0)
(1.1226154 -0.0087407443 0)
(1.1243405 -0.0079273686 0)
(1.1258683 -0.0070709579 0)
(1.1271929 -0.0061899929 0)
(1.1283122 -0.0053058604 0)
(1.1292273 -0.0044422256 0)
(1.1299433 -0.0036244614 0)
(1.1304683 -0.0028787001 0)
(1.130813 -0.0022311344 0)
(1.1309903 -0.0017068682 0)
(1.1310145 -0.0013292775 0)
(1.1309001 -0.0011188755 0)
(1.1306617 -0.001093051 0)
(1.1303128 -0.0012651478 0)
(1.1298659 -0.001642894 0)
(1.1293328 -0.0022263544 0)
(1.1287226 -0.0030068926 0)
(1.1280434 -0.0039696511 0)
(1.1273043 -0.0050951772 0)
(1.1265161 -0.0063614979 0)
(1.1256896 -0.0077473396 0)
(1.1248351 -0.0092332529 0)
(1.123961 -0.010802999 0)
(1.1230731 -0.012443993 0)
(1.1221736 -0.014147653 0)
(1.121261 -0.015908527 0)
(1.1203293 -0.017724372 0)
(1.1193686 -0.019595007 0)
(1.118364 -0.02152261 0)
(1.1172968 -0.023510237 0)
(1.1161424 -0.025563041 0)
(1.1148727 -0.027685645 0)
(1.1134507 -0.029884978 0)
(1.1118366 -0.032164686 0)
(1.1099758 -0.03453103 0)
(1.1078135 -0.036980439 0)
(1.1052697 -0.039512226 0)
(1.1022735 -0.042101036 0)
(1.0987107 -0.044726518 0)
(1.0945062 -0.047312418 0)
(1.0895061 -0.049801026 0)
(1.083675 -0.052014693 0)
(1.0768207 -0.053851612 0)
(1.0690483 -0.054950338 0)
(1.0601311 -0.055218762 0)
(1.0504796 -0.053962248 0)
(1.039865 -0.05132315 0)
(1.0291197 -0.045978509 0)
(1.0184341 -0.03885454 0)
(1.0085127 -0.027761654 0)
(1.0022178 -0.014822492 0)
(1.0267543 -0.00053050574 0)
(1.0271312 -0.00046553486 0)
(1.0272909 -0.00048438599 0)
(1.0276144 -0.00046171991 0)
(1.0278561 -0.00046878182 0)
(1.0281769 -0.00046495365 0)
(1.0284721 -0.00047247999 0)
(1.028813 -0.00047957706 0)
(1.0291541 -0.00049192406 0)
(1.0295284 -0.00050715423 0)
(1.029916 -0.00052604532 0)
(1.0303329 -0.00054895533 0)
(1.0307709 -0.00057554809 0)
(1.0312386 -0.00060675001 0)
(1.0317328 -0.00064224267 0)
(1.0322588 -0.00068296305 0)
(1.0328162 -0.00072887153 0)
(1.0334085 -0.00078082156 0)
(1.0340367 -0.00083905202 0)
(1.0347036 -0.00090436809 0)
(1.0354109 -0.00097724231 0)
(1.036161 -0.0010585111 0)
(1.0369561 -0.0011488454 0)
(1.0377984 -0.0012491417 0)
(1.0386902 -0.0013602346 0)
(1.0396339 -0.0014831073 0)
(1.0406317 -0.0016187365 0)
(1.0416859 -0.0017682288 0)
(1.0427986 -0.0019326873 0)
(1.0439721 -0.0021134565 0)
(1.0452086 -0.0023117525 0)
(1.04651 -0.0025285653 0)
(1.0478783 -0.0027648564 0)
(1.0493151 -0.0030215056 0)
(1.0508218 -0.0032992023 0)
(1.0523993 -0.0035986128 0)
(1.0540483 -0.00392037 0)
(1.0557694 -0.004264882 0)
(1.057563 -0.0046324039 0)
(1.0594291 -0.0050226813 0)
(1.0613671 -0.0054351043 0)
(1.0633761 -0.0058686672 0)
(1.0654549 -0.0063219413 0)
(1.0676017 -0.0067931762 0)
(1.0698146 -0.0072801875 0)
(1.0720909 -0.007780426 0)
(1.0744279 -0.0082909286 0)
(1.0768224 -0.0088083773 0)
(1.0792709 -0.0093291065 0)
(1.0817696 -0.0098491652 0)
(1.0843147 -0.010364356 0)
(1.086902 -0.010870301 0)
(1.0895273 -0.011362487 0)
(1.0921864 -0.011836316 0)
(1.0948749 -0.01228714 0)
(1.0975883 -0.012710276 0)
(1.1003221 -0.013101002 0)
(1.1030714 -0.013454529 0)
(1.1058308 -0.013765958 0)
(1.1085946 -0.01403022 0)
(1.111356 -0.014242019 0)
(1.1141073 -0.014395789 0)
(1.1168398 -0.01448568 0)
(1.1195429 -0.014505606 0)
(1.122205 -0.014449353 0)
(1.1248125 -0.014310794 0)
(1.1273507 -0.014084171 0)
(1.1298033 -0.013764502 0)
(1.1321533 -0.013348037 0)
(1.134383 -0.012832799 0)
(1.136475 -0.012219107 0)
(1.1384123 -0.011510116 0)
(1.1401796 -0.010712222 0)
(1.1417632 -0.0098354065 0)
(1.1431521 -0.0088933346 0)
(1.1443379 -0.0079033473 0)
(1.1453158 -0.0068861216 0)
(1.1460838 -0.0058652725 0)
(1.1466434 -0.0048665919 0)
(1.1469988 -0.0039173609 0)
(1.1471567 -0.0030453245 0)
(1.1471256 -0.0022779041 0)
(1.1469155 -0.0016411331 0)
(1.1465368 -0.0011589322 0)
(1.1459997 -0.00085219602 0)
(1.1453139 -0.00073749273 0)
(1.1444879 -0.00082600656 0)
(1.143528 -0.0011231397 0)
(1.1424386 -0.0016279305 0)
(1.1412237 -0.0023330366 0)
(1.1398889 -0.0032242202 0)
(1.1384409 -0.0042831584 0)
(1.1368877 -0.0054891623 0)
(1.1352386 -0.0068208142 0)
(1.1335036 -0.0082580326 0)
(1.1316924 -0.0097838346 0)
(1.1298131 -0.011384043 0)
(1.1278715 -0.01304783 0)
(1.125871 -0.014767365 0)
(1.1238111 -0.016537781 0)
(1.1216883 -0.018356185 0)
(1.1194948 -0.020222006 0)
(1.1172197 -0.022135578 0)
(1.1148467 -0.024099105 0)
(1.1123565 -0.02611433 0)
(1.1097227 -0.028184669 0)
(1.1069162 -0.03031038 0)
(1.1038965 -0.032493132 0)
(1.1006233 -0.034725367 0)
(1.0970368 -0.037000593 0)
(1.0930864 -0.039290068 0)
(1.0886878 -0.041567851 0)
(1.0837916 -0.043759486 0)
(1.0782875 -0.045806398 0)
(1.0721641 -0.047548898 0)
(1.0652901 -0.048895652 0)
(1.0577703 -0.049540297 0)
(1.0494696 -0.049409272 0)
(1.0407273 -0.047941353 0)
(1.0314774 -0.045249114 0)
(1.0223454 -0.040323373 0)
(1.013721 -0.033797139 0)
(1.0060273 -0.024178623 0)
(1.0014105 -0.012716939 0)
(1.0357934 -0.00068242742 0)
(1.0362037 -0.00063866489 0)
(1.0363762 -0.00066345344 0)
(1.0367281 -0.00065380398 0)
(1.0369918 -0.00067114143 0)
(1.0373419 -0.00067949635 0)
(1.0376659 -0.00069944152 0)
(1.0380396 -0.00071967625 0)
(1.0384148 -0.00074618724 0)
(1.0388261 -0.00077630058 0)
(1.0392528 -0.00081129069 0)
(1.0397115 -0.00085118174 0)
(1.0401938 -0.00089602323 0)
(1.0407082 -0.00094653944 0)
(1.041252 -0.0010026586 0)
(1.0418301 -0.0010651958 0)
(1.0424423 -0.0011342591 0)
(1.0430921 -0.0012106514 0)
(1.0437805 -0.0012947123 0)
(1.0445102 -0.0013872573 0)
(1.0452828 -0.001488841 0)
(1.0461008 -0.0016003102 0)
(1.0469662 -0.0017223876 0)
(1.0478811 -0.0018559858 0)
(1.0488476 -0.0020019693 0)
(1.049868 -0.002161316 0)
(1.0509442 -0.0023349852 0)
(1.0520784 -0.0025239853 0)
(1.0532723 -0.0027293081 0)
(1.0545279 -0.0029519309 0)
(1.0558466 -0.0031928498 0)
(1.0572299 -0.0034530775 0)
(1.0586791 -0.0037335862 0)
(1.0601953 -0.004035268 0)
(1.0617794 -0.0043590022 0)
(1.063432 -0.0047053737 0)
(1.0651535 -0.0050746063 0)