/*--------------------------------*- C++ -*----------------------------------*\
| =========                 |                                                 |
| \\      /  F ield         | foam-extend: Open Source CFD                    |
|  \\    /   O peration     | Version:     4.1                                |
|   \\  /    A nd           | Web:         http://www.foam-extend.org         |
|    \\/     M anipulation  |                                                 |
\*---------------------------------------------------------------------------*/
FoamFile
{
    version     2.0;
    format      ascii;
    class       volScalarField;
    location    "1.6";
    object      p;
}
// * * * * * * * * * * * * * * * * * * * * * * * * * * * * * * * * * * * * * //

dimensions      [0 2 -2 0 0 0 0];

internalField   nonuniform List<scalar> 
4393
(
-46.422057
-92.986583
-146.75331
-201.54628
-258.53905
-318.04226
-380.43885
-446.03836
-515.065
-587.62887
-663.69788
-743.06952
-825.3456
-909.91342
-995.93764
-1082.3656
-1167.9466
-1251.2633
-1330.7687
-1404.8253
-1471.7421
-1529.8088
-1577.3311
-1612.6712
-1634.302
-1640.8805
-1631.3525
-1605.0983
-1562.011
-1502.591
-1428.0494
-1340.2917
-1241.8122
-1135.5113
-1024.4695
-911.72124
-800.0659
-691.93603
-589.32864
-493.79186
-406.45304
-328.07324
-259.11295
-199.79801
-150.18976
-110.25721
-79.781012
-57.850641
-43.64657
-45.169884
-92.400748
-146.04071
-200.68246
-257.5061
-316.85454
-379.1243
-444.63701
-513.62873
-586.22162
-662.39518
-741.95698
-824.51587
-909.46164
-995.95572
-1082.9364
-1169.1395
-1253.131
-1333.3471
-1408.1346
-1475.7875
-1534.5812
-1582.8045
-1618.7982
-1641.0061
-1648.0517
-1638.8455
-1612.693
-1569.4236
-1509.5308
-1434.2315
-1345.4659
-1245.7941
-1138.2022
-1025.8607
-911.88404
-799.13164
-690.07269
-586.71865
-490.61428
-402.87124
-324.22802
-255.12248
-195.76763
-146.21633
-106.37723
-75.979481
-54.88112
-44.283176
-44.365628
-91.50401
-144.78245
-199.06342
-255.53625
-314.57346
-376.59371
-441.94089
-510.8742
-583.5395
-659.93914
-739.9003
-823.04518
-908.7674
-996.22046
-1084.3227
-1171.7805
-1257.1252
-1338.7585
-1414.995
-1484.1004
-1544.3219
-1593.9162
-1631.181
-1654.4994
-1662.4151
-1653.7501
-1627.7266
-1584.0825
-1523.2393
-1446.4082
-1355.5987
-1253.5076
-1143.2993
-1028.3305
-911.87896
-796.92413
-686.00564
-581.15906
-483.91658
-395.35228
-316.15298
-246.70273
-187.17089
-137.56683
-97.705191
-67.275976
-46.721628
-37.939329
-43.574895
-90.208255
-142.87873
-196.58119
-252.51
-311.06631
-372.6976
-437.77973
-506.6067
-579.36089
-656.08045
-736.62402
-820.63588
-907.51716
-996.41019
-1086.203
-1175.5562
-1262.9479
-1346.7266
-1425.1594
-1496.4712
-1558.8703
-1610.5693
-1649.8051
-1674.8725
-1684.193
-1676.4424
-1650.6917
-1606.5308
-1544.2745
-1465.1207
-1371.1852
-1265.3816
-1151.1592
-1032.1709
-911.95093
-793.66488
-679.95815
-572.89901
-473.99586
-384.26153
-304.30212
-234.41789
-174.70296
-125.09167
-85.309039
-55.040753
-34.953385
-26.809491
-42.749775
-88.590842
-140.40834
-193.3065
-248.4873
-306.38273
-367.47576
-432.18376
-500.84734
-573.69876
-650.826
-732.13224
-817.29403
-905.7245
-996.55121
-1088.6193
-1180.5242
-1270.6683
-1357.3259
-1438.7008
-1512.9655
-1578.2824
-1632.8114
-1674.7148
-1702.175
-1713.4513
-1707.0179
-1681.7252
-1636.9374
-1572.8014
-1490.4816
-1392.2387
-1281.2984
-1161.5238
-1036.9943
-911.60791
-788.78664
-671.31447
-561.29395
-460.18953
-368.92074
-287.97695
-217.53943
-157.59308
-107.9706
-68.314754
-38.318813
-18.703043
-10.946867
-41.741208
-86.541649
-137.25978
-189.12263
-243.34106
-300.38224
-360.7719
-424.97923
-493.40444
-566.34493
-643.95506
-726.1989
-812.79884
-903.18713
-996.47363
-1091.446
-1186.6106
-1280.2664
-1370.5894
-1455.7027
-1533.7185
-1602.7495
-1660.9004
-1706.2503
-1736.8458
-1750.7415
-1746.1436
-1721.5995
-1676.1516
-1609.6918
-1523.3125
-1419.4609
-1301.7944
-1174.754
-1043.0089
-910.94891
-782.33073
-660.10625
-546.40397
-442.61206
-349.51266
-267.43165
-196.38643
-136.21111
-86.604276
-47.109235
-17.38841
1.8750457
9.4136321
-40.599296
-84.131931
-133.49788
-184.0787
-237.0986
-293.06584
-352.55671
-416.10295
-484.17852
-557.16317
-635.29712
-718.62557
-806.93476
-899.68701
-995.97267
-1094.5043
-1193.6685
-1291.6258
-1386.4242
-1476.0886
-1558.6656
-1632.223
-1694.8169
-1744.4437
-1778.9992
-1796.2903
-1794.1787
-1770.807
-1724.7667
-1655.566
-1564.1566
-1453.214
-1326.983
-1190.699
-1049.8317
-909.41981
-773.64088
-645.63749
-527.54132
-420.61599
-325.44864
-242.14521
-170.50902
-110.1817
-60.698131
-21.480254
7.8836183
26.802582
34.169608
-39.189811
-81.2103
-128.96312
-178.0102
-229.58768
-284.25016
-342.63204
-405.33893
-472.9339
-545.8986
-624.58226
-709.13649
-799.43554
-894.9883
-994.86567
-1097.6831
-1201.6668
-1304.7919
-1404.9402
-1500.0191
-1588.0097
-1666.9487
-1734.8632
-1789.6804
-1829.1393
-1850.7593
-1851.9711
-1830.3896
-1783.9829
-1711.6863
-1614.1922
-1494.4431
-1357.48
-1209.629
-1057.439
-906.79224
-762.38042
-627.54526
-504.37507
-393.93585
-296.54109
-212.00488
-139.85648
-79.49896
-30.272375
8.545194
37.468747
56.021774
63.226289
-37.657266
-77.935667
-123.80351
-171.0414
-220.90084
-273.98833
-331.00393
-392.63881
-459.56208
-532.37983
-611.57827
-697.44766
-789.98354
-888.76715
-992.85465
-1100.7376
-1210.4268
-1319.6483
-1426.0675
-1527.4524
-1621.7259
-1706.9217
-1781.0747
-1842.0749
-1887.5133
-1914.5889
-1920.2054
-1901.2991
-1854.9861
-1779.35
-1674.6206
-1544.0354
-1393.72
-1231.5087
-1065.4066
-902.38418
-747.74424
-605.01206
-476.15154
-361.92507
-262.26812
-176.61369
-104.14705
-43.98181
4.7711178
43.002154
71.352305
89.471016
96.493585
-35.752641
-74.009523
-117.69865
-162.84
-210.69237
-261.91698
-317.2859
-377.58739
-443.61472
-516.12406
-595.77177
-683.02714
-778.05193
-880.53857
-989.54056
-1103.3917
-1219.8106
-1336.1819
-1449.8857
-1558.5248
-1659.9818
-1752.3341
-1833.6861
-1901.9488
-1954.5987
-1988.4933
-1999.9103
-1984.9268
-1939.5102
-1860.4827
-1747.2691
-1603.3965
-1436.4859
-1256.4838
-1073.3706
-895.5113
-728.91073
-577.2194
-442.14353
-323.99024
-222.1798
-135.65485
-63.17729
-3.5178287
44.475131
81.881658
109.4838
127.06459
133.86805
-33.802471
-69.810895
-111.03438
-153.77628
-199.30522
-248.33996
-301.72962
-360.37028
-425.19814
-497.14812
-577.08588
-665.71014
-763.40986
-870.04849
-984.70407
-1105.5131
-1229.7947
-1354.4611
-1476.5109
-1593.3541
-1702.8678
-1803.2479
-1892.7613
-1969.434
-2030.6917
-2073.0515
-2092.0739
-2082.7593
-2039.5507
-1957.4142
-1834.3919
-1674.2187
-1486.6102
-1284.5255
-1080.6442
-885.10814
-704.6879
-543.02951
-401.37145
-279.35248
-175.69952
-88.733129
-16.702873
42.018382
88.875701
125.1547
151.78622
168.69152
175.22403
-31.326548
-64.752921
-103.17033
-143.17528
-186.02813
-232.50288
-283.52834
-340.11809
-403.37099
-474.43333
-554.42676
-644.3422
-744.8783
-856.16098
-977.34666
-1106.3296
-1239.874
-1374.2233
-1505.8512
-1631.9385
-1750.4137
-1859.6982
-1958.3533
-2044.6625
-2116.1155
-2168.928
-2197.884
-2196.6511
-2157.6917
-2073.2855
-1939.1113
-1758.8571
-1545.2281
-1315.5809
-1086.3133
-869.81023
-673.60429
-501.08962
-352.71522
-227.15739
-122.22354
-35.457723
35.497808
92.720381
137.97312
172.75524
198.14648
214.20786
220.40515
-28.939181
-59.57952
-94.904307
-131.85489
-171.68524
-215.22241
-263.47438
-317.57818
-378.81272
-448.56916
-528.27683
-619.29196
-722.72845
-839.10946
-967.76844
-1106.3108
-1250.721
-1396.2771
-1538.721
-1674.9705
-1803.1133
-1921.9649
-2030.5725
-2127.6874
-2211.0544
-2276.6747
-2318.4935
-2328.6235
-2297.0457
-2212.1459
-2065.6095
-1860.4483
-1613.7192
-1349.3841
-1088.9956
-847.72984
-633.73254
-449.70867
-294.83582
-166.4298
-61.097946
24.566388
93.623641
148.64506
191.7251
224.57335
248.40917
263.43021
269.21715
-25.837949
-53.297746
-85.139301
-118.64125
-155.01844
-195.13938
-240.08532
-291.1189
-349.7149
-417.54647
-496.41209
-588.12237
-694.34559
-816.20838
-953.40941
-1103.2429
-1260.5921
-1419.3187
-1574.1204
-1721.614
-1860.2154
-1989.3578
-2108.7983
-2218.0227
-2315.3137
-2396.626
-2455.0452
-2480.9642
-2461.4413
-2379.3651
-2219.7092
-1983.3705
-1693.851
-1385.3849
-1086.6879
-816.32391
-582.61457
-386.83799
-226.1936
-96.110301
8.3403848
91.701298
157.82071
209.79002
250.0306
280.444
302.36852
316.129
321.42155
-22.992036
-47.109848
-75.200047
-104.9385
-137.50187
-173.79141
-214.95289
-262.37108
-317.72616
-383.00751
-460.44715
-552.4045
-661.26239
-789.03821
-936.11613
-1099.4961
-1272.4671
-1446.743
-1615.4772
-1774.9492
-1924.206
-2063.6524
-2194.0736
-2316.0899
-2429.0136
-2529.0967
-2608.6061
-2656.1069
-2655.4491
-2582.0306
-2409.6211
-2133.8432
-1787.8404
-1422.5054
-1076.4328
-772.12989
-517.10584
-310.00842
-145.04451
-15.080987
86.728647
166.24218
228.15394
276.07188
312.71414
340.13621
359.76089
372.02268
376.73029
-19.237639
-39.570083
-63.489365
-89.035571
-117.29416
-149.1716
-185.85472
-228.83163
-279.98211
-341.6376
-416.53252
-507.6792
-618.35998
-751.89466
-909.93479
-1089.3677
-1281.1987
-1473.8719
-1658.2686
-1830.3717
-1990.4302
-2140.3539
-2282.2749
-2418.3394
-2549.4875
-2672.6951
-2779.407
-2856.3357
-2884.3581
-2829.4868
-2647.1807
-2321.0324
-1898.4802
-1458.8019
-1053.8675
-710.45004
-433.22606
-216.30491
-49.480803
77.770968
174.61559
248.36598
304.56909
347.29986
379.50841
403.34198
420.25768
430.77299
434.80183
-15.91312
-32.371002
-51.894538
-72.952678
-96.536288
-123.54007
-155.17341
-193.01103
-239.12467
-296.21458
-367.60076
-457.06345
-568.96361
-708.44922
-879.40975
-1079.1002
-1295.1693
-1510.8637
-1713.5281
-1898.86
-2069.2153
-2228.7286
-2381.1119
-2530.4343
-2680.3191
-2829.5222
-2969.0859
-3084.2438
-3154.0065
-3133.9251
-2949.8841
-2559.0981
-2029.2503
-1490.8733
-1012.516
-624.9177
-325.99423
-102.37369
62.486128
183.45527
272.37657
338.06769
386.84891
423.14765
450.03714
469.66647
483.4601
491.98204
495.23911
-11.487308
-23.594661
-38.299277
-54.44454
-72.855513
-94.372321
-120.18102
-151.88845
-191.69671
-242.63896
-308.66118
-394.39348
-505.37266
-649.15984
-833.48958
-1057.2176
-1303.1416
-1546.175
-1768.2607
-1965.0986
-2143.0559
-2309.9173
-2471.2891
-2633.5519
-2804.6498
-2986.6696
-3170.2387
-3338.386
-3469.7975
-3511.158
-3344.0481
-2870.7262
-2184.0901
-1512.8356
-942.72685
-506.95662
-189.29993
35.485303
192.76397
302.72616
380.09749
435.08178
474.56415
503.12476
523.79965
538.62049
548.89622
555.19186
557.58998
-7.5489944
-15.402171
-25.218335
-36.277809
-49.214894
-64.776278
-84.078922
-108.71088
-140.94732
-184.12833
-242.92533
-323.0111
-431.18659
-578.01567
-777.65986
-1033.4009
-1321.0363
-1601.4697
-1848.0733
-2056.8305
-2241.4103
-2415.2736
-2585.395
-2759.4438
-2951.3683
-3168.6716
-3401.7103
-3630.5319
-3839.8051
-3979.3317
-3867.9179
-3294.0464
-2367.81
-1515.4171
-830.2762
-345.15734
-15.880774
201.07808
342.90316
435.86239
497.42668
538.79235
567.02344
586.55103
600.15945
609.61698
616.02157
619.88699
621.35041
-2.4967655
-5.6579474
-10.108836
-15.57851
-22.450965
-31.349745
-43.282696
-59.759828
-83.025249
-116.58204
-165.77427
-237.38828
-339.21238
-484.68442
-697.78505
-992.15589
-1333.9517
-1659.8388
-1930.3198
-2142.3236
-2323.2469
-2495.6494
-2666.7425
-2843.0553
-3048.8501
-3303.024
-3598.9294
-3914.0385
-4241.2551
-4553.0778
-4582.9005
-3903.3795
-2589.2435
-1483.1825
-653.41615
-124.35001
202.49402
397.82554
513.65591
582.36692
623.39804
648.13964
663.22893
672.53893
678.34021
681.97338
684.22437
685.50083
685.97124
2.9570682
3.9714804
4.5438893
4.3693713
3.3828004
1.1489843
-3.1270225
-10.732084
-23.661518
-45.271618
-81.38718
-140.14867
-230.29818
-367.42086
-589.93186
-935.03126
-1358.0819
-1750.9967
-2055.1744
-2267.1443
-2440.0483
-2611.6171
-2788.5236
-2969.2519
-3193.739
-3499.8389
-3883.1125
-4312.9047
-4763.7253
-5291.3548
-5573.6637
-4825.2389
-2837.2246
-1376.2039
-376.91525
174.90105
474.1299
627.80732
704.30755
740.58491
756.24114
761.53788
761.84829
759.99017
757.43233
754.92156
752.83606
751.42604
750.86839
8.2846549
13.264451
19.321547
25.154753
31.016213
36.672327
41.588627
44.75585
44.502776
37.792219
18.443924
-23.551074
-98.164836
-220.12677
-443.97413
-853.57536
-1397.5552
-1876.8122
-2211.1028
-2393.1169
-2530.6421
-2685.763
-2862.6624
-3027.5798
-3238.3814
-3573.3332
-4023.4927
-4561.5165
-5089.5006
-5960.167
-6823.544
-6299.3676
-3073.9217
-1170.9129
36.510693
572.63963
804.98539
890.14003
911.76096
907.27597
893.21575
876.83021
861.21738
847.61388
836.41373
827.62691
821.14786
817.02903
815.43662
17.843085
25.860271
36.761301
47.71829
59.414326
71.798427
84.628204
97.255056
108.5193
116.23421
114.96673
93.714393
41.614865
-49.535535
-244.65741
-715.21292
-1442.1958
-2034.1581
-2413.8985
-2545.9788
-2643.3388
-2787.3355
-2981.9375
-3113.3407
-3276.31
-3677.5066
-4224.1215
-4961.4354
-5679.0715
-7242.633
-8881.8885
-9068.1631
-3578.0126
-1038.1789
635.18646
1099.0656
1197.315
1178.9383
1129.4831
1077.242
1030.5395
991.31746
959.39122
933.97375
914.18747
899.21716
888.43308
881.6684
879.06636
22.156827
30.897586
46.137397
62.237198
80.169108
100.1047
122.28778
146.74325
173.25899
201.23726
227.41899
240.72186
225.96842
180.36555
45.47925
-483.28306
-1555.5787
-2312.3066
-2774.4734
-2771.087
-2750.0094
-2813.3137
-3022.3179
-3099.5242
-3206.6159
-3763.1454
-4232.7302
-5184.9048
-6470.5422
-7863.1845
-9588.9116
-12103.317
-4823.1196
-72.501917
1722.8012
1811.9405
1641.0952
1478.7107
1346.1786
1243.1514
1163.5045
1101.9032
1054.2577
1017.5677
989.63614
968.82001
953.97428
944.716
941.16268
36.947632
46.536156
66.461437
87.314094
110.74747
137.07661
166.90616
200.72154
238.86503
281.67015
327.59009
365.37669
371.84157
347.28766
293.86461
-190.94844
-1818.5204
-2618.0156
-3116.6049
-2772.3772
-2627.5627
-2733.1441
-3131.581
-3270.1655
-3301.616
0
0
0
0
0
0
0
0
6202.3214
3402.3937
2582.4359
2068.1799
1755.8014
1545.0675
1396.0308
1286.9439
1205.3975
1143.7203
1096.9377
1061.6895
1035.6067
1017.093
1005.5794
1001.165
35.383221
42.188814
64.032915
87.077811
113.20616
142.73956
176.57792
215.67423
261.07182
314.42267
377.59353
445.99896
502.80069
560.83528
710.89467
553.264
-1997.2791
-2778.1015
-3649.2422
-2968.5573
-3044.8129
-3012.6486
0
0
0
0
0
0
0
0
0
0
10129.447
6286.1409
4123.8696
3000.2496
2361.2436
1969.1118
1708.9849
1527.5001
1396.2236
1298.9811
1225.9312
1170.7946
1129.3964
1098.8363
1077.1794
1063.7238
1058.5663
44.276219
54.954117
80.953234
106.97956
136.15532
169.03601
206.87507
251.1034
303.506
367.08365
447.13041
546.116
653.30791
754.41262
842.40645
568.62896
-3109.271
-3582.6477
-3205.8184
0
0
0
0
0
0
0
0
0
0
0
1780.4864
3364.4123
5755.9633
5235.9718
3961.284
3100.0826
2507.0647
2107.6665
1830.5838
1632.9237
1488.363
1380.6652
1299.5049
1238.1294
1191.9877
1157.8943
1133.7176
1118.6906
1112.9296
22.192963
42.173785
66.378514
91.291443
118.75739
149.5505
184.7446
225.50465
273.12949
329.82574
399.49744
478.01135
537.47145
536.09478
557.92669
702.87389
0
0
0
0
0
0
-1132.2764
-1103.7225
-1011.4982
-917.74495
-790.27154
-495.48346
-95.130273
696.90356
2026.2581
3361.7402
4750.8424
4489.7338
3714.6957
3058.5924
2552.5796
2182.1402
1911.3695
1711.5882
1562.2835
1449.4625
1363.6241
1298.2775
1248.9166
1212.3191
1186.3046
1170.1122
1163.9006
19.952753
50.025389
74.973302
100.54538
127.96135
158.05442
191.47498
228.65758
269.56141
313.40347
357.88054
396.54111
406.11062
337.98275
141.82412
-338.2921
-1284.8691
-1227.8394
-1147.4051
-1100.743
-1051.3197
-1021.8332
-1010.5819
-803.49981
-838.88465
-583.37445
-362.53178
-204.80094
258.90343
904.67916
1960.1238
3049.1635
3956.4225
3851.7702
3404.1864
2933.4967
2528.3698
2205.9299
1956.6229
1765.3446
1618.4536
1505.3076
1418.0337
1350.9307
1299.8726
1261.8143
1234.6598
1217.7202
1211.2158
20.665616
46.489977
72.124754
97.975121
125.28789
154.81439
187.13579
222.61872
261.24956
302.12043
342.01522
373.70816
384.78014
353.10064
205.14771
-228.03806
-792.58482
-921.24299
-962.81815
-966.40328
-888.04031
-842.54569
-818.75692
-691.99935
-621.136
-417.72583
-179.32348
77.566679
510.71451
1096.2973
1896.0226
2721.4329
3334.7435
3356.6986
3105.5414
2777.0381
2463.2606
2193.7196
1973.5118
1797.5967
1658.4348
1548.8664
1462.9638
1396.1068
1344.7709
1306.246
1278.6267
1261.3476
1254.705
14.995396
36.228909
58.793923
81.285727
104.28257
128.02361
152.51429
177.39466
201.76254
223.65407
238.85182
240.12197
218.16725
159.10765
14.95234
-284.07634
-607.1427
-732.71465
-784.76268
-794.51983
-753.34882
-703.68978
-642.4405
-537.95988
-424.0772
-238.42766
-11.677842
269.70912
668.43822
1187.5565
1823.0822
2450.7447
2889.3798
2966.9296
2834.8541
2612.8926
2376.0807
2157.5817
1969.0989
1812.3
1684.3898
1581.2962
1499.0129
1434.0932
1383.7247
1345.6295
1318.1657
1300.9261
1294.2895
23.84036
46.446359
70.190187
93.654555
117.54011
141.95378
166.71505
191.19509
214.07484
232.78717
242.64737
236.62077
205.92116
135.30775
-7.3737517
-236.70721
-460.35964
-580.02785
-635.60768
-644.76077
-616.04788
-568.49902
-497.47992
-394.65249
-264.53568
-83.114019
138.98473
415.94166
776.85929
1223.6095
1735.3535
2221.5965
2557.0905
2658.4306
2599.5028
2454.7351
2280.0739
2107.0249
1949.6568
1813.3801
1698.7086
1604.0278
1527.0253
1465.3784
1417.0071
1380.1077
1353.3417
1336.4776
1329.9756
12.022535
29.923568
50.025497
70.025919
90.027475
109.90936
129.36329
147.71827
163.72533
175.13923
178.26245
167.99583
137.55687
74.554662
-40.176462
-203.66055
-358.9921
-456.94859
-506.28588
-514.44015
-489.13344
-440.20428
-365.88246
-262.78882
-128.72139
46.786196
261.68106
525.02195
849.5098
1232.1778
1648.4824
2032.659
2301.8104
2411.4535
2398.0065
2308.4222
2183.053
2048.8503
1920.291
1804.3736
1703.7426
1618.5893
1547.9806
1490.5844
1445.01
1409.9258
1384.3083
1368.1034
1361.8454
21.40789
40.630762
60.849898
80.360411
99.442579
117.8281
135.00318
150.07522
161.59525
167.28121
163.89239
147.48246
112.99919
52.173902
-43.677745
-165.76199
-279.17423
-356.31054
-395.88291
-400.65156
-375.38128
-324.91665
-248.86134
-145.46588
-11.953141
156.61773
360.88861
605.85567
895.7899
1224.2589
1567.7149
1878.3627
2101.8595
2212.0578
2227.0245
2176.6456
2089.735
1987.9646
1885.0015
1788.2954
1701.6501
1626.4814
1562.9048
1510.4068
1468.204
1435.4044
1411.2892
1395.9706
1390.0449
11.862305
27.963352
45.951017
63.599041
80.803623
97.21017
112.2894
125.1885
134.57632
138.46038
134.16556
118.48773
87.416808
35.578145
-40.122382
-130.57287
-213.68513
-272.00444
-301.03043
-300.81135
-273.64746
-221.818
-145.21357
-42.689665
87.819135
248.7372
440.84612
666.13682
924.41478
1207.5797
1495.0275
1752.019
1942.4915
2049.6342
2082.3525
2059.8218
2002.5678
1927.5284
1846.7488
1767.5949
1694.3159
1629.0978
1572.8056
1525.5661
1487.1037
1456.9151
1434.5603
1420.2984
1414.7718
17.139535
33.232933
50.211921
66.352538
81.697439
95.864606
108.30121
118.18734
124.34073
125.13417
118.55054
102.28888
73.604052
29.523506
-30.107418
-97.51831
-158.2886
-200.62622
-219.5568
-213.71061
-183.73564
-130.52092
-53.940624
46.786236
172.93421
325.60843
505.01019
711.0853
941.26127
1187.0056
1431.0838
1648.1694
1813.7963
1916.3643
1960.0953
1957.3805
1922.8492
1869.5883
1807.7341
1744.2117
1683.3312
1627.6825
1578.6288
1536.7709
1502.2389
1474.8583
1454.4328
1441.3436
1436.2625
11.963841
26.359492
42.09377
57.201634
71.51583
84.608356
95.924032
104.68953
109.85249
110.05882
103.73745
89.200883
64.670008
28.805353
-17.136414
-66.835552
-110.39567
-139.38525
-149.15854
-137.72012
-104.71909
-50.251564
25.896563
124.22894
245.37815
389.62039
556.48528
744.62901
950.31385
1165.3228
1375.5575
1562.3968
1708.7921
1806.3204
1856.7654
1868.1809
1851.018
1815.3351
1769.4644
1719.6243
1669.9987
1623.3124
1581.2328
1544.6928
1514.1323
1489.6441
1471.2374
1459.3883
1454.7802
13.670664
27.353277
41.860826
55.53503
68.294704
79.744375
89.382263
96.540911
100.35911
99.792156
93.697059
80.929901
60.470516
31.996785
-2.7043573
-38.604821
-68.641969
-86.557765
-88.267486
-71.593716
-35.655045
19.887258
95.312505
190.90781
306.83694
442.81139
597.80355
769.70938
954.33292
1144.153
1327.7525
1491.2649
1622.4716
1715.0274
1769.4337
1790.9448
1787.0524
1765.4676
1732.9676
1694.956
1655.3646
1616.8983
1581.3772
1549.9502
1523.283
1501.6783
1485.3119
1474.7276
1470.604
11.351372
24.020655
37.633077
50.48336
62.409651
73.018097
81.84486
88.30973
91.710587
91.253936
86.137946
75.654318
59.356546
37.549893
12.162814
-12.777456
-32.032705
-40.790024
-35.557031
-14.194907
24.415065
80.826153
155.33568
248.05616
358.81727
486.94081
631.00554
788.50783
955.19805
1124.3902
1286.8567
1432.1095
1551.1464
1639.0519
1695.6555
1724.3859
1730.6352
1720.3136
1698.9065
1671.0235
1640.2512
1609.196
1579.7203
1553.0998
1530.1561
1511.3508
1496.9902
1487.6602
1484.0189
11.404917
23.288439
35.910768
47.736214
58.642302
68.27497
76.231755
82.03282
85.130843
84.95016
80.963867
72.79711
60.399416
44.421497
26.735641
10.598807
0.0303141
-1.1688671
9.9580463
35.401465
76.342768
133.41534
206.8959
296.75568
402.58837
523.45226
657.68058
802.60683
954.14791
1106.4548
1252.0425
1382.8377
1492.0311
1575.7259
1633.4071
1667.3015
1681.3068
1679.9605
1667.6924
1648.4018
1625.2906
1600.8195
1576.8211
1554.6322
1535.1747
1519.0267
1506.5936
1498.48
1495.3084
10.340952
21.507162
33.40504
44.541465
54.780656
63.798107
71.247669
76.741721
79.86977
80.240208
77.550254
71.682864
62.861352
51.919588
40.601584
31.584812
28.053002
33.069481
49.137815
78.055856
120.96993
178.51329
250.91668
338.03701
439.30323
553.60356
679.14036
813.23203
952.06771
1090.5669
1222.6105
1341.8661
1443.0522
1523.0148
1581.0728
1618.6537
1638.5876
1644.3706
1639.5816
1627.5111
1610.9802
1592.2712
1573.1536
1554.9762
1538.7186
1525.0418
1514.4243
1507.4694
1504.748
9.9377007
20.467951
31.656301
42.110185
51.714139
60.180941
67.220524
72.528722
75.811078
76.824315
75.439302
71.727249
66.088623
59.438922
53.372662
50.131993
52.305327
62.4101
82.575019
114.39775
158.94057
216.79242
288.12502
372.70315
469.8426
578.32965
696.31673
821.19287
949.45581
1076.6952
1197.8527
1307.862
1402.526
1479.2415
1537.2571
1577.4648
1601.9292
1613.3587
1614.6546
1608.5953
1597.6561
1583.9273
1569.0954
1554.4896
1541.1169
1529.6954
1520.7593
1514.8945
1512.601
9.3534326
19.355954
29.993819
39.935854
49.075166
57.158618
63.948154
69.214105
72.760879
74.466112
74.336326
72.580696
69.712134
66.671038
64.910343
66.343253
73.125194
87.364121
110.8837
145.09334
190.95211
248.98392
319.29785
401.58513
495.08562
598.53135
710.07707
827.2256
946.77864
1064.8896
1177.318
1279.9247
1369.2932
1443.2318
1500.9697
1543.0376
1570.9497
1586.8211
1593.0192
1591.8998
1585.6373
1576.1364
1564.9922
1553.498
1542.6671
1533.2572
1525.8493
1521.0023
1519.117
8.9317471
18.476943
28.635171
38.139457
46.89549
54.681719
61.305666
66.600389
70.45053
72.828492
73.843097
73.801089
73.283527
73.225521
74.955369
80.137108
90.607365
108.16511
134.38942
170.52329
217.42126
275.53646
344.91808
425.19949
515.57117
614.74253
720.90064
831.677
944.14968
1054.9331
1160.4121
1257.1289
1342.2334
1413.8426
1471.192
1514.5676
1545.0885
1564.4257
1574.532
1577.4213
1575.015
1569.05
1561.0292
1552.2039
1543.578
1535.9337
1529.9005
1526.013
1524.5319
8.5458166
17.734232
27.524441
36.699166
45.173279
52.753581
59.287286
64.659931
68.820752
71.815718
73.82982
75.23756
76.6595
79.011976
83.519653
91.659136
105.03209
125.20537
153.5658
191.21641
238.91646
297.05202
365.6192
444.20696
531.97493
627.62921
729.40281
835.05219
941.89203
1046.9028
1146.9413
1239.0479
1320.7833
1390.4946
1447.4338
1491.7217
1524.1943
1546.1943
1559.3569
1565.4262
1566.1165
1563.0212
1557.558
1550.9359
1544.141
1537.9698
1533.1172
1530.1328
1529.0782
8.1764451
17.092704
26.60088
35.527596
43.793425
51.229888
57.71698
63.181919
67.623617
71.143001
73.980013
76.555008
79.510353
83.740116
90.387063
100.78939
116.37786
138.54803
168.54004
207.34504
255.6421
313.75945
381.64924
458.86723
544.55463
637.42418
735.7566
837.41773
939.91346
1040.5044
1136.3952
1224.9845
1304.1272
1372.3381
1428.8895
1473.7911
1507.6806
1531.6628
1547.1375
1555.6433
1558.7326
1557.8838
1554.4441
1549.589
1544.2877
1539.3395
1535.5206
1533.4726
1532.9822
7.8040693
16.593764
25.924592
34.690445
42.818426
50.16403
56.634268
62.188435
66.862184
70.79595
74.267758
77.727774
81.829289
87.445333
95.656811
107.70372
124.89813
148.51517
179.68911
219.32766
268.04805
326.13328
393.50194
469.68644
553.81774
644.6188
740.41214
839.15049
938.48363
1035.8751
1128.774
1214.8272
1292.092
1359.201
1415.4439
1460.7589
1495.649
1521.0542
1538.2075
1548.4988
1553.3617
1554.1878
1552.2702
1548.7586
1544.6066
1540.5846
1537.5173
1536.2975
1536.5829
7.3007402
16.158108
25.408353
34.089189
42.136435
49.430041
55.897805
61.521193
66.359965
70.579601
74.481457
78.532777
83.391084
89.913666
99.141518
112.25465
130.49157
155.04876
186.9902
227.16816
276.15805
334.21203
401.2262
476.71805
559.81324
649.24365
743.36193
840.18037
937.44422
1032.7484
1123.6978
1208.0953
1284.1254
1350.4957
1406.509
1452.0603
1487.5691
1513.8712
1532.0929
1543.5275
1549.5305
1551.4339
1550.4903
1547.8355
1544.4165
1540.9492
1538.2536
1537.8236
1540.0169
6.078045
15.82586
25.127296
33.800525
41.817068
49.088909
55.558065
61.218202
66.141386
70.505626
74.624027
78.972582
84.211682
91.193439
100.94362
114.60613
133.37178
158.40014
190.72529
231.17259
280.29661
338.33381
405.16881
480.31157
562.88519
651.62638
744.90353
840.75948
936.98781
1031.2492
1121.2258
1204.7974
1280.2115
1346.213
1402.112
1447.7832
1483.6058
1510.3649
1529.1345
1541.1611
1547.7567
1550.2227
1549.7997
1547.6268
1544.6612
1541.578
1539.1632
1539.6868
1545.5292
-2228.0811
-2484.1007
-2700.1378
-2882.1939
-3024.7876
-3107.1491
-3109.271
-3030.3548
-2858.4331
-2665.0476
-3205.9317
-3205.8184
-3198.9752
-3187.9924
-3173.8735
-3161.0999
-3149.273
-3158.6905
-3159.3518
-3132.0128
-3183.4391
-3182.312
-3167.5591
-3150.5767
-3133.6272
-3124.5721
-3106.2473
-3113.5206
-3100.4586
-3047.0004
-3138.2903
-3135.6319
-3127.0204
-3118.3088
-3109.5085
-3112.5157
-3101.3819
-3099.3891
-3086.0093
-3049.167
-3078.6682
-3077.2248
-3072.6676
-3066.761
-3058.3115
-3058.8749
-3058.3949
-3057.6518
-3056.1158
-3059.8365
-3030.3892
-3029.59
-3023.7621
-3013.4983
-2998.0762
-2968.5573
-2990.7383
-3003.1218
-3009.8592
-3023.2984
-3013.4122
-3015.1043
-3018.3045
-3021.6238
-3032.3188
-3007.9657
-3007.8548
-3004.4162
-2989.6642
-2966.8116
-3028.1568
-3029.8188
-3035.9832
-3044.8129
-3069.0074
-3076.5936
-3057.1522
-3031.0827
-3001.2166
-2965.8005
-3848.2402
-3860.509
-3831.4417
-3787.0175
-3749.4476
-3717.3772
-3695.8718
-3682.1475
-3673.2129
-3674.965
-2987.5479
-2986.3438
-2978.376
-2961.272
-2921.9758
-2947.3765
-2959.4179
-2961.615
-2951.1104
-2923.9715
-3009.5768
-3012.6486
-3018.9786
-3038.0533
-3013.9303
-3005.351
-3001.5306
-2994.2066
-2980.2673
-2965.1388
-3049.0396
-3051.5334
-3056.8184
-3081.5034
-3094.2228
-3070.0856
-3043.2918
-3022.9529
-3004.033
-2987.4981
-3000.4955
-2996.6658
-2977.8904
-2952.6928
-2975.6403
-2993.023
-3004.1177
-3011.3934
-3013.5293
-3020.4394
-3033.876
-3036.2805
-3035.4813
-2998.7662
-3007.8065
-3021.3315
-3032.035
-3039.1672
-3042.1247
-3051.6084
-3156.5057
-3164.2343
-3188.4005
-3187.0417
-3159.2858
-3131.581
-3110.9481
-3095.5992
-3080.2132
-3063.0071
-3141.1066
-3136.2446
-3128.745
-3148.7978
-3149.4853
-3143.8502
-3137.7817
-3132.4835
-3126.6003
-3128.5924
-3161.6693
-3160.9119
-3136.578
-3146.8082
-3158.3127
-3166.5473
-3171.1
-3173.0427
-3172.4602
-3177.2658
-3276.2424
-3288.6501
-3284.4924
-3270.1655
-3254.9184
-3242.9624
-3234.3198
-3228.6171
-3221.8902
-3213.4099
-3282.2294
-3286.3601
-3293.8433
-3285.6633
-3275.9092
-3270.3369
-3270.0688
-3274.51
-3279.5758
-3291.92
-3185.9129
-3171.8178
-3189.1508
-3215.0139
-3244.4597
-3273.1303
-3300.0918
-3324.6708
-3344.8463
-3369.8466
-3325.2277
-3301.616
-3311.2625
-3331.6281
-3358.4536
-3383.7599
-3406.2778
-3424.7572
-3437.3208
-3453.0792
-3700.9081
-3691.8659
-3661.2121
-3627.2013
-3602.1896
-3582.7701
-3570.7374
-3563.6279
-3557.5532
-3554.7213
-3017.352
-3015.8388
-3010.4837
-2998.9948
-2993.7487
-3000.9612
-3000.4368
-2994.9071
-2985.5338
-2984.4191
-3541.5569
-3550.1527
-3564.5633
-3611.8525
-3668.041
-3719.9072
-3741.0321
-3722.9489
-3639.3132
-3467.5034
-3269.4555
-3269.6977
-3272.666
-3277.5711
-3278.7205
-3277.8615
-3275.9432
-3270.7353
-3266.5923
-3220.1333
-3180.3117
-3228.3783
-3290.5099
-3395.258
-3506.6458
-3593.5459
-3636.1051
-3596.3134
-3448.2851
-3215.8674
-3481.2388
-3491.2926
-3512.2322
-3548.9651
-3582.6477
-3611.3511
-3619.9627
-3619.4611
-3583.6992
-3471.3298
-3368.1853
-3372.5848
-3386.784
-3410.782
-3431.7789
-3449.469
-3457.6087
-3447.2075
-3434.6063
-3382.8678
11318.596
10715.419
10129.447
9489.8136
8832.7221
8179.417
7545.0599
6936.6647
6347.2263
5770.1879
8301.6594
8224.3483
8101.0838
7839.4381
7501.5556
7111.1267
6689.453
6254.4169
5816.2534
5359.8586
-3709.7019
-3728.1438
-3745.4742
-3751.3477
-3759.9502
-3763.1454
-3767.8874
-3771.2863
-3772.5881
-3776.0685
-3705.8752
-3709.729
-3745.054
-3776.2494
-3815.2608
-3842.3899
-3866.2785
-3882.2799
-3890.9071
-3895.0832
-3946.2492
-3939.0277
-3955.2785
-3962.8778
-3991.2633
-4009.6446
-4029.4663
-4042.4371
-4047.8513
-4043.3985
-4222.1285
-4211.7749
-4226.0476
-4216.6494
-4232.7302
-4234.6244
-4241.1544
-4242.2097
-4238.6429
-4234.2879
-4544.5519
-4526.4171
-4538.1657
-4511.144
-4514.9384
-4497.106
-4484.6589
-4464.6435
-4436.9864
-4404.6363
-4900.7684
-4873.5507
-4883.1613
-4836.7534
-4828.3295
-4789.8552
-4757.0362
-4713.6274
-4658.9704
-4598.7723
-5281.5122
-5243.0663
-5251.7095
-5184.9048
-5165.3617
-5107.287
-5055.903
-4992.4474
-4916.2052
-4830.9068
-5682.5296
-5630.4587
-5639.2862
-5550.2768
-5519.4659
-5441.2508
-5370.5951
-5288.1728
-5198.2114
-5115.6743
-6104.7242
-6035.6057
-6045.4572
-5931.4738
-5888.0081
-5787.6112
-5693.2533
-5583.2364
-5457.9351
-5322.3472
-6548.1935
-6458.1095
-6470.5422
-6328.9074
-6271.6575
-6148.7835
-6030.6293
-5896.5279
-5746.933
-5585.1858
-7019.0483
-6901.9209
-6917.6866
-6744.2133
-6670.0707
-6522.4896
-6376.5964
-6214.3813
-6035.9003
-5850.0412
-7516.1609
-7365.9329
-7388.0517
-7179.6212
-7085.4614
-6911.4098
-6733.6225
-6537.5492
-6318.9378
-6081.668
-8057.8482
-7863.1845
-7892.1355