/*--------------------------------*- C++ -*----------------------------------*\
| =========                 |                                                 |
| \\      /  F ield         | foam-extend: Open Source CFD                    |
|  \\    /   O peration     | Version:     4.1                                |
|   \\  /    A nd           | Web:         http://www.foam-extend.org         |
|    \\/     M anipulation  |                                                 |
\*---------------------------------------------------------------------------*/
FoamFile
{
    version     2.0;
    format      ascii;
    class       volScalarField;
    location    "1.6";
    object      p;
}
// * * * * * * * * * * * * * * * * * * * * * * * * * * * * * * * * * * * * * //

dimensions      [0 2 -2 0 0 0 0];

internalField   nonuniform List<scalar> 
4393
(
-46.418281
-92.98183
-146.74663
-201.53771
-258.5285
-318.02967
-380.42419
-446.0216
-515.04615
-587.60801
-663.67513
-743.04509
-825.31979
-909.88663
-995.91036
-1082.3384
-1167.9203
-1251.2386
-1330.7463
-1404.806
-1471.7264
-1529.7972
-1577.3238
-1612.6683
-1634.3032
-1640.8853
-1631.3605
-1605.1086
-1562.023
-1502.6039
-1428.0623
-1340.304
-1241.8232
-1135.5205
-1024.4765
-911.72579
-800.06783
-691.93526
-589.3252
-493.78585
-406.44462
-328.0626
-259.10033
-199.78367
-150.17396
-110.24024
-79.763154
-57.832211
-43.627914
-45.166117
-92.39601
-146.03405
-200.6739
-257.49556
-316.84196
-379.10963
-444.62023
-513.60985
-586.20069
-662.37233
-741.93241
-824.48988
-909.43462
-995.92819
-1082.909
-1169.1129
-1253.106
-1333.3245
-1408.115
-1475.7717
-1534.5695
-1582.7972
-1618.7954
-1641.0074
-1648.0568
-1638.8538
-1612.7036
-1569.436
-1509.544
-1434.2447
-1345.4784
-1245.8053
-1138.2116
-1025.8679
-911.88867
-799.13359
-690.07192
-586.71519
-490.60821
-402.86274
-324.21728
-255.10975
-195.75317
-146.20041
-106.36013
-75.961495
-54.86256
-44.264389
-44.361878
-91.499257
-144.77576
-199.05484
-255.52568
-314.56083
-376.57897
-441.92401
-510.85518
-583.51839
-659.91604
-739.87542
-823.01879
-908.7399
-996.19237
-1084.2947
-1171.7532
-1257.0996
-1338.7353
-1414.975
-1484.0842
-1544.3101
-1593.909
-1631.1784
-1654.5012
-1662.4207
-1653.759
-1627.7379
-1584.0955
-1523.2532
-1446.422
-1355.6118
-1253.5192
-1143.309
-1028.3379
-911.88374
-796.92615
-686.00487
-581.15553
-483.9104
-395.34362
-316.14206
-246.6898
-187.1562
-137.55067
-97.68784
-67.257732
-46.702807
-37.920279
-43.571158
-90.203511
-142.87205
-196.57261
-252.49942
-311.05365
-372.6828
-437.76275
-506.58752
-579.33954
-656.05703
-736.5987
-820.60892
-907.48896
-996.38128
-1086.174
-1175.5279
-1262.9213
-1346.7025
-1425.1387
-1496.4545
-1558.8583
-1610.5621
-1649.8028
-1674.8748
-1684.1994
-1676.4522
-1650.7041
-1606.5448
-1544.2893
-1465.1354
-1371.1991
-1265.3939
-1151.1694
-1032.1787
-911.95593
-793.667
-679.95735
-572.89537
-473.98949
-384.25263
-304.29091
-234.40462
-174.68792
-125.07514
-85.291309
-55.022121
-34.934171
-26.790047
-42.746024
-88.58609
-140.40165
-193.2979
-248.47669
-306.37002
-367.46088
-432.16664
-500.82795
-573.67711
-650.80215
-732.10633
-817.26632
-905.69537
-996.52119
-1088.5891
-1180.4947
-1270.6404
-1357.3006
-1438.679
-1512.9482
-1578.2701
-1632.8043
-1674.713
-1702.1781
-1713.4588
-1707.029
-1681.7389
-1636.9529
-1572.8176
-1490.4975
-1392.2536
-1281.3116
-1161.5347
-1037.0026
-911.6132
-788.78888
-671.31364
-561.29014
-460.18291
-368.91151
-287.96535
-217.52573
-157.57757
-107.95357
-68.296515
-38.299663
-18.683304
-10.926895
-41.737447
-86.536902
-137.2531
-189.11404
-243.33044
-300.36949
-360.75694
-424.96196
-493.38481
-566.32291
-643.93069
-726.17228
-812.77019
-903.15681
-996.44219
-1091.4142
-1186.5793
-1280.2368
-1370.5625
-1455.6797
-1533.7002
-1602.7368
-1660.8935
-1706.2491
-1736.85
-1750.7505
-1746.1564
-1721.615
-1676.1689
-1609.7097
-1523.3301
-1419.4772
-1301.8087
-1174.7658
-1043.0177
-910.95455
-782.33309
-660.10537
-546.39996
-442.60511
-349.503
-267.41954
-196.37217
-136.195
-86.58663
-47.090355
-17.368606
1.8954441
9.4342664
-40.595517
-84.127186
-133.49121
-184.07012
-237.08797
-293.05307
-352.54167
-416.08553
-484.15864
-557.14076
-635.27216
-718.59812
-806.905
-899.65527
-995.93949
-1094.4704
-1193.635
-1291.594
-1386.3953
-1476.0639
-1558.6462
-1632.2097
-1694.8101
-1744.4434
-1779.0048
-1796.3012
-1794.1936
-1770.8249
-1724.7863
-1655.5861
-1564.1762
-1453.232
-1326.9987
-1190.7118
-1049.8412
-909.42585
-773.64338
-645.63651
-527.53702
-420.60861
-325.43843
-242.13247
-170.49407
-110.16486
-60.679729
-21.460598
7.9042094
26.823775
34.19104
-39.186015
-81.205566
-128.95647
-178.00164
-229.57707
-284.23738
-342.61695
-405.32138
-472.91376
-545.87576
-624.55666
-709.10811
-799.40451
-894.95489
-994.8304
-1097.6468
-1201.6306
-1304.7572
-1404.9087
-1499.9923
-1587.9889
-1666.9348
-1734.8566
-1789.6812
-1829.1467
-1850.7724
-1851.9887
-1830.4103
-1784.0053
-1711.7091
-1614.2141
-1494.4632
-1357.4973
-1209.643
-1057.4493
-906.79872
-762.38304
-627.54413
-504.37041
-393.92794
-296.53023
-211.99139
-139.84072
-79.481261
-30.253077
8.5657639
37.490265
56.0439
63.248656
-37.653456
-77.930953
-123.7969
-171.03289
-220.89028
-273.97557
-330.98881
-392.62115
-459.5417
-532.35657
-611.55199
-697.41827
-789.95108
-888.73181
-992.81691
-1100.6983
-1210.3873
-1319.6102
-1426.0328
-1527.4229
-1621.7033
-1706.907
-1781.0685
-1842.0769
-1887.5229
-1914.6049
-1920.2263
-1901.3232
-1855.012
-1779.376
-1674.6454
-1544.0579
-1393.7393
-1231.5241
-1065.4179
-902.39113
-747.74694
-605.01071
-476.14641
-361.91649
-262.25646
-176.59931
-104.13033
-43.963103
4.7914527
43.023779
71.374888
89.494214
96.517027
-35.748822
-74.004844
-117.6921
-162.83157
-210.6819
-261.90429
-317.2708
-377.56968
-443.59416
-516.10042
-595.74482
-682.9967
-778.01792
-880.50107
-989.49998
-1103.3489
-1219.7671
-1336.1397
-1449.847
-1558.4921
-1659.9569
-1752.3185
-1833.6803
-1901.9526
-1954.6111
-1988.5128
-1999.9352
-1984.9552
-1939.5402
-1860.5125
-1747.2973
-1603.4218
-1436.5074
-1256.5008
-1073.3828
-895.51871
-728.91346
-577.21773
-442.1378
-323.98087
-222.16719
-135.63942
-63.159449
-3.4979622
44.496652
81.904484
109.50759
127.089
133.89271
-33.798642
-69.806258
-111.02792
-153.76796
-199.29486
-248.32738
-301.7146
-360.35257
-425.17745
-497.12414
-577.05829
-665.67863
-763.3742
-870.00861
-984.66021
-1105.4662
-1229.7462
-1354.4137
-1476.4673
-1593.3172
-1702.8401
-1803.2312
-1892.7561
-1969.44
-2030.7075
-2073.0754
-2092.1037
-2082.7928
-2039.5856
-1957.4486
-1834.4241
-1674.2473
-1486.6342
-1284.5443
-1080.6574
-885.116
-704.69057
-543.02739
-401.36498
-279.34215
-175.6858
-88.716486
-16.683752
42.039566
88.89856
125.17888
151.81137
168.71728
175.25004
-31.322737
-64.748372
-103.164
-143.16714
-186.01798
-232.49052
-283.51352
-340.10052
-403.35032
-474.40917
-554.39866
-644.30972
-744.84101
-856.11857
-977.29916
-1106.2777
-1239.8197
-1374.1694
-1505.8014
-1631.8964
-1750.3825
-1859.68
-1958.349
-2044.6712
-2116.1355
-2168.9572
-2197.9198
-2196.6907
-2157.7325
-2073.3254
-1939.1482
-1758.8895
-1545.255
-1315.6016
-1086.3276
-869.81847
-673.60677
-501.08688
-352.7078
-227.14589
-122.20851
-35.439679
35.518385
92.74305
137.99748
172.78092
198.17313
214.23512
220.43265
-28.935361
-59.575035
-94.898102
-131.84692
-171.6753
-215.21028
-263.45979
-317.56079
-378.79214
-448.54489
-528.24831
-619.25856
-722.6895
-839.06434
-967.7168
-1106.2532
-1250.6595
-1396.2153
-1538.6635
-1674.9219
-1803.0777
-1921.9452
-2030.5693
-2127.6997
-2211.0799
-2276.7104
-2318.5365
-2328.6704
-2297.0936
-2212.1921
-2065.6519
-1860.4852
-1613.7493
-1349.4069
-1089.0111
-847.73835
-633.73465
-449.70508
-294.82724
-166.41691
-61.081392
24.586035
93.645861
148.66939
191.75112
224.60068
248.43745
263.45911
269.2463
-25.834194
-53.293435
-85.133359
-118.63362
-155.00891
-195.12771
-240.07121
-291.102
-349.69475
-417.52248
-496.38355
-588.08846
-694.30535
-816.16075
-953.35348
-1103.1787
-1260.522
-1419.2471
-1574.0532
-1721.5573
-1860.1745
-1989.3361
-2108.7968
-2218.0398
-2315.346
-2396.6699
-2455.0969
-2481.0199
-2461.4975
-2379.4189
-2219.7581
-1983.4124
-1693.8847
-1385.4099
-1086.7045
-816.3325
-582.61607
-386.83329
-226.18358
-96.09577
8.3587027
91.722766
157.84477
209.81619
250.05844
280.47313
302.3986
316.15968
321.45247
-22.988282
-47.105632
-75.194281
-104.93112
-137.49265
-173.7801
-214.93919
-262.35461
-317.70642
-382.98382
-460.41865
-552.37013
-661.2209
-788.98798
-936.05539
-1099.4242
-1272.3862
-1446.6589
-1615.3976
-1774.882
-1924.158
-2063.6284
-2194.0745
-2316.1132
-2429.0546
-2529.1506
-2608.6684
-2656.1731
-2655.5153
-2582.0934
-2409.6774
-2133.8909
-1787.8782
-1422.5328
-1076.4502
-772.13832
-517.10639
-310.00228
-145.03273
-15.064512
86.748994
166.2657
228.18005
276.10008
312.74398
340.16731
359.7929
372.05528
376.76312
-19.234014
-39.566152
-63.484018
-89.028728
-117.28559
-149.16106
-185.84191
-228.81617
-279.96347
-341.61503
-416.50499
-507.64541
-618.31835
-751.84292
-909.86989
-1089.2875
-1281.1052
-1473.7726
-1658.1738
-1830.2916
-1990.3738
-2140.3274
-2282.2796
-2418.3711
-2549.5396
-2672.7614
-2779.4821
-2856.4146
-2884.4361
-2829.5602
-2647.246
-2321.087
-1898.5225
-1458.8317
-1053.8856
-710.45791
-433.22525
-216.2969
-49.466868
77.789724
174.63826
248.39182
304.59747
347.33027
379.5404
403.37519
420.29177
430.80764
434.83669
-15.909571
-32.367269
-51.889489
-72.946213
-96.528177
-123.53008
-155.16124
-192.99632
-239.10689
-296.19293
-367.57404
-457.03013
-568.92181
-708.39596
-879.34023
-1079.0098
-1295.059
-1510.7436
-1713.4126
-1898.7624
-2069.147
-2228.6984
-2381.1215
-2530.4772
-2680.3854
-2829.6036
-2969.1765
-3084.3379
-3154.0987
-3134.0109
-2949.9599
-2559.1606
-2029.2976
-1490.9054
-1012.5344
-624.9245
-325.9915
-102.36329
62.502658
183.47668
272.40188
338.0961
386.87978
423.18046
450.07147
469.70195
483.4964
492.01886
495.27614
-11.483945
-23.591288
-38.294741
-54.438732
-72.84822
-94.363339
-120.1701
-151.87528
-191.68082
-242.61956
-308.63696
-394.36266
-505.33315
-649.10811
-833.41843
-1057.1181
-1303.0125
-1546.0298
-1768.1207
-1964.9807
-2142.9741
-2309.8846
-2471.3078
-2633.6116
-2804.7352
-2986.7699
-3170.3478
-3338.4981
-3469.9065
-3511.2588
-3344.1365
-2870.7982
-2184.1431
-1512.8699
-942.74499
-506.96164
-189.29459
35.498697
192.78361
302.75065
380.12577
435.11303
474.59774
503.16017
523.83646
538.65837
548.93486
555.23098
557.6293
-7.5459667
-15.399291
-25.214415
-36.272707
-49.208405
-64.768229
-84.069111
-108.69905
-140.93309
-184.11097
-242.90342
-322.98256
-431.14919
-577.96567
-777.58727
-1033.2898
-1320.8802
-1601.2874
-1847.8977
-2056.6836
-2241.3069
-2415.234
-2585.4239
-2759.5247
-2951.4772
-3168.7935
-3401.8412
-3630.665
-3839.9339
-3979.4504
-3868.0217
-3294.1301
-2367.8696
-1515.4533
-830.29323
-345.15961
-15.871939
201.0952
342.92648
435.89041
497.45828
538.82672
567.05996
586.58921
600.1989
609.65739
616.06267
619.92852
621.39211
-2.4940745
-5.6554482
-10.105366
-15.573928
-22.445124
-31.342553
-43.27405
-59.749591
-83.01322
-116.56772
-165.75631
-237.36436
-339.18047
-484.64171
-697.71904
-992.03947
-1333.7673
-1659.6113
-1930.1028
-2142.1464
-2323.1197
-2495.6056
-2666.7927
-2843.1719
-3048.9945
-3303.1737
-3599.0873
-3914.1974
-4241.4069
-4553.2173
-4583.0232
-3903.4782
-2589.3111
-1483.2201
-653.4308
-124.34824
202.50744
397.84722
513.68355
582.39892
623.43331
648.1774
663.2686
672.58006
678.38244
682.01645
684.26803
685.54487
686.01542
2.9587705
3.9729489
4.546189
4.3726633
3.3871878
1.1544983
-3.1203635
-10.724259
-23.652545
-45.261378
-81.374561
-140.13102
-230.2735
-367.38847
-589.87772
-934.91048
-1357.8537
-1750.6932
-2054.8899
-2266.9249
-2439.8805
-2611.5587
-2788.5985
-2969.4135
-3193.9259
-3500.0124
-3883.297
-4313.0919
-4763.9031
-5291.5199
-5573.8101
-4825.3575
-2837.3018
-1376.2417
-376.92562
174.90857
474.14923
627.83451
704.34017
740.62137
756.28043
761.57928
761.89128
760.03438
757.47747
754.96739
752.88238
751.47267
750.91514
8.2850966
13.265288
19.323465
25.157877
31.020525
36.677718
41.594942
44.7629
44.510231
37.799656
18.451955
-23.539314
-98.146875
-220.10651
-443.94203
-853.46421
-1397.2819
-1876.4147
-2210.7429
-2392.8793
-2530.4283
-2685.6833
-2862.7825
-3027.8148
-3238.6399
-3573.5314
-4023.7136
-4561.7458
-5089.7115
-5960.3607
-6823.7179
-6299.5143
-3074.0127
-1170.9513
36.506886
572.65507
805.01217
890.17375
911.7992
907.31733
893.25935
876.87546
861.26388
847.66131
836.46188
827.67559
821.19691
817.07833
815.48601
17.841125
25.859674
36.761688
47.719667
59.416524
71.801237
84.631376
97.258306
108.52212
116.23562
114.96634
93.715223
41.619873
-49.538447
-244.67544
-715.15125
-1441.8799
-2033.6099
-2413.3728
-2545.7121
-2643.0181
-2787.1989
-2982.1458
-3113.6796
-3276.6772
-3677.6986
-4224.3712
-4961.7031
-5679.3054
-7242.8537
-8882.0923
-9068.3525
-3578.1295
-1038.2192
635.19343
1099.0923
1197.3511
1178.9796
1129.5275
1077.2886
1030.5877
991.36673
959.44133
934.0245
914.2387
899.26875
888.48493
881.72041
879.11844
22.150571
30.895222
46.136705
62.238165
80.171456
100.10816
122.29198
146.74768
173.26273
201.2383
227.41489
240.71441
225.96305
180.34542
45.40865
-483.28428
-1555.1586
-2311.4991
-2773.6623
-2771.0088
-2749.6655
-2813.1449
-3022.6407
-3099.9055
-3207.1635
-3763.2633
-4232.9945
-5185.2218
-6470.8431
-7863.4475
-9589.144
-12103.54
-4823.2655
-72.514694
1722.8309
1811.9829
1641.1423
1478.7603
1346.2297
1243.2035
1163.5573
1101.9566
1054.3115
1017.6218
989.69051
968.87456
954.02896
944.77076
941.21747
36.937078
46.533221
66.460067
87.313955
110.74798
137.07731
166.90646
200.72069
238.86193
281.66248
327.57442
365.35477
371.82633
347.26604
293.74153
-191.10947
-1818.0781
-2617.1349
-3115.4961
-2772.7576
-2626.8082
-2732.5428
-3131.7557
-3271.1274
-3302.4337
0
0
0
0
0
0
0
0
6202.3754
3402.4564
2582.4956
2068.2386
1755.8596
1545.1253
1396.0885
1287.0015
1205.4551
1143.7779
1096.9952
1061.747
1035.6642
1017.1506
1005.637
1001.2226
35.366744
42.182732
64.028392
87.075044
113.20485
142.73963
176.57918
215.67645
261.07462
314.4244
377.58996
445.98908
502.7993
560.82546
710.6806
552.80438
-1996.7851
-2776.9623
-3646.9055
-2968.6374
-3044.3362
-3012.3246
0
0
0
0
0
0
0
0
0
0
10129.575
6286.2539
4123.955
3000.3244
2361.313
1969.1782
1709.0493
1527.5633
1396.286
1299.0428
1225.9925
1170.8555
1129.4571
1098.8968
1077.2398
1063.7841
1058.6266
44.263798
54.950257
80.950041
106.97757
136.15436
169.03596
206.87563
251.10407
303.50601
367.08024
447.11638
546.08824
653.28836
754.39066
842.19537
568.47309
-3108.2255
-3581.5986
-3205.2808
0
0
0
0
0
0
0
0
0
0
0
1780.6719
3364.5945
5756.1166
5236.0898
3961.3825
3100.1686
2507.1431
2107.7402
1830.6544
1632.9921
1488.4299
1380.731
1299.5698
1238.1937
1192.0515
1157.9577
1133.7808
1118.7537
1112.9926
22.191634
42.166361
66.371046
91.284947
118.75241
149.54726
184.74322
225.50527
273.13234
329.82963
399.49964
478.02681
537.52954
536.24679
558.10611
702.38663
0
0
0
0
0
0
-1132.0676
-1103.5233
-1011.3055
-917.55607
-790.0849
-495.29873
-94.947147
697.08399
2026.44
3361.9108
4750.9875
4489.8578
3714.8023
3058.6867
2552.6656
2182.2204
1911.4457
1711.6616
1562.3548
1449.5321
1363.6925
1298.3451
1248.9835
1212.3855
1186.3705
1170.178
1163.9663
19.95405
50.022232
74.970548
100.54387
127.96163
158.05678
191.47963
228.66485
269.57186
313.41775
357.89935
396.56172
406.14838
338.09101
142.01691
-338.13628
-1284.4187
-1227.4757
-1147.102
-1100.4782
-1051.081
-1021.6125
-1010.3639
-803.28906
-838.68198
-583.18151
-362.34482
-204.61712
259.08303
904.85479
1960.2928
3049.3235
3956.5656
3851.8968
3404.2982
2933.5973
2528.4618
2206.0157
1956.7041
1765.4225
1618.5289
1505.3809
1418.1055
1351.0014
1299.9424
1261.8834
1234.7285
1217.7886
1211.284
20.663361
46.485455
72.120312
97.971823
125.28641
154.81513
187.13907
222.62483
261.25889
302.13379
342.03453
373.73497
384.81795
353.15745
205.21468
-227.92335
-792.30638
-920.95993
-962.5485
-966.15084
-887.80269
-842.32005
-818.54927
-691.79991
-620.9435
-417.54014
-179.14311
77.743119
510.88714
1096.4664
1896.187
2721.5884
3334.8856
3356.8269
3105.6569
2777.1433
2463.3575
2193.8102
1973.5975
1797.6787
1658.5139
1548.9432
1463.0389
1396.1805
1344.8436
1306.3178
1278.698
1261.4186
1254.7758
14.996612
36.230638
58.797038
81.291059
104.29084
128.03546
152.53039
177.41578
201.78972
223.68879
238.89641
240.18055
218.24828
159.21367
15.074236
-283.91297
-606.90415
-732.46539
-784.51893
-794.28658
-753.12519
-703.47403
-642.23481
-537.76196
-423.8862
-238.24297
-11.498394
269.88401
668.60863
1187.7224
1823.2425
2450.8966
2889.5206
2967.0588
2834.9722
2613.0013
2376.1816
2157.6763
1969.1885
1812.3857
1684.4723
1581.3763
1499.091
1434.1698
1383.8001
1345.704
1318.2395
1300.9996
1294.3628
23.838383
46.44493
70.189919
93.656188
117.54423
141.96095
166.72585
191.21027
214.09547
232.81477
242.68388
236.66941
205.98813
135.3969
-7.2600833
-236.55176
-460.15547
-579.80641
-635.38361
-644.5411
-615.83466
-568.29266
-497.28094
-394.45985
-264.34894
-82.932723
139.16119
416.11364
777.02678
1223.7722
1735.5104
2221.7456
2557.2302
2658.5603
2599.6228
2454.8464
2280.178
2107.1229
1949.7498
1813.469
1698.7943
1604.111
1527.1063
1465.4577
1417.0852
1380.1847
1353.418
1336.5535
1330.0513
12.024212
29.927735
50.032228
70.035773
90.041022
109.9272
129.38606
147.74674
163.7605
175.18238
178.31527
168.06108
137.63801
74.653752
-40.055731
-203.50828
-358.80779
-456.74804
-506.07942
-514.23385
-488.93019
-440.00561
-365.68919
-262.60076
-128.53841
46.964333
261.85464
525.19113
849.67448
1232.3375
1648.6364
2032.8059
2301.949
2411.5833
2398.1278
2308.5356
2183.1596
2048.9511
1920.3869
1804.4655
1703.8312
1618.6752
1548.0642
1490.6663
1445.0905
1410.0052
1384.387
1368.1815
1361.9234
21.407273
40.632458
60.85413
80.367751
99.453584
117.8434
135.02353
150.10153
161.62871
167.32332
163.94503
147.54812
113.08062
52.273154
-43.557431
-165.61581
-279.00387
-356.12523
-395.69038
-400.45697
-375.18759
-324.72565
-248.67405
-145.28264
-11.774107
156.79255
361.05926
606.0221
895.95192
1224.4161
1567.8665
1878.5078
2101.9972
2212.1877
2227.1468
2176.7608
2089.8438
1988.0678
1885.1
1788.3899
1701.7413
1626.5698
1562.9909
1510.4911
1468.2867
1435.486
1411.37
1396.0509
1390.125
11.864147
27.968674
45.959773
63.611632
80.8205
97.231868
112.31654
125.22186
134.61687
138.50934
134.2245
118.5587
87.501904
35.679277
-40.002661
-130.43216
-213.52521
-271.83111
-300.84938
-300.62676
-273.46221
-221.63397
-145.03196
-42.5111
87.994274
248.9087
441.01384
666.30057
924.57429
1207.7345
1495.1771
1752.1625
1942.6283
2049.764
2082.4754
2059.9383
2002.6783
1927.6337
1846.8495
1767.6917
1694.4094
1629.1884
1572.894
1525.6525
1487.1886
1456.9989
1434.6432
1420.3807
1414.8539
17.140365
33.237337
50.22002
66.364773
81.71429
95.886649
108.32912
118.22195
124.38301
125.18532
118.61193
102.36211
73.690718
29.625111
-29.989201
-97.382502
-158.13684
-200.46248
-219.38523
-213.53467
-183.55793
-130.3433
-53.76436
46.960322
173.10557
325.77669
505.17505
711.24647
941.41842
1187.1583
1431.2314
1648.3115
1813.9323
1916.494
1960.2188
1957.4981
1922.9612
1869.6953
1807.8368
1744.3106
1683.4267
1627.7752
1578.7192
1536.8594
1502.3258
1474.944
1454.5176
1441.4279
1436.3465
11.96588
26.365727
42.104197
57.216587
71.535706
84.633652
95.955348
104.7276
109.89818
110.11319
103.80171
89.276361
64.758001
28.907056
-17.01992
-66.703959
-110.25038
-139.22917
-148.99481
-137.55156
-104.54801
-50.079723
26.067876
124.39881
245.5459
389.78553
556.64739
744.78774
950.4688
1165.4735
1375.7036
1562.5377
1708.9274
1806.45
1856.8892
1868.2992
1851.1312
1815.4436
1769.5687
1719.7249
1670.096
1623.407
1581.325
1544.7832
1514.2211
1489.7316
1471.324
1459.4743
1454.866
13.672524
27.359587
41.871664
55.550732
68.315662
79.771073
89.415277
96.580922
100.40691
99.848679
93.763297
81.006911
60.5593
32.098217
-2.5896359
-38.476849
-68.501976
-86.407956
-88.110299
-71.431483
-35.489779
20.053922
95.479294
191.07376
307.0013
442.97357
597.96307
769.86581
954.48584
1144.302
1327.8971
1491.4047
1622.6063
1715.1568
1769.5579
1791.0638
1787.1666
1765.5773
1733.0734
1695.0581
1655.4636
1616.9946
1581.4711
1550.0423
1523.3735
1501.7675
1485.4001
1474.8152
1470.6914
11.353749
24.027839
37.645111
50.500527
62.432296
73.046658
81.879861
88.351792
91.760429
91.312367
86.205813
75.732482
59.445791
37.650844
12.275813
-12.652632
-31.897136
-40.645404
-35.40533
-14.038077
24.575263
80.988216
155.49839
248.21851
358.97848
487.10024
631.16265
788.66212
955.34909
1124.5375
1287
1432.2483
1551.2805
1639.1811
1695.7798
1724.5055
1730.7502
1720.4244
1699.0135
1671.127
1640.3516
1609.2938
1579.8157
1553.1934
1530.248
1511.4415
1497.08
1487.7494
1484.1078
11.407415
23.295998
35.923455
47.754295
58.666096
68.304881
76.268263
82.076481
85.182293
85.010094
81.032984
72.876098
60.488879
44.521859
26.847045
10.720915
0.16221162
-1.0285617
10.10514
35.553691
76.498574
133.57335
207.05495
296.91478
402.74671
523.60916
657.83545
802.75917
954.29724
1106.6007
1252.1845
1382.9756
1492.1646
1575.8548
1633.5316
1667.4215
1681.4225
1680.0722
1667.8004
1648.5065
1625.3923
1600.9186
1576.9179
1554.7271
1535.268
1519.1188
1506.6847
1498.5705
1495.3987
10.343699
21.515209
33.418451
44.560476
54.805556
63.829263
71.285517
76.786763
79.922567
80.301357
77.620349
71.762447
62.95087
52.019322
40.711541
31.704606
28.181829
33.206185
49.281032
78.204162
121.12195
178.66776
251.07249
338.1932
439.45898
553.75817
679.29321
813.38259
952.2155
1090.7115
1222.7515
1342.0033
1443.1852
1523.1436
1581.1973
1618.774
1638.7039
1644.483
1639.6905
1627.6168
1611.0829
1592.3714
1573.2516
1555.0723
1538.8131
1525.1351
1514.5166
1507.5611
1504.8395
9.9406068
20.476354
31.670273
42.129939
51.73994
60.213123
67.259479
72.5749
75.864968
76.886429
75.510137
71.807239
66.178093
59.538028
53.481322
50.249816
52.43159
62.543807
82.714994
114.54275
159.08936
216.94383
288.27801
372.85678
469.99605
578.48221
696.46777
821.34184
949.60222
1076.8387
1197.9927
1307.9984
1402.6586
1479.3701
1537.3816
1577.5854
1602.046
1613.4718
1614.7643
1608.7018
1597.7598
1584.0285
1569.1944
1554.5867
1541.2125
1529.7898
1520.8527
1514.9874
1512.6936
9.3564878
19.364675
30.00828
39.956248
49.101734
57.191663
63.988032
69.261217
72.815656
74.528991
74.40772
72.660951
69.801483
66.769551
65.017877
66.459413
73.249323
87.49534
111.02097
145.23556
191.09816
249.13272
319.44841
401.73653
495.23706
598.68212
710.22652
827.37317
946.92385
1065.0321
1177.4573
1280.0605
1369.4254
1443.3602
1501.0943
1543.1584
1571.0668
1586.9347
1593.1295
1592.0071
1585.7419
1576.2385
1565.0921
1553.5961
1542.7637
1533.3525
1525.9437
1521.0961
1519.2106
8.9349245
18.485925
28.650034
38.160379
46.922689
54.715472
61.346296
66.648257
70.506015
72.891971
73.914914
73.881516
73.372726
73.323501
75.061948
80.25189
90.729744
108.29429
134.52447
170.66321
217.56503
275.68307
345.06658
425.349
515.7209
614.89175
721.04872
831.82338
944.29386
1055.0746
1160.5507
1257.2642
1342.3652
1413.9708
1471.3166
1514.6886
1545.2059
1564.5398
1574.6428
1577.5292
1575.1202
1569.1528
1561.1299
1552.3027
1543.6753
1536.0298
1529.9957
1526.1076
1524.6263
8.5490885
17.743423
27.539628
36.720513
45.200986
52.787904
59.328519
64.708399
68.876793
71.87966
73.901951
75.318096
76.748546
79.109496
83.62544
91.7728
105.15306
125.33291
153.69907
191.35448
239.05838
297.19684
365.76602
444.35491
532.12323
627.77715
729.54975
835.19756
942.03535
1047.0436
1147.0793
1239.1827
1320.9149
1390.6226
1447.5584
1491.8427
1524.312
1546.3087
1559.4682
1565.5346
1566.2223
1563.1246
1557.6593
1551.0354
1544.239
1538.0666
1533.2131
1530.2281
1529.1733
8.1797944
17.102062
26.616324
35.549277
43.82153
51.264653
57.758676
63.230844
67.680077
71.207284
74.052366
76.635602
79.599255
83.837257
90.492218
100.90217
116.49773
138.6743
168.67192
207.48166
255.78257
313.90286
381.79471
459.01394
544.7018
637.5711
735.90263
837.5623
940.05608
1040.6447
1136.5327
1225.119
1304.2585
1372.4661
1429.014
1473.9122
1507.7984
1531.7774
1547.2492
1555.7521
1558.8388
1557.9876
1554.5459
1549.689
1544.3862
1539.4368
1535.617
1533.5684
1533.0778
7.8074642
16.603238
25.940219
34.712368
42.846821
50.199118
56.676306
62.237699
66.918953
70.860485
74.340275
77.808413
81.918087
87.542195
95.761499
107.81585
125.01719
148.64051
179.81997
219.46322
268.18745
326.27565
393.64642
469.83222
553.96406
644.76495
740.55748
839.29446
938.62573
1036.0149
1128.9111
1214.9614
1292.2231
1359.3288
1415.5685
1460.8802
1495.767
1521.1691
1538.3194
1548.6079
1553.4682
1554.292
1552.3723
1548.859
1544.7055
1540.6823
1537.6141
1536.3937
1536.6789
7.304158
16.167668
25.424114
34.111283
42.165031
49.465351
55.940072
61.57068
66.416934
70.644294
74.554068
78.613425
83.479787
90.010317
99.245875
112.36634
130.6101
155.17348
187.12039
227.30301
276.29674
334.3537
401.37002
476.86322
559.95899
649.38928
743.50682
840.32394
937.58598
1032.8879
1123.8347
1208.2293
1284.2564
1350.6235
1406.6336
1452.1815
1487.6871
1513.9862
1532.2049
1543.6368
1549.6372
1551.5383
1550.5927
1547.9361
1544.5156
1541.0472
1538.3507
1537.92
1540.1132
6.0814566
15.835448
25.143109
33.822692
41.845753
49.124319
55.600439
61.267795
66.198452
70.570399
74.69669
79.053244
84.300354
91.290014
101.04787
114.71764
133.49005
158.52455
190.85514
231.3071
280.43494
338.47514
405.3123
480.45643
563.03065
651.77176
745.04819
840.90284
937.12939
1031.3886
1121.3626
1204.9314
1280.3425
1346.3407
1402.2365
1447.9045
1483.7239
1510.4799
1529.2466
1541.2704
1547.8635
1550.3272
1549.9022
1547.7275
1544.7605
1541.6761
1539.2604
1539.7834
1545.6256
-2227.7575
-2483.6243
-2699.5385
-2881.4835
-3023.9674
-3106.2146
-3108.2255
-3029.2214
-2857.2787
-2664.0034
-3205.3889
-3205.2808
-3198.4354
-3187.4485
-3173.3342
-3160.5814
-3148.7456
-3158.2123
-3158.8144
-3131.4101
-3183.0312
-3181.9068
-3167.1524
-3150.1892
-3133.274
-3124.2832
-3105.9906
-3113.2077
-3100.0761
-3046.55
-3137.8418
-3135.1797
-3126.5766
-3117.8808
-3109.0873
-3112.0996
-3101.004
-3098.9713
-3085.57
-3048.7081
-3078.1497
-3076.7151
-3072.1696
-3066.2523
-3057.7468
-3058.1468
-3057.8125
-3057.1423
-3055.6638
-3059.4006
-3030.169
-3029.3767
-3023.6159
-3013.4547
-2998.1998
-2968.6374
-2990.8015
-3003.1023
-3009.748
-3023.0967
-3013.4128
-3015.1069
-3018.3586
-3021.7458
-3032.6625
-3008.5366
-3008.2146
-3004.5873
-2989.6692
-2966.6811
-3027.9231
-3029.5539
-3035.6398
-3044.3362
-3068.3862
-3076.1027
-3056.7215
-3030.704
-3000.8671
-2965.4632
-3848.4526
-3860.7649
-3831.7261
-3787.3165
-3749.7567
-3717.6915
-3696.1882
-3682.462
-3673.5221
-3675.2642
-2986.9815
-2985.7893
-2977.9084
-2960.9533
-2921.5851
-2946.946
-2958.9508
-2961.1435
-2950.6577
-2923.5508
-3009.2481
-3012.3246
-3018.6878
-3037.9312
-3013.9711
-3005.2506
-3001.299
-2993.8834
-2979.8933
-2964.7516
-3048.5066
-3050.9592
-3056.1371
-3080.7264
-3093.4961
-3069.4238
-3042.6918
-3022.4073
-3003.5384
-2987.0527
-2999.6595
-2995.8308
-2976.9419
-2951.661
-2974.598
-2992.079
-3003.318
-3010.7379
-3013.001
-3020.0184
-3033.2651
-3035.7255
-3034.862
-2997.9708
-3007.1041
-3020.7169
-3031.5171
-3038.7502
-3041.7996
-3051.3643
-3156.89
-3164.684
-3188.9173
-3187.4465
-3159.5468
-3131.7557
-3111.0623
-3095.6694
-3080.252
-3063.0191
-3141.9778
-3137.1431
-3129.6595
-3149.8306
-3150.4245
-3144.6317
-3138.4092
-3132.9742
-3126.9762
-3128.8785
-3162.7554
-3162.0347
-3137.7503
-3147.9044
-3159.3501
-3167.4861
-3171.9063
-3173.71
-3173.0006
-3177.7019
-3277.1161
-3289.5193
-3285.4686
-3271.1274
-3255.8056
-3243.7648
-3235.0332
-3229.2396
-3222.4243
-3213.8639
-3282.4887
-3286.5602
-3294.0148
-3285.9369
-3276.2938
-3270.7938
-3270.5586
-3274.9998
-3280.0405
-3292.3429
-3186.3247
-3172.2147
-3189.5511
-3215.428
-3244.9013
-3273.5983
-3300.5722
-3325.145
-3345.2979
-3370.263
-3326.0529
-3302.4337
-3312.0412
-3332.3488
-3359.1123
-3384.3601
-3406.8256
-3425.2569
-3437.7754
-3453.4902
-3701.6746
-3692.6553
-3661.9565
-3627.8854
-3602.8066
-3583.3213
-3571.2312
-3564.0733
-3557.9583
-3555.0923
-3016.6786
-3015.153
-3009.738
-2998.1197
-2992.6337
-2999.8926
-2999.5297
-2994.1791
-2984.9469
-2983.9232
-3540.5379
-3549.1347
-3563.569
-3610.8529
-3667.0285
-3718.86
-3739.9423
-3721.8032
-3638.1025
-3466.253
-3268.7584
-3268.9932
-3271.9427
-3276.8108
-3277.9216
-3277.0255
-3275.0641
-3269.9195
-3265.7618
-3219.2847
-3179.5256
-3227.5518
-3289.6663
-3394.3694
-3505.6948
-3592.5205
-3635.0763
-3595.207
-3447.0637
-3214.6349
-3480.2767
-3490.3203
-3511.251
-3547.9503
-3581.5986
-3610.2581
-3618.8292
-3618.3244
-3582.5464
-3470.1573
-3367.3452
-3371.7351
-3385.9147
-3409.8729
-3430.8338
-3448.4897
-3456.6153
-3446.1964
-3433.5787
-3381.8272
11318.722
10715.547
10129.575
9489.9394
8832.8462
8179.5393
7545.1805
6936.7839
6347.3442
5770.3043
8301.8485
8224.5316
8101.2597
7839.6076
7501.7193
7111.285
6689.6067
6254.5664
5816.3992
5360.0012
-3709.5006
-3727.9362
-3745.3439
-3751.3103
-3759.999
-3763.2633
-3768.0588
-3771.4945
-3772.8197
-3776.3114
-3705.8518
-3709.703
-3745.0492
-3776.28
-3815.339
-3842.5106
-3866.437
-3882.467
-3891.1145
-3895.3023
-3946.5153
-3939.2799
-3955.5087
-3963.0858
-3991.4657
-4009.8454
-4029.6724
-4042.6486
-4048.068
-4043.618
-4222.423
-4212.068
-4226.3369
-4216.9233
-4232.9945
-4234.8764
-4241.3991
-4242.4476
-4238.8756
-4234.5145
-4544.8765
-4526.7368
-4538.482
-4511.4468
-4515.2326
-4497.3857
-4484.9276
-4464.9006
-4437.2331
-4404.8724
-4901.1053
-4873.8831
-4883.4902
-4837.0689
-4828.637
-4790.148
-4757.3171
-4713.8951
-4659.2255
-4599.0145
-5281.8494
-5243.399
-5252.0391
-5185.2218
-5165.6717
-5107.583
-5056.1876
-4992.7186
-4916.4633
-4831.1513
-5682.86
-5630.7849
-5639.6097
-5550.5885
-5519.7717
-5441.5436
-5370.8773
-5288.4424
-5198.4685
-5115.9181
-6105.0439
-6035.9213
-6045.7704
-5931.7761
-5888.3055
-5787.8966
-5693.5291
-5583.5007
-5458.1875
-5322.587
-6548.5002
-6458.4123
-6470.8431
-6329.1982
-6271.944
-6149.0592
-6030.8962
-5896.7841
-5747.178
-5585.4187
-7019.3412
-6902.2102
-6917.9743
-6744.4915
-6670.3453
-6522.7544
-6376.8531
-6214.6281
-6036.1367
-5850.2661
-7516.4401
-7366.2087
-7388.3261
-7179.8868
-7085.7237
-6911.6633
-6733.8683
-6537.7859
-6319.1647
-6081.8846
-8058.1145
-7863.4475
-7892.3974
-7643.1904