/*--------------------------------*- C++ -*----------------------------------*\
| =========                 |                                                 |
| \\      /  F ield         | foam-extend: Open Source CFD                    |
|  \\    /   O peration     | Version:     4.1                                |
|   \\  /    A nd           | Web:         http://www.foam-extend.org         |
|    \\/     M anipulation  |                                                 |
\*---------------------------------------------------------------------------*/
FoamFile
{
    version     2.0;
    format      ascii;
    class       volScalarField;
    location    "1.6";
    object      rAU;
}
// * * * * * * * * * * * * * * * * * * * * * * * * * * * * * * * * * * * * * //

dimensions      [0 0 1 0 0 0 0];

internalField   nonuniform List<scalar> 
4393
(
0.00022764382
0.00022726997
0.00022690389
0.00022652997
0.00022614609
0.00022575084
0.00022534183
0.00022491788
0.00022447813
0.00022402239
0.00022355126
0.00022306625
0.00022256985
0.0002220656
0.00022155789
0.00022105284
0.00022055627
0.00022007517
0.00021961715
0.00021918982
0.00021880089
0.00021845807
0.00021816883
0.00021794037
0.00021777933
0.00021769164
0.00021768194
0.00021768194
0.00021775355
0.00021790756
0.00021814213
0.00021845228
0.00021882981
0.00021926368
0.00021974062
0.00022024611
0.0002207653
0.00022128403
0.00022178946
0.00022227058
0.00022271843
0.00022312605
0.00022348839
0.00022380201
0.00022406479
0.00022427575
0.00022443496
0.00022454295
0.00022458507
0.00022451137
0.00022419085
0.00022388526
0.00022357063
0.00022324418
0.00022290427
0.00022254868
0.00022217655
0.00022178746
0.00022138178
0.00022096078
0.00022052675
0.00022008306
0.00021963418
0.00021918542
0.00021874382
0.00021831597
0.00021790946
0.00021753239
0.00021719258
0.0002168979
0.00021665603
0.00021647439
0.00021635996
0.00021631907
0.00021635712
0.00021644376
0.00021641667
0.00021645992
0.00021658685
0.00021679898
0.00021709476
0.00021746904
0.00021791306
0.00021841484
0.00021896011
0.00021953338
0.00022011915
0.00022070283
0.0002212715
0.00022181428
0.00022232245
0.00022278941
0.00022321043
0.00022358226
0.00022390275
0.00022417104
0.00022438862
0.00022454271
0.00022400594
0.00022369725
0.00022339708
0.00022308537
0.00022275937
0.00022241759
0.00022205802
0.00022168008
0.00022128379
0.00022087002
0.00022044068
0.00021999884
0.00021954873
0.00021909581
0.00021864642
0.00021820855
0.0002177897
0.00021739821
0.00021704268
0.0002167313
0.00021647209
0.00021627281
0.00021614084
0.00021608311
0.00021610577
0.00021621388
0.0002163005
0.00021618145
0.00021614322
0.00021619282
0.00021633516
0.00021657192
0.00021690054
0.00021731387
0.00021780035
0.0002183451
0.00021893116
0.00021954104
0.00022015798
0.00022076688
0.00022135492
0.00022191173
0.00022242939
0.00022290217
0.00022332606
0.00022369844
0.00022401823
0.00022428552
0.00022448062
0.00022365054
0.00022334724
0.000223047
0.00022273215
0.00022240022
0.00022204993
0.00022167942
0.00022128836
0.00022087708
0.00022044692
0.00022000038
0.00021954126
0.00021907471
0.00021860721
0.00021814624
0.00021770095
0.00021727992
0.0002168924
0.00021654769
0.00021625445
0.00021602103
0.00021585535
0.00021576496
0.00021575689
0.0002158374
0.00021601154
0.00021609285
0.00021588775
0.0002157652
0.00021573573
0.00021580806
0.00021598738
0.00021627385
0.00021666172
0.00021713944
0.0002176909
0.00021829705
0.0002189379
0.00021959409
0.00022024817
0.00022088527
0.00022149343
0.00022206353
0.00022258898
0.00022306528
0.00022348962
0.00022386077
0.00022417776
0.00022442244
0.0002232886
0.00022298945
0.00022268953
0.00022237187
0.00022203417
0.00022167526
0.00022129342
0.00022088851
0.0002204611
0.00022001293
0.00021954703
0.00021906792
0.00021858164
0.00021809579
0.00021761907
0.00021716195
0.00021673422
0.00021634618
0.00021600793
0.00021572865
0.00021551702
0.00021538118
0.00021532887
0.00021536743
0.00021550344
0.00021574228
0.00021582907
0.00021553349
0.00021532266
0.00021521114
0.00021521203
0.00021533464
0.00021558209
0.00021594993
0.00021642613
0.0002169926
0.00021762744
0.00021830746
0.00021901022
0.00021971562
0.00022040665
0.00022106981
0.00022169491
0.00022227472
0.00022280443
0.0002232812
0.00022370373
0.00022407087
0.00022436676
0.00022291086
0.0002226164
0.00022231785
0.00022199832
0.00022165563
0.00022128865
0.00022089571
0.00022047678
0.00022003261
0.00021956524
0.00021907817
0.00021857657
0.00021806743
0.00021755948
0.00021706281
0.00021658936
0.00021615036
0.0002157573
0.00021542117
0.0002151517
0.00021495788
0.00021484806
0.00021483026
0.00021491222
0.00021510118
0.00021540327
0.00021551064
0.00021511877
0.00021481404
0.00021461567
0.00021454203
0.00021460737
0.0002148183
0.00021517161
0.00021565417
0.00021624498
0.00021691828
0.00021764678
0.00021840438
0.00021916793
0.00021991824
0.00022064029
0.00022132303
0.00022195884
0.0002225429
0.00022307258
0.00022354678
0.00022396479
0.00022431253
0.00022251779
0.0002222287
0.00022193256
0.00022161217
0.00022126532
0.00022089087
0.00022048712
0.00022005402
0.00021959242
0.00021910456
0.00021859431
0.00021806748
0.00021753194
0.0002169977
0.00021647637
0.00021598161
0.00021552636
0.0002151235
0.000214785
0.00021452113
0.00021434112
0.00021425349
0.00021426651
0.0002143885
0.00021462762
0.00021499132
0.0002151396
0.00021464416
0.00021423805
0.00021394598
0.00021379277
0.00021379888
0.00021397527
0.00021431997
0.00021481795
0.00021544407
0.00021616731
0.00021695522
0.00021777724
0.00021860681
0.00021942242
0.00022020766
0.00022095084
0.00022164426
0.00022228336
0.000222866
0.00022339161
0.00022386034
0.00022425951
0.00022211142
0.00022182905
0.00022153648
0.00022121625
0.0002208661
0.00022048477
0.00022007043
0.00021962295
0.00021914314
0.00021863329
0.00021809757
0.00021754231
0.00021697632
0.0002164109
0.00021585945
0.0002153377
0.00021486058
0.00021444268
0.00021409702
0.00021383438
0.00021366406
0.00021359461
0.00021363451
0.00021379274
0.00021407874
0.00021450184
0.0002147175
0.00021410956
0.00021359241
0.00021319723
0.00021295694
0.0002129001
0.00021304328
0.00021338589
0.00021390989
0.00021458425
0.00021537096
0.00021623096
0.00021712834
0.00021803272
0.00021892019
0.00021977318
0.00022057968
0.00022133224
0.00022202694
0.00022266244
0.00022323903
0.00022375789
0.00022420765
0.00022169342
0.00022141863
0.00022113072
0.00022081172
0.0002204592
0.00022007166
0.00021964709
0.0002191851
0.00021868632
0.00021815298
0.00021758936
0.00021700224
0.00021640127
0.00021579921
0.00021521151
0.00021465634
0.00021415118
0.00021371262
0.00021335489
0.00021308911
0.00021292444
0.00021286912
0.00021293172
0.00021312193
0.00021345082
0.0002139303
0.00021424725
0.00021351604
0.00021287562
0.00021236482
0.00021202682
0.00021190104
0.0002120117
0.00021235975
0.00021292261
0.0002136609
0.00021452726
0.00021547424
0.00021645949
0.00021744841
0.00021841475
0.0002193401
0.00022021255
0.00022102541
0.00022177582
0.00022246358
0.00022309018
0.00022365806
0.0002241571
0.00022126581
0.00022100047
0.00022071864
0.00022040206
0.00022004818
0.00021965522
0.00021922084
0.00021874427
0.00021822578
0.00021766733
0.00021707315
0.00021645029
0.0002158092
0.00021516417
0.000214533
0.00021393694
0.00021339666
0.00021293125
0.00021255627
0.00021228297
0.0002121199
0.00021207462
0.00021215543
0.00021237269
0.00021273946
0.00021327102
0.00021373222
0.00021286502
0.00021208608
0.00021144323
0.00021099279
0.00021078902
0.000210867
0.00021122956
0.00021184721
0.00021266879
0.00021363435
0.00021468579
0.00021577315
0.00021685727
0.00021790984
0.00021891206
0.00021985279
0.00022072664
0.0002215323
0.0002222712
0.00022294631
0.00022356153
0.00022410813
0.00022083124
0.00022057595
0.00022030129
0.00021998833
0.00021963418
0.0002192367
0.00021879309
0.00021830204
0.00021776325
0.00021717818
0.00021655075
0.00021588806
0.00021520124
0.00021450612
0.00021382327
0.0002131778
0.00021259449
0.00021209567
0.00021169835
0.00021141351
0.00021124843
0.00021120929
0.00021130364
0.00021154234
0.00021194069
0.00021251829
0.00021317775
0.00021215966
0.00021122344
0.00021042721
0.00020984406
0.00020954903
0.00020959305
0.00020998146
0.00021067423
0.00021160337
0.00021269194
0.0002138684
0.00021507396
0.00021626477
0.00021741095
0.00021849415
0.00021950479
0.00022043954
0.00022129928
0.00022208744
0.00022280889
0.00022346918
0.00022406112
0.00022039066
0.00022014798
0.00021988227
0.00021957443
0.00021922141
0.00021882065
0.00021836873
0.00021786364
0.00021730428
0.00021669128
0.00021602793
0.00021532108
0.00021458227
0.00021382883
0.00021308455
0.00021237942
0.00021174374
0.00021120409
0.00021077912
0.00021047896
0.00021030856
0.00021027173
0.00021037458
0.00021062808
0.00021104995
0.00021166511
0.00021248477
0.00021140455
0.00021028855
0.00020931146
0.00020856781
0.00020816214
0.00020816937
0.00020859844
0.00020939288
0.00021046047
0.00021170127
0.00021302695
0.00021436869
0.00021567826
0.00021692516
0.00021809267
0.00021917389
0.00022016845
0.00022108008
0.00022191479
0.00022267962
0.00022338204
0.00022401654
0.00021994929
0.0002197193
0.0002194636
0.00021916222
0.0002188117
0.00021840891
0.00021794972
0.0002174312
0.00021685114
0.000216209
0.00021550703
0.0002147514
0.00021395365
0.00021313246
0.00021231523
0.00021153828
0.00021083943
0.0002102511
0.00020979387
0.00020947593
0.00020929834
0.00020926112
0.00020936784
0.00020962891
0.00021006445
0.00021070571
0.00021159272
0.00021060771
0.00020928484
0.00020809172
0.00020714942
0.00020660467
0.00020656991
0.00020705967
0.00020799128
0.0002092372
0.00021066627
0.00021216947
0.00021366717
0.00021510769
0.00021646158
0.00021771544
0.00021886648
0.0002199184
0.00022087856
0.00022175603
0.00022256043
0.00022330128
0.00022397492
0.00021950581
0.00021929186
0.00021904837
0.0002187554
0.00021840934
0.0002180065
0.00021754191
0.0002170115
0.00021641162
0.00021574013
0.00021499767
0.00021418914
0.00021332548
0.00021242623
0.00021152265
0.0002106592
0.00020988426
0.00020923844
0.00020874461
0.0002084074
0.00020822159
0.00020818145
0.00020828675
0.00020854644
0.00020898268
0.00020963405
0.00021055357
0.00020978091
0.0002082193
0.00020676561
0.00020557221
0.00020484619
0.00020476036
0.0002053391
0.00020645637
0.00020793274
0.00020959462
0.00021130815
0.00021298296
0.00021456603
0.00021603158
0.00021737187
0.00021859004
0.00021969514
0.00022069898
0.00022161426
0.0002224534
0.00022322818
0.00022393686
0.00021907101
0.00021887256
0.00021864231
0.00021835933
0.00021801953
0.00021761854
0.00021715038
0.0002166096
0.00021599076
0.00021528959
0.00021450441
0.00021363809
0.0002127001
0.0002117099
0.00021070261
0.00020973322
0.00020886525
0.00020815147
0.00020761763
0.00020726232
0.00020707039
0.00020702761
0.00020712833
0.00020737856
0.00020780132
0.00020844303
0.00020937248
0.00020894072
0.00020710417
0.00020533453
0.00020381797
0.00020284713
0.00020269445
0.00020340369
0.00020477423
0.00020654994
0.00020849959
0.00021046083
0.00021233439
0.00021406983
0.00021564899
0.00021707296
0.00021835302
0.00021950499
0.00022054599
0.00022149276
0.00022236077
0.00022316411
0.00022390302
0.00021863638
0.00021845743
0.00021824285
0.00021797209
0.00021764104
0.00021724469
0.00021677599
0.00021622791
0.00021559289
0.00021486389
0.0002140361
0.00021310934
0.00021209041
0.00021099711
0.00020986746
0.00020876972
0.00020778956
0.00020699797
0.00020642435
0.00020605689
0.00020586457
0.00020582079
0.00020591276
0.00020614205
0.00020653081
0.00020713363
0.00020803885
0.00020811282
0.00020595992
0.00020380675
0.00020186868
0.0002005557
0.00020030772
0.00020121109
0.00020293101
0.00020509799
0.00020740268
0.00020965294
0.00021174568
0.00021363972
0.00021533025
0.00021683125
0.00021816472
0.00021935471
0.00022042441
0.00022139491
0.0002222848
0.00022311048
0.00022387408
0.0002182248
0.00021806418
0.00021786637
0.00021760992
0.00021729028
0.0002169017
0.00021643592
0.00021588409
0.00021523609
0.0002144814
0.00021361092
0.00021262
0.00021151121
0.00021029814
0.00020901915
0.00020775863
0.00020663533
0.000205749
0.00020513421
0.00020476234
0.00020457766
0.0002045365
0.00020461826
0.00020481887
0.00020515582
0.00020569005
0.00020653232
0.00020732583
0.00020481616
0.00020220276
0.00019971122
0.00019790475
0.00019750733
0.00019870659
0.00020091495
0.00020359673
0.00020633755
0.0002089201
0.00021124825
0.00021330086
0.00021509433
0.00021666054
0.00021803497
0.00021925122
0.00022033906
0.00022132401
0.0002222277
0.00022306865
0.00022385069
0.00021781569
0.00021767762
0.00021749896
0.00021725908
0.00021695363
0.00021657623
0.0002161174
0.00021556638
0.00021491025
0.00021413442
0.00021322436
0.00021216935
0.00021096591
0.00020962013
0.00020816528
0.00020670344
0.00020540347
0.00020441165
0.00020376941
0.00020342028
0.00020326831
0.00020324492
0.00020332141
0.00020348672
0.00020374622
0.00020416281
0.00020487445
0.00020604038
0.00020373282
0.00020057018
0.00019735033
0.00019481302
0.00019415696
0.00019582073
0.00019872103
0.00020208394
0.00020535567
0.00020831128
0.00021088198
0.000213083
0.00021496236
0.00021657538
0.00021797362
0.00021920117
0.00022029441
0.00022128309
0.00022219149
0.00022303988
0.00022383349
0.00021746671
0.00021734949
0.00021719135
0.00021697098
0.00021668386
0.00021632302
0.00021587779
0.00021533542
0.00021467994
0.00021389199
0.00021294997
0.00021183447
0.00021053321
0.00020904017
0.00020737303
0.00020564791
0.00020411036
0.0002029852
0.00020232279
0.0002020221
0.00020192172
0.00020191865
0.00020198148
0.00020209772
0.00020225135
0.00020250138
0.0002030184
0.00020404902
0.00020277695
0.00019900126
0.00019484877
0.00019121067
0.00019006055
0.00019246981
0.00019635967
0.00020062721
0.00020453465
0.00020789277
0.00021069623
0.00021302017
0.00021495672
0.00021659017
0.00021798987
0.00021921043
0.0002202943
0.00022127468
0.00022217783
0.00022302523
0.00022382303
0.00021719899
0.00021710701
0.00021697333
0.00021677697
0.00021651378
0.00021617622
0.00021575246
0.00021522776
0.00021458293
0.00021379351
0.00021282952
0.00021166007
0.00021026152
0.00020861248
0.00020669942
0.00020463721
0.00020278886
0.00020151911
0.00020088564
0.00020071707
0.00020074134
0.0002008073
0.00020089206
0.00020099551
0.00020105433
0.00020110024
0.00020133371
0.00020206344
0.00020232345
0.00019782307
0.00019245223
0.00018712519
0.00018495966
0.0001885733
0.00019388324
0.00019934683
0.00020399104
0.00020775255
0.00021074996
0.00021314915
0.00021509944
0.00021671782
0.00021809126
0.00021928348
0.00022034145
0.00022130052
0.00022218789
0.00022302546
0.00022381971
0.00021725806
0.0002171942
0.00021709099
0.00021692645
0.00021669677
0.00021639417
0.00021600618
0.00021551672
0.0002149041
0.00021413938
0.00021318377
0.00021199132
0.00021052167
0.00020873434
0.00020656105
0.00020406676
0.00020178541
0.00020034892
0.00019980447
0.00019987905
0.0002001059
0.00020026712
0.00020036532
0.00020045167
0.00020037154
0.00020009457
0.00019988416
0.00020010314
0.00020118398
0.00019740105
0.00019066124
0.00018291711
0.00017861495
0.00018416464
0.00019146862
0.00019845341
0.00020389609
0.00020800323
0.00021110951
0.00021350628
0.00021540949
0.00021696789
0.00021828251
0.00021942265
0.00022043708
0.00022136131
0.00022222216
0.00022304097
0.0002238238
0.00021801538
0.00021798653
0.00021792842
0.00021781385
0.00021763906
0.0002173962
0.00021707273
0.00021665179
0.00021610958
0.00021541271
0.00021451256
0.00021334267
0.00021183548
0.00020992952
0.00020748506
0.00020441346
0.00020147556
0.00019987954
0.00019957977
0.0002001779
0.00020082262
0.00020120834
0.00020138696
0.00020158531
0.00020150439
0.00020093524
0.0002003173
0.00019986288
0.00020080931
0.00019976241
0.0001912974
0.0001800218
0.00017094841
0.00017965843
0.0001894798
0.00019827228
0.00020448909
0.00020878103
0.00021184229
0.00021412159
0.0002158988
0.00021734425
0.00021856419
0.00021962741
0.00022058047
0.00022145653
0.00022228035
0.00022307167
0.00022383534
0.0002206621
0.0002207103
0.00022074018
0.00022071966
0.00022064687
0.00022051485
0.0002203123
0.00022002332
0.00021962415
0.00021907996
0.00021833689
0.00021731032
0.00021589731
0.0002140151
0.00021146305
0.00020778482
0.00020388118
0.00020236343
0.00020272357
0.00020450593
0.00020601074
0.00020691303
0.00020732689
0.00020798166
0.0002083256
0.00020732612
0.00020619159
0.0002043271
0.00020496151
0.00020348479
0.00019650053
0.0001811827
0.00016222124
0.00017630916
0.00018869814
0.00019949735
0.00020614943
0.00021024666
0.0002130043
0.00021500935
0.00021656697
0.00021784238
0.00021893147
0.00021989376
0.00022076869
0.00022158421
0.0002223613
0.00022311699
0.00022385416
0.00022642134
0.00022656459
0.0002267274
0.00022685517
0.00022694567
0.00022699399
0.00022699296
0.00022693175
0.00022679201
0.00022654406
0.00022613684
0.00022547247
0.00022438805
0.00022271885
0.00022022054
0.00021576621
0.00020956343
0.00020824351
0.00020948356
0.00021349017
0.00021646615
0.00021835843
0.00021897527
0.00022041237
0.00022211016
9.3010148e-05
9.5433527e-05
9.7692183e-05
9.9882851e-05
0.00010288307
9.4464069e-05
8.6204811e-05
0.00010657299
0.00017933429
0.00019343405
0.00020412744
0.00020945471
0.00021253485
0.00021460574
0.00021615223
0.00021739489
0.00021844703
0.00021937328
0.000220214
0.00022099657
0.00022174101
0.00022246299
0.00022317586
0.00022387982
0.00023924396
0.0002396919
0.00024019324
0.00024067984
0.00024116079
0.0002416402
0.00024212288
0.00024261258
0.00024310813
0.00024359881
0.00024405189
0.00024437463
0.00024434622
0.00024363057
0.00024201143
0.00023808036
0.00022682469
0.00022935873
0.00023549803
0.00025024184
0.00026146239
0.00027026243
0.00012828382
0.00016691245
0.00032283572
0.00046162791
0.00049956686
0.00049956686
0.00049956686
0.00049956686
0.00049956686
0.00045031232
0.00033649849
6.8075327e-05
0.0002129743
0.00021346128
0.00021437912
0.00021549468
0.0002165367
0.00021748134
0.00021834006
0.0002191315
0.00021987247
0.000220577
0.00022125686
0.00022192229
0.00022258258
0.00022324671
0.00022391168
0.00026426529
0.00026527464
0.00026642927
0.00026762674
0.0002688876
0.00027023646
0.00027170745
0.00027334358
0.00027519804
0.00027733837
0.00027985102
0.00028283349
0.00028638724
0.00029056481
0.00029520408
0.00030237247
0.0002734722
0.00030504695
0.0003566532
0.00037262813
0.00027825018
0.00031936147
0.00049956686
0.00049956686
0.00049956686
0.00049956686
0.00049956686
0.00049956686
0.00049956686
0.00049956686
0.00041263362
0.00041826883
0.00010203805
0.00026659053
0.00023114032
0.00022209733
0.00021927557
0.00021853511
0.00021855451
0.00021888201
0.00021934167
0.00021986067
0.0002204076
0.00022096917
0.00022154081
0.00022212247
0.00022271662
0.0002233276
0.0002239489
0.00030194695
0.00030409077
0.00030622215
0.00030842586
0.0003107764
0.00031334658
0.00031622236
0.000319517
0.00032338992
0.0003280847
0.00033399753
0.00034170388
0.00035173403
0.00036474822
0.00038492111
0.00040154666
0.00025707024
0.00025314069
0.00026334353
0.00048911761
0.00047852618
0.00048856795
0.00047869849
0.00047372158
0.00047746533
0.00045865797
0.00045171917
0.00045351608
0.0004409359
0.00043652021
0.00010691803
0.00010767055
0.00021977551
0.00025235654
0.00023694851
0.00022741089
0.00022311604
0.00022121927
0.00022044961
0.00022024491
0.0002203384
0.00022059811
0.00022095598
0.00022137598
0.00022183899
0.00022233541
0.00022286126
0.0002234163
0.00022399046
0.00028855997
0.00028907787
0.00028926701
0.00028945271
0.0002896371
0.00028985217
0.00029012393
0.00029048925
0.00029100112
0.00029173714
0.00029281951
0.00029386294
0.00029479998
0.00029555827
0.00029291509
0.00010292422
0.00037622236
0.00047081392
0.00047252639
0.00049383727
0.00048613843
0.00048245092
0.0001242097
0.00012127904
0.00010076997
0.00010005401
0.00010062887
0.00010197267
0.00010292711
0.00010452147
0.00020120862
0.00020767777
0.00021808234
0.00023901505
0.00023963023
0.0002307616
0.00022595796
0.00022341718
0.00022210851
0.00022149299
0.00022128049
0.00022131166
0.00022149659
0.00022178346
0.00022214204
0.00022255491
0.0002230125
0.00022351043
0.00022403527
0.00022327526
0.00022310741
0.00022281898
0.00022254024
0.00022227899
0.00022205238
0.0002218764
0.00022177439
0.00022177867
0.00022193412
0.00022230571
0.00022209373
0.00022116208
0.00021941521
0.00021672628
0.00021314409
9.585668e-05
9.9100574e-05
9.986903e-05
9.9773819e-05
0.00010014957
0.00010017634
0.00021253985
0.00021081371
0.0002089299
0.00020554387
0.0002044354
0.000203879
0.00020210795
0.00020212608
0.00020330642
0.00020901247
0.00021823577
0.00023217489
0.00023802104
0.0002324821
0.00022785758
0.0002250896
0.00022347628
0.00022257939
0.00022213296
0.00022197639
0.0002220119
0.00022217935
0.00022244144
0.00022277512
0.00022316644
0.00022360761
0.00022408218
0.00021926725
0.0002193472
0.00021947367
0.00021960911
0.00021976479
0.00021995282
0.0002201858
0.0002204798
0.00022085411
0.00022133157
0.00022186528
0.00022156864
0.00022081294
0.00021957665
0.0002178026
0.0002149883
0.0002125046
0.00021402726
0.00021587788
0.00021421491
0.00021238174
0.00021121587
0.00021005916
0.00020833732
0.00020730348
0.00020568601
0.0002047798
0.00020420535
0.00020347947
0.00020394818
0.00020593208
0.00021088823
0.0002185479
0.00022810748
0.00023383101
0.00023318219
0.00022902077
0.00022628615
0.00022454852
0.00022348511
0.0002228759
0.00022257547
0.00022248878
0.00022255377
0.0002227299
0.00022299079
0.0002233195
0.00022370559
0.00022413008
0.00021789051
0.00021797015
0.00021809557
0.0002182344
0.00021838952
0.00021856846
0.00021877976
0.00021903452
0.00021934524
0.00021972566
0.00021997941
0.00021948713
0.00021872872
0.00021765405
0.00021622655
0.00021439065
0.00021325943
0.00021411122
0.00021527015
0.00021349562
0.00021190218
0.00021068293
0.00020952624
0.00020831118
0.00020735634
0.00020629732
0.00020564692
0.00020528627
0.00020521186
0.00020608753
0.00020833099
0.00021261996
0.00021875871
0.00022561413
0.00023029951
0.00023231253
0.00022962749
0.00022708151
0.00022534775
0.00022421055
0.00022350179
0.00022309965
0.0002229186
0.00022289948
0.0002230017
0.00022319759
0.00022346852
0.00022380229
0.00022417794
0.00021721216
0.0002173332
0.00021747301
0.00021762414
0.00021779252
0.00021798459
0.00021820653
0.00021846584
0.00021876955
0.00021912304
0.00021921508
0.00021877176
0.00021811996
0.00021722969
0.00021608064
0.00021482112
0.00021419404
0.00021469775
0.00021503976
0.0002134121
0.00021201442
0.00021086236
0.00020980475
0.00020882315
0.00020800301
0.00020726739
0.00020684876
0.0002067339
0.00020702995
0.0002081229
0.00021033508
0.00021399215
0.00021887035
0.00022400907
0.00022786263
0.00023021822
0.00022984672
0.00022755965
0.000225911
0.00022476871
0.00022401237
0.00022354592
0.00022329679
0.00022321181
0.00022325266
0.00022339208
0.00022361091
0.00022389596
0.00022422482
0.0002169229
0.00021699604
0.00021711211
0.00021724734
0.00021739984
0.00021757312
0.00021777098
0.00021799832
0.00021825901
0.00021855456
0.00021852338
0.00021813371
0.00021760099
0.00021691363
0.00021608414
0.00021528979
0.00021497616
0.00021536444
0.00021499659
0.00021359526
0.00021236969
0.00021132304
0.00021038948
0.00020956899
0.00020889456
0.00020837635
0.00020813549
0.00020820838
0.00020871204
0.00020988755
0.00021195279
0.0002150504
0.00021895068
0.0002229431
0.00022613882
0.00022830341
0.00022930026
0.00022779423
0.00022627875
0.00022517909
0.00022441538
0.00022391591
0.00022362209
0.00022348833
0.00022348012
0.0002235718
0.00022374465
0.00022398514
0.00022426994
0.0002167802
0.00021689327
0.00021701889
0.00021715465
0.00021730457
0.00021747171
0.00021765777
0.00021786459
0.00021809225
0.00021833757
0.00021824924
0.00021790039
0.000217448
0.00021689675
0.0002162867
0.00021577672
0.00021563415
0.00021596291
0.00021504938
0.00021385986
0.0002127965
0.00021187038
0.00021106111
0.00021037625
0.00020983867
0.00020948093
0.00020937831
0.00020958337
0.00021019749
0.0002113767
0.0002132569
0.00021588259
0.00021904227
0.00022223317
0.00022490784
0.00022685633
0.00022808976
0.00022785104
0.00022649058
0.00022546382
0.00022472204
0.00022421444
0.00022389578
0.00022372851
0.00022368272
0.00022373519
0.00022386827
0.00022406869
0.00022431267
0.00021670688
0.00021677706
0.00021688352
0.00021700686
0.00021714458
0.00021729779
0.00021746667
0.00021765144
0.00021785019
0.00021805745
0.00021796838
0.00021768305
0.00021732697
0.00021691326
0.00021649027
0.00021618291
0.0002161561
0.00021618263
0.0002151415
0.0002141403
0.00021322895
0.00021242721
0.0002117376
0.00021117344
0.00021075746
0.00021052519
0.00021053107
0.00021082767
0.00021149507
0.00021263493
0.00021432525
0.00021655972
0.00021915712
0.00022176429
0.00022402334
0.00022576002
0.00022694876
0.00022750543
0.0002265807
0.00022564466
0.00022494501
0.00022444822
0.00022412088
0.00022393323
0.00022386019
0.00022388143
0.00022398084
0.00022414581
0.00022435251
0.00021665357
0.00021674515
0.00021685203
0.0002169682
0.00021709525
0.00021723415
0.00021738401
0.00021754364
0.00021770969
0.0002178754
0.00021779703
0.00021755898
0.00021727644
0.00021696833
0.00021668237
0.00021651218
0.00021656311
0.0002161102
0.00021525481
0.00021441818
0.00021364715
0.00021296671
0.00021239071
0.00021193643
0.00021162735
0.00021149665
0.00021158723
0.00021194538
0.00021263122
0.00021370988
0.00021522085
0.0002171336
0.00021929919
0.00022146719
0.00022339207
0.00022493352
0.00022605168
0.00022677655
0.00022657926
0.00022574188
0.00022509717
0.00022462489
0.00022430155
0.0002241044
0.00022401312
0.00022401037
0.00022408189
0.00022421601
0.00022438913
0.00021662141
0.00021668813
0.00021678313
0.00021689053
0.00021700814
0.00021713565
0.00021727119
0.00021741256
0.00021755543
0.0002176923
0.00021764827
0.00021746013
0.00021724612
0.00021702735
0.00021684661
0.00021677352
0.0002167101
0.00021608935
0.0002153869
0.00021469322
0.0002140498
0.0002134835
0.00021301335
0.00021265888
0.00021244333
0.00021239626
0.00021255254
0.0002129503
0.00021363307
0.00021464104
0.00021598935
0.0002176379
0.00021946686
0.00022129554
0.00022294898
0.0002243155
0.00022535182
0.00022606758
0.00022637962
0.00022577303
0.00022519067
0.0002247523
0.00022444251
0.00022424465
0.00022414273
0.00022412241
0.00022417135
0.00022427903
0.00022442234
0.00021659756
0.00021667003
0.00021676049
0.00021685908
0.00021696544
0.00021707922
0.0002171981
0.00021731941
0.00021743848
0.00021754793
0.00021753805
0.00021739158
0.00021723371
0.00021708542
0.00021698303
0.00021695182
0.00021664496
0.00021611052
0.00021553611
0.0002149668
0.00021443847
0.0002139775
0.00021360475
0.00021334035
0.00021320644
0.00021322875
0.00021343576
0.00021385751
0.00021452448
0.00021545987
0.00021666408
0.00021809527
0.00021965779
0.00022121864
0.00022264941
0.00022386133
0.00022481288
0.0002255023
0.00022595387
0.00022575337
0.00022523658
0.00022483807
0.00022454873
0.00022435697
0.00022425068
0.00022421831
0.00022424946
0.00022433486
0.00022445206
0.00021658665
0.00021664682
0.00021672947
0.00021682063
0.00021691833
0.00021702161
0.00021712772
0.00021723368
0.00021733473
0.00021742386
0.00021744922
0.00021734001
0.00021722941
0.00021713705
0.00021709311
0.00021696926
0.00021660137
0.00021616642
0.00021570073
0.00021524
0.00021481484
0.00021444991
0.00021416591
0.00021398243
0.0002139198
0.00021400007
0.00021424626
0.00021468126
0.00021532559
0.00021619093
0.00021726933
0.00021852099
0.00021986955
0.00022121519
0.00022246139
0.00022353746
0.00022440579
0.00022505864
0.00022550976
0.00022566429
0.00022524465
0.0002248893
0.00022462511
0.00022444457
0.00022433891
0.00022429914
0.00022431671
0.00022438364
0.0002244783
0.00021658296
0.00021664167
0.00021671872
0.00021680208
0.00021689041
0.0002169827
0.00021707609
0.00021716756
0.00021725258
0.00021732481
0.00021736756
0.00021730105
0.00021722877
0.00021717975
0.00021711461
0.00021690077
0.00021660026
0.00021625004
0.00021587792
0.00021551244
0.0002151796
0.00021490168
0.00021469813
0.00021458718
0.00021458698
0.00021471611
0.00021499283
0.00021543405
0.00021605278
0.00021685309
0.0002178226
0.00021892519
0.00022009966
0.00022126968
0.00022236133
0.0002233181
0.000224107
0.00022471761
0.00022515692
0.00022544307
0.00022522323
0.00022491243
0.00022467631
0.00022451067
0.00022440952
0.00022436615
0.00022437377
0.00022442569
0.00022450115
0.00021658777
0.00021664002
0.00021671125
0.00021678809
0.00021686872
0.00021695194
0.00021703488
0.00021711462
0.000217187
0.00021724646
0.00021728592
0.00021726954
0.00021722837
0.00021717828
0.00021706285
0.00021687339
0.00021663227
0.00021635545
0.00021606478
0.00021578337
0.00021553319
0.0002153339
0.00021520314
0.0002151573
0.00021521214
0.000215383
0.00021568404
0.00021612724
0.00021672005
0.00021746155
0.0002183374
0.00021931558
0.0002203467
0.00022137147
0.0002223324
0.00022318413
0.00022389834
0.00022446386
0.00022488352
0.0002251699
0.00022517965
0.00022491326
0.00022470674
0.00022455844
0.00022446467
0.00022442072
0.00022442142
0.00022446138
0.00022452075
0.00021659851
0.00021664749
0.00021671373
0.00021678431
0.00021685756
0.00021693234
0.00021700585
0.00021707545
0.00021713742
0.00021718707
0.0002172186
0.00021722536
0.00021720007
0.00021713619
0.00021702849
0.00021687755
0.00021668937
0.00021647699
0.00021625799
0.00021605126
0.00021587529
0.00021574714
0.00021568235
0.00021569522
0.00021579905
0.00021600619
0.00021632727
0.00021677025
0.00021733847
0.00021802782
0.00021882338
0.00021969714
0.00022060892
0.00022151203
0.00022236123
0.00022312003
0.00022376447
0.00022428376
0.00022467839
0.00022495711
0.00022509774
0.00022489675
0.00022472033
0.00022459083
0.00022450647
0.00022446425
0.00022446051
0.00022449113
0.00022453728
0.00021661465
0.00021665965
0.00021672141
0.00021678661
0.00021685353
0.00021692109
0.00021698665
0.00021704788
0.00021710163
0.00021714403
0.00021717053
0.0002171761
0.00021715565
0.00021710475
0.00021702079
0.00021690569
0.00021676509
0.00021660992
0.0002164546
0.00021631468
0.00021620568
0.00021614216
0.00021613746
0.00021620368
0.00021635174
0.00021659121
0.00021692965
0.00021737175
0.00021791782
0.00021856171
0.00021928872
0.0002200744
0.00022088587
0.0002216859
0.0002224386
0.00022311458
0.00022369389
0.0002241668
0.00022453259
0.00022479756