/*--------------------------------*- C++ -*----------------------------------*\
| =========                 |                                                 |
| \\      /  F ield         | foam-extend: Open Source CFD                    |
|  \\    /   O peration     | Version:     4.1                                |
|   \\  /    A nd           | Web:         http://www.foam-extend.org         |
|    \\/     M anipulation  |                                                 |
\*---------------------------------------------------------------------------*/
FoamFile
{
    version     2.0;
    format      ascii;
    class       surfaceScalarField;
    location    "0.14";
    object      phi;
}
// * * * * * * * * * * * * * * * * * * * * * * * * * * * * * * * * * * * * * //

dimensions      [0 3 -1 0 0 0 0];

internalField   nonuniform List<scalar> 
8438
(
-0.60177529
0.00052837498
-0.60239562
0.00062033022
-0.60302722
0.0006315916
-0.60369417
0.00066695448
-0.60439588
0.00070171227
-0.60514285
0.00074696548
-0.60594278
0.00079993106
-0.60680453
0.00086174827
-0.60773601
0.00093147758
-0.60874428
0.0010082756
-0.60983472
0.0010904396
-0.61101033
0.001175611
-0.61227088
0.0012605435
-0.61361198
0.0013411082
-0.6150243
0.0014123133
-0.61649279
0.0014684908
-0.61799637
0.0015035802
-0.61950793
0.0015115647
-0.62099496
0.0014870255
-0.62242055
0.0014255915
-0.62374499
0.0013244358
-0.62492757
0.0011825811
-0.62592878
0.0010012122
-0.62671256
0.00078378618
-0.62724877
0.00053620118
-0.62751541
0.00026664766
-0.6275009
-1.4510179e-05
-0.62720483
-0.00029607569
-0.62664009
-0.00056473462
-0.62583376
-0.00080633139
-0.62482485
-0.0010089154
-0.62366142
-0.0011634264
-0.62239665
-0.001264766
-0.6210842
-0.0013124563
-0.6197738
-0.0013103968
-0.6185085
-0.0012652979
-0.61732246
-0.0011860473
-0.61624076
-0.0010816917
-0.61527969
-0.00096107627
-0.61444801
-0.00083168092
-0.61374835
-0.00069965787
-0.61317882
-0.00056952984
-0.61273435
-0.00044446726
-0.6124079
-0.00032644689
-0.61219123
-0.00021667049
-0.61207557
-0.00011566556
-0.61205012
-2.5446675e-05
-0.61209807
4.7945403e-05
0.00014688268
-0.61563561
0.00087378069
-0.61596952
0.00095423787
-0.61632028
0.00098234807
-0.61669755
0.0010442302
-0.61710959
0.0011137518
-0.61756588
0.0012032488
-0.618075
0.0013090552
-0.61864584
0.0014325841
-0.61928656
0.0015722019
-0.62000447
0.0017261855
-0.62080525
0.0018912158
-0.62169225
0.0020626144
-0.62266563
0.0022339198
-0.62372138
0.0023968615
-0.62485046
0.0025413937
-0.62603802
0.0026560548
-0.62726299
0.0027285468
-0.62849804
0.0027466144
-0.62971022
0.002699202
-0.63086199
0.0025773606
-0.63191282
0.0023752721
-0.63282109
0.0020908514
-0.63354627
0.0017263916
-0.63405126
0.0012887695
-0.6343049
0.00078984971
-0.63428444
0.00024618065
-0.63397775
-0.00032119521
-0.6333861
-0.00088772692
-0.63252414
-0.0014267
-0.63141901
-0.0019114523
-0.63011015
-0.0023177797
-0.62864624
-0.0026273411
-0.6270813
-0.0028297007
-0.62546983
-0.0029239244
-0.6238621
-0.0029181262
-0.62230141
-0.0028259925
-0.62082176
-0.0026657002
-0.61944792
-0.0024555282
-0.61819566
-0.0022133373
-0.61707325
-0.0019540876
-0.61608286
-0.0016900441
-0.61522226
-0.0014301309
-0.61448619
-0.0011805381
-0.61386764
-0.00094499921
-0.61335876
-0.00072555043
-0.61295149
-0.0005229327
-0.61263838
-0.00033856119
-0.61241443
-0.0001760049
-2.2746163e-05
-0.61616888
0.0012009849
-0.61648435
0.0012697123
-0.61681293
0.0013109242
-0.61716578
0.0013970812
-0.617552
0.0014999673
-0.61798138
0.0016326291
-0.61846293
0.0017906041
-0.61900585
0.001975507
-0.61961878
0.0021851305
-0.62030957
0.00241698
-0.62108462
0.0026662607
-0.62194809
0.0029260934
-0.62290105
0.0031868794
-0.6239404
0.0034362091
-0.62505789
0.0036588835
-0.62623927
0.0038374317
-0.62746372
0.003952997
-0.62870378
0.0039866763
-0.62992596
0.0039213819
-0.6310918
0.0037432012
-0.63215954
0.0034430117
-0.63308603
0.0030173374
-0.63382901
0.0024693699
-0.63434945
0.0018092115
-0.63461423
0.0010546358
-0.63459865
0.00023060077
-0.63428893
-0.0006309178
-0.63368418
-0.0014924726
-0.6327979
-0.0023129852
-0.63165821
-0.0030511397
-0.63030688
-0.0036691081
-0.628796
-0.0041382248
-0.62718352
-0.0044421835
-0.62552763
-0.0045798142
-0.62388127
-0.0045644873
-0.62228945
-0.004417813
-0.6207866
-0.0041685416
-0.61939719
-0.0038449384
-0.61813597
-0.0034745648
-0.61700995
-0.0030801077
-0.61601993
-0.0026800579
-0.61516242
-0.0022876404
-0.61443106
-0.0019119031
-0.61381795
-0.0015581083
-0.61331464
-0.0012288565
-0.61291279
-0.00092478247
-0.61260508
-0.00064627122
-0.61238684
-0.00039425347
-0.00016463164
-0.61622783
0.0014996887
-0.61652738
0.0015692609
-0.61684421
0.0016277527
-0.61718595
0.0017388195
-0.61756196
0.0018759765
-0.61798154
0.0020522122
-0.61845396
0.0022630235
-0.61898866
0.0025102119
-0.61959479
0.0027912567
-0.62028087
0.0031030635
-0.62105418
0.003439564
-0.62191992
0.0037918369
-0.62288028
0.0041472399
-0.62393327
0.0044891991
-0.62507156
0.004797173
-0.62628143
0.0050472992
-0.62754204
0.0052136087
-0.62882521
0.0052698442
-0.63009606
0.0051922304
-0.63131413
0.0049612725
-0.6324352
0.0045640864
-0.6334133
0.0039954359
-0.63420314
0.0032592095
-0.63476251
0.0023685802
-0.63505521
0.0013473365
-0.6350537
0.00022909067
-0.63474185
-0.00094276883
-0.63411726
-0.0021170574
-0.63319341
-0.0032368392
-0.63200023
-0.0042443235
-0.63058327
-0.0050860632
-0.62899994
-0.0057215508
-0.6273144
-0.0061277243
-0.6255907
-0.0063035174
-0.62388585
-0.0062693333
-0.6222475
-0.006056163
-0.62071062
-0.0057054244
-0.61929907
-0.0052564878
-0.61802597
-0.0047476704
-0.61689637
-0.0042097033
-0.615909
-0.0036674293
-0.61505848
-0.0031381568
-0.61433691
-0.0026334778
-0.61373526
-0.0021597566
-0.61324442
-0.0017196937
-0.61285595
-0.0013132604
-0.61256294
-0.00093927421
-0.61236117
-0.00059602705
-0.00028085056
-0.61636007
0.001790076
-0.61665257
0.0018617685
-0.61695578
0.0019309616
-0.61728152
0.0020645548
-0.61763939
0.0022338466
-0.61803964
0.0024524673
-0.61849225
0.002715634
-0.61900751
0.0030254679
-0.61959558
0.0033793246
-0.62026626
0.0037737506
-0.62102836
0.0042016628
-0.62188884
0.0046523127
-0.62285172
0.0051101256
-0.62391682
0.0055542985
-0.62507829
0.0059586399
-0.6263233
0.0062923036
-0.62763106
0.0065213722
-0.62897238
0.0066111683
-0.63031044
0.0065302854
-0.63160193
0.0062527643
-0.63279918
0.0057613345
-0.63385221
0.0050484691
-0.63471145
0.0041184503
-0.63533007
0.0029871994
-0.63566733
0.0016845946
-0.63569142
0.00025317976
-0.63538263
-0.0012515561
-0.63473617
-0.0027635177
-0.63376517
-0.0042078387
-0.63250179
-0.0055077025
-0.63099694
-0.0065909194
-0.62931566
-0.0074028257
-0.62753117
-0.0079122152
-0.62571607
-0.0081186222
-0.623933
-0.0080523972
-0.62223322
-0.0077559476
-0.62065211
-0.0072865313
-0.61921251
-0.0066960903
-0.617925
-0.0060351773
-0.6167918
-0.0053429066
-0.61580862
-0.0046506099
-0.61496743
-0.0039793413
-0.61425809
-0.003342821
-0.61366986
-0.0027479865
-0.61319244
-0.0021971145
-0.61281676
-0.0016889415
-0.61253586
-0.0012201731
-0.61234584
-0.00078604166
-0.00038189402
-0.61649266
0.0020438215
-0.6167553
0.0021244092
-0.61703634
0.0022120078
-0.61734276
0.0023709769
-0.61768334
0.0025744221
-0.61806752
0.0028366447
-0.6185053
0.0031534172
-0.61900733
0.0035274958
-0.61958453
0.0039565279
-0.62024784
0.0044370616
-0.62100755
0.0049613733
-0.62187245
0.0055172132
-0.62284862
0.0060862948
-0.62393793
0.006643606
-0.62513631
0.0071570211
-0.62643205
0.0075880408
-0.62780446
0.0078937846
-0.62922305
0.0080297527
-0.63064848
0.0079557219
-0.63203385
0.0076381357
-0.63332712
0.0070545986
-0.6344733
0.0061946502
-0.63541752
0.0050626742
-0.63610724
0.0036769205
-0.63649619
0.002073538
-0.63654734
0.00030433347
-0.63623665
-0.0015622464
-0.63555636
-0.0034438062
-0.63451906
-0.0052451454
-0.63315952
-0.0068672372
-0.6315356
-0.0082148375
-0.62972256
-0.0092158669
-0.62780599
-0.0098287918
-0.62587029
-0.010054315
-0.62398533
-0.0099373553
-0.62220697
-0.0095343129
-0.62057058
-0.0089229188
-0.61909726
-0.008169411
-0.6177939
-0.0073385353
-0.61665877
-0.0064780343
-0.61568358
-0.0056258059
-0.61485682
-0.0048060969
-0.61416548
-0.0040341666
-0.61359662
-0.0033168418
-0.61313835
-0.0026553902
-0.61278047
-0.0020468215
-0.61251512
-0.0014855163
-0.61233738
-0.00096378625
-0.0004743228
-0.6167141
0.0022926228
-0.61696872
0.002379029
-0.61723079
0.0024740699
-0.61751409
0.0026542819
-0.6178278
0.002888137
-0.6181828
0.00319164
-0.61858993
0.0035605503
-0.61906098
0.0039985388
-0.61960829
0.004503843
-0.6202447
0.0050734726
-0.6209829
0.0056995701
-0.62183455
0.0063688649
-0.62280895
0.0070606976
-0.62391125
0.0077459062
-0.62514029
0.0083860523
-0.62648629
0.0089340442
-0.62792912
0.0093366194
-0.62943679
0.0095374159
-0.63096688
0.0094858106
-0.63246789
0.0091391473
-0.63388233
0.0084690372
-0.63514894
0.0074612677
-0.63620625
0.0061199816
-0.63699427
0.0044649362
-0.63745932
0.0025385905
-0.6375571
0.0004021133
-0.63725682
-0.0018625261
-0.63654524
-0.0041553866
-0.63543306
-0.0063573281
-0.63395786
-0.0083424324
-0.63218674
-0.009985959
-0.63020882
-0.011193783
-0.62812688
-0.011910738
-0.6260418
-0.012139391
-0.62403236
-0.011946795
-0.62216023
-0.011406446
-0.62045984
-0.010623308
-0.61894951
-0.0096797357
-0.61763087
-0.0086571841
-0.6164969
-0.0076120001
-0.61553411
-0.0065885954
-0.61472667
-0.005613535
-0.61405805
-0.0047027933
-0.61351272
-0.0038621709
-0.61307695
-0.0030911586
-0.61273939
-0.0023843799
-0.61249145
-0.0017334552
-0.61232756
-0.0011276771
-0.00055693248
-0.61690605
0.0024892043
-0.61711431
0.0025872955
-0.61734252
0.00270228
-0.61759603
0.0029077872
-0.61788297
0.0031750766
-0.61821286
0.0035215365
-0.6185965
0.0039441867
-0.61904607
0.0044481055
-0.61957496
0.0050327383
-0.62019762
0.0056961303
-0.62092895
0.0064309043
-0.62178345
0.0072233604
-0.62277369
0.0080509413
-0.62390832
0.0088805367
-0.62518938
0.009667109
-0.62660932
0.010353979
-0.6281486
0.010875901
-0.62977317
0.011161986
-0.63143672
0.011149366
-0.63308201
0.01078444
-0.63464491
0.010031932
-0.63605654
0.0088728975
-0.63724759
0.0073110342
-0.63814909
0.005366433
-0.63869871
0.0030882134
-0.63884379
0.00054719636
-0.63854621
-0.0021601139
-0.63778673
-0.0049148606
-0.63657361
-0.007570451
-0.63494696
-0.0099690787
-0.63298513
-0.011947789
-0.63079486
-0.013384058
-0.6285018
-0.014203796
-0.62622942
-0.014411771
-0.62406673
-0.014109489
-0.62208247
-0.013390706
-0.62030831
-0.012397469
-0.61875824
-0.011229797
-0.61742638
-0.0099890476
-0.61629875
-0.0087396259
-0.61535517
-0.0075321815
-0.61457442
-0.0063942801
-0.61393571
-0.0053415062
-0.61342039
-0.0043774862
-0.6130125
-0.0034990501
-0.61269914
-0.0026977475
-0.61247057
-0.0019620222
-0.61232032
-0.0012779222
-0.00063245628
-0.61720917
0.0026868871
-0.6174125
0.0027906344
-0.61761906
0.0029088362
-0.61784443
0.0031331564
-0.6180973
0.0034279499
-0.61838899
0.0038132209
-0.61873111
0.0042863074
-0.61913705
0.0048540506
-0.61962185
0.0055175338
-0.6202023
0.0062765845
-0.6208966
0.0071252064
-0.62172349
0.0080502411
-0.62270063
0.0090280893
-0.62384228
0.010022184
-0.62515584
0.010980666
-0.62663783
0.011835967
-0.6282706
0.012508675
-0.63001797
0.012909352
-0.63182905
0.012960448
-0.63363958
0.012594968
-0.63537757
0.011769924
-0.6369652
0.010460527
-0.63832434
0.0086701757
-0.63937514
0.0064172305
-0.64004459
0.003757668
-0.64026891
0.00077150901
-0.6399984
-0.0024306234
-0.63920214
-0.0057111199
-0.63788212
-0.0088904688
-0.63607984
-0.011771359
-0.63388844
-0.014139191
-0.63143839
-0.015834106
-0.62888723
-0.016754961
-0.62639052
-0.016908472
-0.62404844
-0.016451572
-0.62193834
-0.01550081
-0.62008595
-0.014249852
-0.61849878
-0.012816972
-0.61716045
-0.011327376
-0.61604806
-0.0098520194
-0.61513313
-0.0084471117
-0.61438815
-0.0071392564
-0.6137875
-0.0059421565
-0.61330919
-0.0048557956
-0.61293497
-0.0038732678
-0.61265048
-0.0029822399
-0.61244501
-0.0021674953
-0.61231128
-0.0014116459
-0.00069878988
-0.61744002
0.0028126562
-0.61757776
0.002928372
-0.61773686
0.0030679323
-0.61791966
0.0033159583
-0.61813363
0.0036419205
-0.61838801
0.0040675977
-0.61869424
0.0045925421
-0.61906619
0.0052259993
-0.61952022
0.0059715605
-0.6200753
0.0068316713
-0.62075277
0.0078026712
-0.62157548
0.0088729535
-0.62256621
0.010018819
-0.62374491
0.01120088
-0.62512462
0.01236038
-0.62670614
0.013417488
-0.62847381
0.014276341
-0.63038792
0.014823465
-0.63239154
0.014964071
-0.63441145
0.014614882
-0.6363663
0.013724767
-0.63816747
0.012261696
-0.63972674
0.010229452
-0.64095061
0.0076410969
-0.64175328
0.0045603365
-0.64205835
0.0010765789
-0.64180442
-0.0026845551
-0.64094856
-0.0065669798
-0.63948556
-0.010353461
-0.6374562
-0.013800719
-0.63497093
-0.016624468
-0.63218939
-0.018615643
-0.62931169
-0.019632664
-0.62653897
-0.019681192
-0.62398145
-0.01900909
-0.62172691
-0.017755344
-0.61978997
-0.016186796
-0.61816852
-0.014438419
-0.61683172
-0.012664182
-0.61574515
-0.010938587
-0.61487008
-0.0093221813
-0.61417153
-0.0078378092
-0.61361834
-0.0064953426
-0.61318484
-0.0052892999
-0.61285033
-0.0042077751
-0.61259894
-0.0032336324
-0.612419
-0.002347431
-0.61230264
-0.0015280094
-0.00075647733
-0.61781343
0.0029487429
-0.6179534
0.0030683496
-0.61809144
0.0032059718
-0.61824435
0.0034688624
-0.61842005
0.0038176203
-0.61862972
0.0042772739
-0.61888531
0.0048481289
-0.61920149
0.0055421774
-0.61959596
0.0063660347
-0.62009011
0.0073258218
-0.6207091
0.0084216599
-0.62148143
0.0096452794
-0.62243738
0.010974773
-0.62360604
0.012369544
-0.62501021
0.013764542
-0.62665892
0.015066203
-0.62854195
0.016159372
-0.63061618
0.016897691
-0.6328178
0.017165694
-0.63506263
0.016859707
-0.63725846
0.015920599
-0.63930425
0.014307487
-0.64110187
0.012027076
-0.6425423
0.0090815232
-0.64352592
0.0055439613
-0.64396165
0.0015123008
-0.64377015
-0.002876053
-0.64288382
-0.0074533034
-0.64127995
-0.011957331
-0.63899265
-0.016088025
-0.63615535
-0.019461767
-0.63296746
-0.021803532
-0.62968974
-0.022910384
-0.62659177
-0.022779162
-0.62378942
-0.021811444
-0.62138291
-0.020161846
-0.61936699
-0.018202722
-0.61772555
-0.01607986
-0.61640794
-0.013981793
-0.61536542
-0.011981101
-0.61454707
-0.010140538
-0.6139096
-0.0084752744
-0.61341609
-0.0069888516
-0.61303726
-0.005668135
-0.61275023
-0.0044948052
-0.6125379
-0.0034459636
-0.61238792
-0.0024974102
-0.61229197
-0.0016239608
-0.00080364362
-0.61806433
0.0029918434
-0.61811785
0.0031218695
-0.61819297
0.0032810963
-0.61828784
0.0035637348
-0.61840882
0.0039385983
-0.61856415
0.0044326042
-0.61876541
0.0050493888
-0.61902774
0.0058045038
-0.61937048
0.0067087753
-0.61981786
0.0077732043
-0.62039937
0.0090031707
-0.62114955
0.010395453
-0.62210651
0.011931739
-0.62330877
0.013571807
-0.62478919
0.015244954
-0.62656504
0.016842054
-0.62863177
0.018226105
-0.63093893
0.01920485
-0.63341253
0.019639294
-0.63595365
0.019400832
-0.63845759
0.018424533
-0.64080879
0.01665869
-0.64289955
0.01411783
-0.64459984
0.010781821
-0.6457915
0.0067356133
-0.64636532
0.0020861237
-0.64622429
-0.0030170853
-0.64527625
-0.0084013392
-0.64348127
-0.013752311
-0.64086024
-0.018709052
-0.63757257
-0.022749437
-0.63386388
-0.025512224
-0.63007622
-0.026698048
-0.62658209
-0.026273289
-0.62349061
-0.024902921
-0.62091759
-0.022734865
-0.61882474
-0.020295572
-0.61717645
-0.017728153
-0.61589552
-0.015262726
-0.61491549
-0.012961125
-0.61417094
-0.010885092
-0.61360933
-0.0090368894
-0.61318757
-0.0074106038
-0.61287285
-0.0059828558
-0.61264033
-0.0047273227
-0.61247198
-0.0036143135
-0.61235508
-0.0026143168
-0.61228118
-0.0016978636
-0.00083986894
-0.61849024
0.0030557553
-0.61855562
0.0031872522
-0.61861356
0.0033390378
-0.61868087
0.0036310416
-0.61876402
0.0040217535
-0.61887307
0.0045416462
-0.61901924
0.0051955643
-0.6192175
0.0060027657
-0.61948741
0.0069786838
-0.6198546
0.008140398
-0.62035195
0.0095005123
-0.62102022
0.011063727
-0.62190747
0.012818987
-0.62306616
0.014730502
-0.62454635
0.016725138
-0.6263818
0.018677512
-0.62858297
0.020427272
-0.63109231
0.021714192
-0.63382494
0.022371926
-0.63666379
0.022239673
-0.63948995
0.021250702
-0.64216998
0.019338711
-0.64458921
0.016537064
-0.64659311
0.012785717
-0.64804735
0.0081898529
-0.64882965
0.0028684249
-0.64882208
-0.0030246548
-0.64788137
-0.0093420436
-0.64592222
-0.015711464
-0.64292977
-0.021701505
-0.6390984
-0.026580808
-0.63473817
-0.029872452
-0.63031096
-0.031125256
-0.626355
-0.030229246
-0.62294571
-0.02831221
-0.62021668
-0.025463896
-0.61807463
-0.022437628
-0.61645583
-0.019346951
-0.61524775
-0.016470807
-0.61436267
-0.013846204
-0.61371894
-0.011528817
-0.6132547
-0.0095011329
-0.61292129
-0.0077440141
-0.61268316
-0.0062209853
-0.61251435
-0.0048961331
-0.6123966
-0.0037320633
-0.61231736
-0.0026935573
-0.61226846
-0.001746766
-0.00086352703
-0.6187453
0.0030091073
-0.61870567
0.0031476208
-0.61868523
0.0033185964
-0.61867731
0.0036231147
-0.61868621
0.0040306587
-0.61871802
0.0045734568
-0.61878312
0.0052606617
-0.61889657
0.006116221
-0.61907962
0.0071617327
-0.61936134
0.008422112
-0.61978037
0.009919542
-0.62038629
0.011669655
-0.6212395
0.013672194
-0.62240854
0.015899535
-0.62396228
0.018278877
-0.62595088
0.020666118
-0.62840157
0.022877956
-0.63123791
0.024550538
-0.63435533
0.02548934
-0.6376095
0.025493849
-0.64086558
0.024506779
-0.64397043
0.022443561
-0.64681242
0.019379058
-0.64920362
0.015176912
-0.65098319
0.0099694259
-0.65200564
0.0038908722
-0.65212766
-0.0029026307
-0.65115121
-0.010318497
-0.64895579
-0.017906883
-0.64547668
-0.025180613
-0.64094852
-0.031108969
-0.6357461
-0.035074877
-0.63048909
-0.036382264
-0.62598057
-0.034737766
-0.62220568
-0.032087095
-0.61932178
-0.028347799
-0.61715077
-0.024608642
-0.61559191
-0.020905811
-0.61448772
-0.01757499
-0.61372566
-0.014608269
-0.61320614
-0.012048335
-0.61285778
-0.0098494975
-0.6126268
-0.0079749875
-0.61247564
-0.0063721472
-0.61237792
-0.0049938543
-0.6123158
-0.0037941835
-0.61227744
-0.002731921
-0.61225535
-0.0017688558
-0.00087392283
-0.61919249
0.0029902043
-0.61917259
0.0031277198
-0.61914053
0.003286543
-0.61911094
0.0035935268
-0.61908781
0.0040075245
-0.61907855
0.0045641947
-0.61909212
0.0052742354
-0.61914186
0.0061659639
-0.61924713
0.0072669993
-0.61943588
0.008610863
-0.61974755
0.010231212
-0.62023614
0.012158247
-0.62097229
0.014408342
-0.62204318
0.016970422
-0.6235462
0.019781902
-0.62556311
0.022683024
-0.62816337
0.025478217
-0.63125148
0.027638646
-0.63470352
0.028941385
-0.6383431
0.029133425
-0.64202091
0.028184592
-0.64555567
0.025978314
-0.64884675
0.022670144
-0.65165366
0.017983825
-0.65379235
0.012108113
-0.65512433
0.0052228526
-0.65551156
-0.0025154067
-0.65465712
-0.011172937
-0.65233007
-0.020233933
-0.64833325
-0.029177427
-0.64295113
-0.036491095
-0.6366535
-0.041372507
-0.63030282
-0.042732939
-0.62515902
-0.039881567
-0.62100716
-0.036238951
-0.61802538
-0.031329586
-0.61590079
-0.026733226
-0.61447903
-0.022327577
-0.61354551
-0.018508507
-0.61295975
-0.015194031
-0.61260467
-0.012403413
-0.6124014
-0.010052769
-0.61229352
-0.0080828606
-0.61224364
-0.0064220331
-0.61222675
-0.005010744
-0.61222676
-0.00379417
-0.61223349
-0.0027251961
-0.61224076
-0.0017615862
-0.00086972918
-0.61944614
0.0028543464
-0.61931219
0.0029937709
-0.61919072
0.0031650744
-0.61907072
0.0034735338
-0.61895301
0.0038898097
-0.61883972
0.004450901
-0.61873755
0.0051720678
-0.61865851
0.0060869262
-0.61862237
0.0072308615
-0.61865989
0.0086483832
-0.61881701
0.010388325
-0.61915968
0.012500917
-0.61977787
0.015026537
-0.62078724
0.01797979
-0.62232322
0.021317883
-0.62450223
0.024862031
-0.6274476
0.028423592
-0.63100927
0.031200318
-0.6350194
0.032951517
-0.63924468
0.033358695
-0.64351549
0.032455405
-0.64761499
0.030077819
-0.651499
0.026554153
-0.65487008
0.021354902
-0.6575107
0.014748733
-0.65927194
0.0069840922
-0.65998311
-0.0018042381
-0.65919681
-0.011959239
-0.65661913
-0.022811604
-0.65190865
-0.033887911
-0.64543143
-0.042968316
-0.63771195
-0.049091991
-0.62990983
-0.050535052
-0.62404769
-0.04574371
-0.61949398
-0.040792664
-0.61645739
-0.034366177
-0.61443365
-0.028756966
-0.61320314
-0.023558079
-0.61248592
-0.019225726
-0.61211202
-0.015567932
-0.61194791
-0.012567525
-0.61190875
-0.010091929
-0.61193728
-0.0080543349
-0.6119977
-0.0063616113
-0.61206761
-0.0049408332
-0.61213356
-0.0037282204
-0.61218767
-0.0026710873
-0.61222554
-0.0017237111
-0.00085047291
-0.61985831
0.0027421404
-0.61974319
0.0028786478
-0.6196133
0.0030351891
-0.61947775
0.0033379769
-0.61933666
0.0037487283
-0.61919301
0.0043072448
-0.61905134
0.0050304007
-0.61892062
0.0059562014
-0.61881647
0.0071267115
-0.61876496
0.0085968727
-0.61880768
0.010431053
-0.61900877
0.012702008
-0.61946265
0.015480415
-0.62030235
0.018819483
-0.62170394
0.022719482
-0.6238372
0.026995289
-0.62694921
0.0315356
-0.63083029
0.035081399
-0.63527093
0.037392159
-0.63997514
0.038062899
-0.64477763
0.037257901
-0.64941452
0.034714708
-0.65393541
0.031075041
-0.65789174
0.025311232
-0.66098789
0.017844886
-0.66313161
0.0091278099
-0.66430712
-0.00062872671
-0.6639192
-0.012347165
-0.66144004
-0.025290767
-0.65608243
-0.039245512
-0.64825227
-0.050798478
-0.63857123
-0.058773033
-0.6286897
-0.060416579
-0.62202286
-0.052410555
-0.61713374
-0.045681784
-0.61421173
-0.037288189
-0.61246622
-0.030502478
-0.61157837
-0.024445929
-0.61119385
-0.019610244
-0.61111439
-0.015647384
-0.61119742
-0.012484501
-0.61135904
-0.0099303095
-0.6115473
-0.0078660739
-0.61173251
-0.0061764052
-0.61189802
-0.0047753234
-0.61203513
-0.0035911084
-0.61213964
-0.0025665724
-0.61220978
-0.0016535693
-0.00081530688
-0.62012879
0.0025268653
-0.61990976
0.0026596243
-0.61969122
0.0028166395
-0.61945993
0.0031066893
-0.61921137
0.0035001745
-0.61894164
0.0040375063
-0.61865004
0.0047388054
-0.61834032
0.005646482
-0.61802373
0.0068101188
-0.61772394
0.0082970861
-0.61748466
0.01019177
-0.61738081
0.012598158
-0.61753247
0.015632072
-0.61812101
0.019408026
-0.61940422
0.024002698
-0.62163166
0.029222722
-0.62523754
0.035141481
-0.62984525
0.03968911
-0.63513576
0.042682669
-0.64069195
0.043619086
-0.64632681
0.042892761
-0.6516629
0.040050803
-0.6569722
0.036384335
-0.66168543
0.030024467
-0.6654694
0.021628852
-0.66838175
0.012040164
-0.67041274
0.0014022637
-0.67044364
-0.012316263
-0.66781552
-0.027918885
-0.66135392
-0.045707113
-0.65177044
-0.060381964
-0.63957186
-0.07097161
-0.62688447
-0.073103963
-0.61948747
-0.059807561
-0.61435987
-0.050809385
-0.61168163
-0.039966431
-0.61031546
-0.031868648
-0.60983867
-0.024922718
-0.60983292
-0.019615993
-0.61007646
-0.015403838
-0.61042459
-0.012136377
-0.61079768
-0.0095572141
-0.6111519
-0.0075118546
-0.61146523
-0.0058630736
-0.61172795
-0.0045126105
-0.61193681
-0.0033822422
-0.6120918
-0.0024115824
-0.61219407
-0.0015513037
-0.00076442537
-0.62033227
0.0023122026
-0.62011435
0.0024416962
-0.61988178
0.0025840782
-0.61963405
0.0028589545
-0.61936578
0.0032319097
-0.61907334
0.0037450579
-0.61875426
0.0044197341
-0.61840951
0.0053017288
-0.61804589
0.0064465023
-0.61768063
0.007931819
-0.61734852
0.0098596608
-0.61711374
0.012363382
-0.6170866
0.015604933
-0.61744744
0.019768866
-0.61849219
0.025047446
-0.62052539
0.031255917
-0.62435287
0.038968965
-0.62940789
0.044744127
-0.63526245
0.048537232
-0.64134672
0.049703352
-0.64756255
0.049108598
-0.65343982
0.045928075
-0.65973589
0.042680405
-0.66541388
0.035702453
-0.66981746
0.026032434
-0.67300374
0.015226443
-0.67559278
0.0039912994
-0.67648643
-0.011422611
-0.67477357
-0.029631739
-0.66790181
-0.052578876
-0.65631738
-0.071966399
-0.64038458
-0.086904411
-0.62317738
-0.09031116
-0.61498124
-0.068003695
-0.60998191
-0.055808718
-0.6079831
-0.041965246
-0.60739619
-0.03245555
-0.60761846
-0.024700453
-0.60818835
-0.0190461
-0.60887781
-0.014714385
-0.60956494
-0.011449241
-0.61019172
-0.0089304362
-0.61073502
-0.0069685524
-0.61118845
-0.0054096433
-0.61155412
-0.0041469424
-0.61183719
-0.0030991718
-0.6120435
-0.0022052718
-0.61217809
-0.0014167186
-0.00069771111
-0.62028826
0.0020342502
-0.62000272
0.0021561567
-0.61970097
0.0022823266
-0.61937134
0.0025293245
-0.61900249
0.0028630533
-0.61858274
0.0033253075
-0.61810013
0.0039371296
-0.61754352
0.0047451137
-0.61690473
0.0058077201
-0.6161835
0.0072105877
-0.61539682
0.0090729782
-0.61459698
0.011563538
-0.61390265
0.014910604
-0.61354763
0.019413845
-0.61399151
0.025491328
-0.61573379
0.032998199
-0.62027457
0.043509745
-0.6265147
0.050984258
-0.63369823
0.055720764
-0.64105006
0.057055177
-0.64851968
0.056578222
-0.65521379
0.052622182
-0.66249999
0.049966603
-0.66900265
0.042205118
-0.67376646
0.03079624
-0.67802814
0.019488124
-0.68311583
0.0090789879
-0.68579884
-0.0087396013
-0.68462222
-0.030808358
-0.67573272
-0.061468374
-0.66136184
-0.086337282
-0.64098616
-0.10728009
-0.61786883
-0.11342849
-0.60979369
-0.076078837
-0.60542726
-0.060175147
-0.60431852
-0.043073983
-0.60459373
-0.032180345
-0.60551338
-0.0237808
-0.60664141
-0.017918068
-0.60775324
-0.013602556
-0.60876005
-0.010442432
-0.60962507
-0.0080654138
-0.61034584
-0.0062477893
-0.61093056
-0.0048249174
-0.61139257
-0.0036849359
-0.61174493
-0.0027468155
-0.61199904
-0.0019511581
-0.61216364
-0.0012521157
-0.00061640366
-0.61844857
0.0017088585
-0.61812207
0.0018296517
-0.61778272
0.0019429818
-0.6174162
0.0021628046
-0.61700969
0.0024565446
-0.61655022
0.0028658356
-0.6160247
0.0034116054
-0.61542053
0.0041409486
-0.61472751
0.005114702
-0.61394197
0.0064250474
-0.61307494
0.0082059493
-0.61216799
0.010656583
-0.611323
0.01406562
-0.61074011
0.018830954
-0.61087819
0.025629403
-0.61212906
0.034249077
-0.61707904
0.048459718
-0.6240284
0.057933621
-0.63198112
0.06367348
-0.63966409
0.064738154
-0.64737067
0.064284801
-0.65372995
0.058981457
-0.66253742
0.05877408
-0.67083231
0.050500009
-0.67708149
0.037045411
-0.6814235
0.023830139
-0.68616865
0.013824133
-0.68961206
-0.0052961886
-0.69116631
-0.029254103
-0.6843428
-0.068291889
-0.66862618
-0.1020539
-0.64165174
-0.13425453
-0.60799591
-0.14708432
-0.5997736
-0.084301146
-0.59758375
-0.062365003
-0.59849982
-0.042157908
-0.60055796
-0.030122209
-0.60273914
-0.021599617
-0.6047577
-0.01589951
-0.60647272
-0.011887533
-0.60789174
-0.0090234201
-0.60903931
-0.006917843
-0.60995633
-0.005330766
-0.6106786
-0.0041026512
-0.61123739
-0.0031261384
-0.61165727
-0.002326937
-0.61195699
-0.0016514375
-0.61214987
-0.0010592402
-0.00052132219
-0.61468056
0.0013807132
-0.61434228
0.0014913651
-0.61396908
0.0015697889
-0.61355425
0.0017479681
-0.6130795
0.0019818018
-0.61252512
0.0023114472
-0.61186598
0.0027524733
-0.61107136
0.0033463272
-0.61010341
0.0041467475
-0.60891692
0.0052385634
-0.60746193
0.0067509562
-0.60569437
0.0088890189
-0.60361382
0.011985075
-0.60132144
0.016538567
-0.59942619
0.023734161
-0.59873517
0.03355805
-0.60459218
0.054316733
-0.61362715
0.066968587
-0.62341632
0.073462651
-0.63270088
0.074022718
-0.64226087
0.073844788
-0.64992321
0.066643794
-0.66005199
0.068902863
-0.66956504
0.060013059
-0.67281397
0.040294343
-0.67556012
0.026576284
-0.68783815
0.026102162
-0.69838588
0.0052515395
-0.70477524
-0.022864744
-0.69145823
-0.081608892
-0.66947065
-0.12404148
-0.63660838
-0.1671168
-0.5932629
-0.1904298
-0.59071082
-0.086853233
-0.59175142
-0.061324399
-0.59429547
-0.039613857
-0.5976916
-0.026726083
-0.60071192
-0.018579292
-0.60334909
-0.013262344
-0.60548753
-0.0097490927
-0.60720893
-0.0073020221
-0.60857025
-0.0055565213
-0.60964037
-0.0042606491
-0.61047231
-0.0032707059
-0.61110958
-0.0024888659
-0.61158481
-0.0018517147
-0.61192215
-0.0013140887
-0.61213842
-0.00084297699
-0.00041494013
-0.6088996
0.00094230973
-0.60847741
0.0010691776
-0.60804435
0.0011367309
-0.60756892
0.0012725394
-0.60703102
0.001443894
-0.60640599
0.001686421
-0.60566655
0.0020130372
-0.60477947
0.002459246
-0.60370514
0.0030724113
-0.60239789
0.0039313193
-0.60081084
0.0051639015
-0.59890838
0.0069865636
-0.5967218
0.0097984913
-0.59437207
0.01418884
-0.59258194
0.021944033
-0.59141443
0.032390536
-0.59903139
0.061933693
-0.60983187
0.077769063
-0.62181613
0.085446915
-0.6315882
0.083794782
-0.64170953
0.083966126
-0.64402707
0.068961334
-0.65511082
0.038652735
-0.66330698
0.035304795
-0.67098795
0.018377243
-0.68258026
0.0097963147
-0.69423347
0.02172213
-0.70185303
0.011938571
-0.70208658
-0.0014271697
-0.69550523
-0.051803975
-0.66919218
-0.077816259
-0.62604607
-0.095781448
-0.56491395
-0.25156192
-0.56642692
-0.08534026
-0.57744656
-0.050304763
-0.58562152
-0.031438888
-0.59262421
-0.019723398
-0.59771928
-0.013484222
-0.60153667
-0.0094449583
-0.6043676
-0.0069181601
-0.60650069
-0.0051689336
-0.60811762
-0.0039395892
-0.60935088
-0.0030273863
-0.61029037
-0.0023312137
-0.61099982
-0.0017794208
-0.61152372
-0.0013278096
-0.61189318
-0.00094463198
-0.61212905
-0.00060710629
-0.00029904193
-0.59741993
0.0005996968
-0.59708917
0.0007384225
-0.59670865
0.00075621049
-0.59627829
0.00084217807
-0.59577531
0.00094091255
-0.59517458
0.0010856871
-0.59444215
0.0012806099
-0.5935325
0.0015495965
-0.59238279
0.0019226982
-0.59090329
0.0024518209
-0.58896226
0.0032228764
-0.5863542
0.0043785042
-0.58278722
0.0062315126
-0.57760906
0.0090106719
-0.57041456
0.01474954
-0.5609971
0.022973081
-0.57315801
0.038016406
-0.58994822
0.04310767
-0.59541291
0.047121631
-0.58118027
0.042625397
-0.48614131
0.043807449
-0.20207762
0.024238843
0
0
0
0
0
0
0
0
0
0
0
0
0
0
0
0
0
0
-0.25087136
0
-0.51606866
-0.14664008
-0.56674546
-0.034663459
-0.57828503
-0.038765191
-0.58398319
-0.025740724
-0.59145657
-0.012250021
-0.59672596
-0.0082148329
-0.60082551
-0.0053454067
-0.60385402
-0.0038896519
-0.60614079
-0.0028821616
-0.60786866
-0.0022117161
-0.60918275
-0.0017133039
-0.61018054
-0.0013334201
-0.61093181
-0.0010281462
-0.61148523
-0.0007743919
-0.61187473
-0.00055513206
-0.61212304
-0.00035880053
-0.00017717472
-0.42161731
-0.00039725632
-0.42034527
-0.00053360977
-0.41904112
-0.00054794732
-0.41757203
-0.00062691239
-0.41591463
-0.00071648619
-0.41397991
-0.0008490339
-0.41167059
-0.0010287018
-0.40884215
-0.0012788484
-0.40529041
-0.00162904
-0.40070819
-0.0021303956
-0.39461757