/*--------------------------------*- C++ -*----------------------------------*\
| =========                 |                                                 |
| \\      /  F ield         | foam-extend: Open Source CFD                    |
|  \\    /   O peration     | Version:     4.1                                |
|   \\  /    A nd           | Web:         http://www.foam-extend.org         |
|    \\/     M anipulation  |                                                 |
\*---------------------------------------------------------------------------*/
FoamFile
{
    version     2.0;
    format      ascii;
    class       volVectorField;
    location    "0.14";
    object      U;
}
// * * * * * * * * * * * * * * * * * * * * * * * * * * * * * * * * * * * * * //

dimensions      [0 1 -1 0 0 0 0];

internalField   nonuniform List<vector> 
4393
(
(147.32063 -0.076933915 0)
(147.52744 -0.089375598 0)
(147.65525 -0.090903361 0)
(147.82429 -0.094941984 0)
(147.98726 -0.098478423 0)
(148.16594 -0.10276196 0)
(148.35418 -0.10745797 0)
(148.55753 -0.11267289 0)
(148.77661 -0.11831068 0)
(149.01391 -0.12430287 0)
(149.27073 -0.13051419 0)
(149.54825 -0.13676461 0)
(149.84684 -0.14280783 0)
(150.16598 -0.14833158 0)
(150.50406 -0.15295807 0)
(150.8581 -0.15625713 0)
(151.2237 -0.15776966 0)
(151.59493 -0.15704036 0)
(151.96444 -0.15366156 0)
(152.32362 -0.14730957 0)
(152.66299 -0.13778349 0)
(152.97258 -0.12502936 0)
(153.24241 -0.10916377 0)
(153.46309 -0.090481002 0)
(153.62635 -0.069462897 0)
(153.72568 -0.046762743 0)
(153.75683 -0.023182246 0)
(153.71839 0.00046082693 0)
(153.61158 0.023036058 0)
(153.44149 0.043295724 0)
(153.21635 0.060268468 0)
(152.94705 0.073222552 0)
(152.64627 0.081757565 0)
(152.32738 0.085848845 0)
(152.00326 0.085826968 0)
(151.68542 0.082253332 0)
(151.38339 0.075864962 0)
(151.10439 0.067413957 0)
(150.85345 0.057634717 0)
(150.63355 0.047151434 0)
(150.44598 0.036479933 0)
(150.29076 0.026005144 0)
(150.16694 0.016005397 0)
(150.07298 0.0066703504 0)
(150.007 -0.0018568561 0)
(149.9668 -0.0094527854 0)
(149.95002 -0.015755987 0)
(149.95723 -0.020127992 0)
(149.96526 -0.025376161 0)
(150.75868 -0.097960626 0)
(150.88459 -0.11347997 0)
(150.94819 -0.11590603 0)
(151.04534 -0.12320635 0)
(151.13782 -0.13097807 0)
(151.24521 -0.14137941 0)
(151.36226 -0.15389553 0)
(151.49432 -0.16877594 0)
(151.64214 -0.18581918 0)
(151.80822 -0.20481975 0)
(151.99397 -0.22536097 0)
(152.20064 -0.24685536 0)
(152.42866 -0.26849165 0)
(152.67766 -0.28923548 0)
(152.94606 -0.30783615 0)
(153.23099 -0.32287052 0)
(153.52806 -0.33281955 0)
(153.83131 -0.33617184 0)
(154.1333 -0.33156223 0)
(154.42532 -0.31788467 0)
(154.69769 -0.29441426 0)
(154.94021 -0.26088307 0)
(155.1427 -0.21755845 0)
(155.29547 -0.16527106 0)
(155.39002 -0.10546018 0)
(155.4196 -0.04013812 0)
(155.37983 0.028140528 0)
(155.26913 0.096482566 0)
(155.08972 0.16163665 0)
(154.84659 0.22027276 0)
(154.54808 0.26945714 0)
(154.20518 0.30696296 0)
(153.83076 0.331522 0)
(153.43843 0.34299973 0)
(153.04124 0.34233955 0)
(152.65079 0.33117104 0)
(152.27662 0.31166267 0)
(151.9259 0.2860182 0)
(151.60353 0.25639457 0)
(151.31237 0.22461203 0)
(151.05361 0.1921662 0)
(150.82713 0.16015155 0)
(150.63193 0.12932916 0)
(150.46646 0.10016207 0)
(150.32885 0.072910653 0)
(150.2171 0.047675563 0)
(150.12925 0.024795392 0)
(150.06382 0.005054418 0)
(150.01828 -0.016043563 0)
(150.89308 -0.18599056 0)
(151.01245 -0.19768873 0)
(151.07206 -0.20425855 0)
(151.16297 -0.21732648 0)
(151.24946 -0.23237696 0)
(151.35029 -0.25137518 0)
(151.46068 -0.27359974 0)
(151.5859 -0.29926147 0)
(151.72687 -0.32801731 0)
(151.88619 -0.35950304 0)
(152.06542 -0.39304403 0)
(152.26599 -0.42769369 0)
(152.48858 -0.46214788 0)
(152.73301 -0.49473626 0)
(152.99795 -0.52342783 0)
(153.28067 -0.54589769 0)
(153.57692 -0.55965246 0)
(153.88074 -0.5622019 0)
(154.18462 -0.55130036 0)
(154.47966 -0.52513352 0)
(154.75591 -0.48252899 0)
(155.00284 -0.42307707 0)
(155.20984 -0.34726463 0)
(155.36681 -0.25651289 0)
(155.46475 -0.15326588 0)
(155.49639 -0.040927192 0)
(155.45693 0.076165912 0)
(155.34443 0.19293424 0)
(155.16039 0.30392729 0)
(154.90995 0.40372761 0)
(154.60181 0.4873602 0)
(154.24772 0.55105556 0)
(153.86148 0.59266816 0)
(153.45769 0.61202118 0)
(153.0502 0.61082316 0)
(152.65115 0.59191258 0)
(152.27033 0.55906331 0)
(151.9149 0.51604309 0)
(151.58961 0.46653292 0)
(151.29699 0.41359996 0)
(151.03791 0.35975573 0)
(150.81193 0.30681906 0)
(150.61775 0.2560473 0)
(150.45357 0.20818995 0)
(150.31732 0.16363839 0)
(150.20692 0.12250765 0)
(150.12052 0.084917947 0)
(150.05553 0.051251211 0)
(150.01396 0.019805908 0)
(150.91311 -0.20750068 0)
(151.02319 -0.21800057 0)
(151.08168 -0.22511259 0)
(151.16898 -0.24003491 0)
(151.25322 -0.25843293 0)
(151.35146 -0.28252757 0)
(151.45957 -0.31163623 0)
(151.58262 -0.34607828 0)
(151.72172 -0.38549108 0)
(151.87958 -0.42943423 0)
(152.05795 -0.47702744 0)
(152.25853 -0.52698055 0)
(152.48223 -0.57747197 0)
(152.72917 -0.62612669 0)
(152.99828 -0.6700191 0)
(153.28703 -0.70576505 0)
(153.59122 -0.729705 0)
(153.90483 -0.73815252 0)
(154.22006 -0.72776606 0)
(154.5276 -0.6958112 0)
(154.81695 -0.64047535 0)
(155.07692 -0.56102602 0)
(155.29618 -0.45801171 0)
(155.46385 -0.33330024 0)
(155.57015 -0.19024142 0)
(155.6071 -0.033569764 0)
(155.56922 0.13061805 0)
(155.45407 0.2951632 0)
(155.26294 0.45209797 0)
(155.00115 0.59336087 0)
(154.67812 0.71156312 0)
(154.30674 0.80110233 0)
(153.9023 0.85878392 0)
(153.48096 0.88438799 0)
(153.05779 0.88057473 0)
(152.6458 0.85155855 0)
(152.25513 0.8029653 0)
(151.8929 0.74026095 0)
(151.56356 0.66877441 0)
(151.26918 0.5928519 0)
(151.0101 0.5160265 0)
(150.7854 0.44080269 0)
(150.59336 0.36888357 0)
(150.43183 0.30124494 0)
(150.29854 0.23835543 0)
(150.19129 0.18031885 0)
(150.10831 0.1271465 0)
(150.04691 0.078908119 0)
(150.01055 0.03543276 0)
(150.94719 -0.28092057 0)
(151.05469 -0.29329529 0)
(151.11119 -0.30499989 0)
(151.19439 -0.32650352 0)
(151.27461 -0.35310818 0)
(151.36811 -0.38688321 0)
(151.47143 -0.42698895 0)
(151.58959 -0.47368183 0)
(151.72404 -0.52648234 0)
(151.8777 -0.58480539 0)
(152.05272 -0.64753422 0)
(152.25116 -0.71303128 0)
(152.47441 -0.77897659 0)
(152.72305 -0.84232196 0)
(152.99641 -0.89927955 0)
(153.29228 -0.94542781 0)
(153.60659 -0.97594998 0)
(153.93319 -0.98595496 0)
(154.26393 -0.97101644 0)
(154.5889 -0.92750288 0)
(154.8968 -0.85302149 0)
(155.17554 -0.7465975 0)
(155.41276 -0.60895979 0)
(155.59648 -0.44255004 0)
(155.71577 -0.25180054 0)
(155.76155 -0.042967604 0)
(155.72736 0.17586697 0)
(155.60999 0.39513464 0)
(155.41033 0.60419983 0)
(155.13392 0.79224509 0)
(154.79109 0.94919788 0)
(154.39641 1.0674255 0)
(153.96728 1.142578 0)
(153.5222 1.1745094 0)
(153.07799 1.1672337 0)
(152.64879 1.1266512 0)
(152.24522 1.0606812 0)
(151.87426 0.97671926 0)
(151.5399 0.88196354 0)
(151.24349 0.78210861 0)
(150.98466 0.68174055 0)
(150.76176 0.58400872 0)
(150.57248 0.49099606 0)
(150.41418 0.40380324 0)
(150.28422 0.32284125 0)
(150.18021 0.24799562 0)
(150.10027 0.17886839 0)
(150.04168 0.1148685 0)
(150.00862 0.055319022 0)
(150.98717 -0.30562896 0)
(151.0815 -0.31672486 0)
(151.13394 -0.32802809 0)
(151.21135 -0.35004381 0)
(151.28747 -0.378521 0)
(151.37677 -0.41579732 0)
(151.47634 -0.46121735 0)
(151.591 -0.51523042 0)
(151.72244 -0.57747453 0)
(151.87379 -0.64742465 0)
(152.04751 -0.72390391 0)
(152.24607 -0.80505948 0)
(152.47137 -0.88814483 0)
(152.72448 -0.96943256 0)
(153.00523 -1.0441752 0)
(153.31181 -1.106721 0)
(153.64029 -1.1508236 0)
(153.98441 -1.1700457 0)
(154.33552 -1.1585479 0)
(154.68294 -1.111476 0)
(155.0144 -1.025576 0)
(155.31663 -0.89935582 0)
(155.57601 -0.7334796 0)
(155.7792 -0.53069114 0)
(155.91386 -0.2963014 0)
(155.96958 -0.03792646 0)
(155.9387 0.2344107 0)
(155.81705 0.50873172 0)
(155.60506 0.77123977 0)
(155.30842 1.0076696 0)
(154.93867 1.2044935 0)
(154.51253 1.3514677 0)
(154.05029 1.442717 0)
(153.57371 1.4781954 0)
(153.1019 1.4638169 0)
(152.65048 1.4075147 0)
(152.2306 1.3200971 0)
(151.84892 1.2111334 0)
(151.50874 1.089953 0)
(151.21039 0.96363963 0)
(150.95254 0.83784693 0)
(150.73258 0.71630334 0)
(150.54742 0.60140832 0)
(150.39381 0.49432593 0)
(150.26865 0.39538592 0)
(150.16921 0.3042819 0)
(150.09341 0.22032028 0)
(150.03835 0.14250607 0)
(150.00775 0.069839442 0)
(151.04248 -0.35967196 0)
(151.13517 -0.3747972 0)
(151.18446 -0.39152915 0)
(151.25628 -0.42153102 0)
(151.32639 -0.45972801 0)
(151.40867 -0.50850404 0)
(151.50089 -0.56706089 0)
(151.60791 -0.63583186 0)
(151.7318 -0.71438489 0)
(151.87605 -0.80209604 0)
(152.04367 -0.8975954 0)
(152.23779 -0.99870947 0)
(152.46104 -1.1021866 0)
(152.71533 -1.2035615 0)
(153.00128 -1.2970737 0)
(153.31769 -1.3757748 0)
(153.66101 -1.431909 0)
(154.02482 -1.4573702 0)
(154.39991 -1.4448536 0)
(154.77463 -1.3882515 0)
(155.13547 -1.2835056 0)
(155.46769 -1.1286909 0)
(155.75612 -0.92458382 0)
(155.98566 -0.67440273 0)
(156.14214 -0.38466111 0)
(156.21332 -0.064687909 0)
(156.18982 0.27316183 0)
(156.06584 0.61390872 0)
(155.84079 0.94022739 0)
(155.5204 1.2340492 0)
(155.11769 1.4777879 0)
(154.65232 1.6581461 0)
(154.14851 1.7674101 0)
(153.63265 1.8058042 0)
(153.12687 1.7821265 0)
(152.64861 1.706839 0)
(152.20958 1.594568 0)
(151.81577 1.4573779 0)
(151.46954 1.3071135 0)
(151.16978 1.1522898 0)
(150.91389 0.99964265 0)
(150.69804 0.85336619 0)
(150.51822 0.7160491 0)
(150.3704 0.5887593 0)
(150.25096 0.47158495 0)
(150.15683 0.36386134 0)
(150.08567 0.26445623 0)
(150.03455 0.17187909 0)
(150.00675 0.084741744 0)
(151.10042 -0.39221774 0)
(151.17381 -0.40555145 0)
(151.2164 -0.42066993 0)
(151.27955 -0.44952402 0)
(151.34321 -0.48754159 0)
(151.419 -0.53749651 0)
(151.50533 -0.59889239 0)
(151.60676 -0.672507 0)
(151.72569 -0.75822149 0)
(151.86587 -0.85570429 0)
(152.03081 -0.96378616 0)
(152.22424 -1.0803389 0)
(152.44957 -1.2019045 0)
(152.70955 -1.323464 0)
(153.00567 -1.438267 0)
(153.33742 -1.5378988 0)
(153.70167 -1.6127557 0)
(154.09182 -1.6525346 0)
(154.49789 -1.6479985 0)
(154.90703 -1.591311 0)
(155.30418 -1.477252 0)
(155.67282 -1.3030933 0)
(155.99593 -1.0694189 0)
(156.2563 -0.77944803 0)
(156.43756 -0.44052447 0)
(156.52538 -0.063262748 0)
(156.50841 0.33795659 0)
(156.37915 0.74558238 0)
(156.13588 1.1380917 0)
(155.78409 1.4924525 0)
(155.33851 1.7854583 0)
(154.82245 1.9996214 0)
(154.26524 2.1245684 0)
(153.69966 2.1608022 0)
(153.15169 2.1214979 0)
(152.64083 2.0201446 0)
(152.17933 1.8764732 0)
(151.77199 1.7053061 0)
(151.41975 1.5214374 0)
(151.11955 1.3347535 0)
(150.86717 1.1530324 0)
(150.65722 0.98075253 0)
(150.48455 0.82054028 0)
(150.34422 0.67321595 0)
(150.23199 0.53851793 0)
(150.14431 0.41534523 0)
(150.07853 0.30208183 0)
(150.03159 0.19670635 0)
(150.00617 0.097297488 0)
(151.17449 -0.41720952 0)
(151.24842 -0.43557927 0)
(151.28745 -0.45693736 0)
(151.34409 -0.49512144 0)
(151.40021 -0.54451435 0)
(151.46699 -0.60810641 0)
(151.54353 -0.6853263 0)
(151.63443 -0.77704374 0)
(151.74249 -0.88317268 0)
(151.87192 -1.0033862 0)
(152.02692 -1.1364154 0)
(152.21213 -1.279877 0)
(152.43214 -1.4298174 0)
(152.69102 -1.5803931 0)
(152.9917 -1.723604 0)
(153.33484 -1.849296 0)
(153.71818 -1.9457549 0)
(154.13506 -2.0000967 0)
(154.57463 -2.0010101 0)
(155.02256 -1.9388141 0)
(155.46192 -1.8072152 0)
(155.87411 -1.6027467 0)
(156.23998 -1.3260485 0)
(156.53991 -0.98043659 0)
(156.7548 -0.57461902 0)
(156.86769 -0.12114255 0)
(156.8645 0.36280524 0)
(156.73463 0.85584393 0)
(156.4739 1.3315191 0)
(156.08692 1.7613543 0)
(155.59042 2.1153244 0)
(155.01263 2.3709307 0)
(154.38976 2.514309 0)
(153.76394 2.5463501 0)
(153.16599 2.4871893 0)
(152.61772 2.3538617 0)
(152.13174 2.1731553 0)
(151.71076 1.9628937 0)
(151.35385 1.7414443 0)
(151.05521 1.5199583 0)
(150.80866 1.3072206 0)
(150.60692 1.1077592 0)
(150.44354 0.92404418 0)
(150.31257 0.7564417 0)
(150.2091 0.60418098 0)
(150.12915 0.46560508 0)
(150.06977 0.33855798 0)
(150.02783 0.22050647 0)
(150.00537 0.1091168 0)
(151.2461 -0.46504768 0)
(151.29318 -0.48106948 0)
(151.32261 -0.49975783 0)
(151.36712 -0.53511556 0)
(151.41389 -0.58207188 0)
(151.47118 -0.6440485 0)
(151.53882 -0.72085747 0)
(151.62106 -0.81385889 0)
(151.7211 -0.92350495 0)
(151.84348 -1.0500748 0)
(151.99308 -1.1929006 0)
(152.17543 -1.3501055 0)
(152.39624 -1.5179925 0)
(152.66097 -1.6905362 0)
(152.97398 -1.858892 0)
(153.33722 -2.011206 0)
(153.74936 -2.1333526 0)
(154.20352 -2.2090102 0)
(154.68759 -2.224166 0)
(155.18533 -2.1665929 0)
(155.67754 -2.0285368 0)
(156.14307 -1.8053367 0)
(156.56036 -1.497503 0)
(156.90686 -1.1077031 0)
(157.16002 -0.64554883 0)
(157.29988 -0.12461922 0)
(157.30934 0.43617893 0)
(157.17481 1.0135535 0)
(156.88955 1.5755313 0)
(156.45664 2.0862582 0)
(155.89478 2.5055408 0)
(155.23807 2.8035877 0)
(154.53145 2.9610856 0)
(153.83043 2.9789948 0)
(153.1718 2.8887321 0)
(152.5795 2.71116 0)
(152.06633 2.4829514 0)
(151.63146 2.2248672 0)
(151.27142 1.9595055 0)
(150.97674 1.6988736 0)
(150.73879 1.4525553 0)
(150.54798 1.2246988 0)
(150.39638 1.0173025 0)
(150.27688 0.82998414 0)
(150.18388 0.66125036 0)
(150.11291 0.50872176 0)
(150.06074 0.36957872 0)
(150.02419 0.24067127 0)
(150.00468 0.11914742 0)
(151.33554 -0.4483459 0)
(151.38668 -0.46945048 0)
(151.41291 -0.49453104 0)
(151.45079 -0.53971256 0)
(151.48927 -0.59897868 0)
(151.53626 -0.67616171 0)
(151.59223 -0.77119672 0)
(151.66135 -0.88575733 0)
(151.74715 -1.0205641 0)
(151.85457 -1.1761419 0)
(151.98924 -1.3519529 0)
(152.15784 -1.5460525 0)
(152.36769 -1.7543407 0)
(152.62633 -1.9698981 0)
(152.94054 -2.1822902 0)
(153.31455 -2.3771693 0)
(153.74906 -2.5373141 0)
(154.23736 -2.6418677 0)
(154.76587 -2.6738453 0)
(155.31611 -2.6182359 0)
(155.86612 -2.4661281 0)
(156.39178 -2.2117139 0)
(156.86905 -1.8557966 0)
(157.27222 -1.3998731 0)
(157.57488 -0.85508303 0)
(157.75388 -0.23701604 0)
(157.78843 0.43214851 0)
(157.6592 1.1244896 0)
(157.35375 1.8006689 0)
(156.87132 2.4171553 0)
(156.23262 2.9212649 0)
(155.47982 3.2746756 0)
(154.66966 3.4504337 0)
(153.8781 3.448876 0)
(153.14936 3.3201065 0)
(152.50865 3.088317 0)
(151.96859 2.8043118 0)
(151.52247 2.49132 0)
(151.16352 2.1771438 0)
(150.87729 1.8740957 0)
(150.65233 1.5923986 0)
(150.47633 1.3353662 0)
(150.3398 1.1042317 0)
(150.23446 0.89758792 0)
(150.15407 0.71304068 0)
(150.09375 0.54737188 0)
(150.05005 0.39704996 0)
(150.0198 0.2583106 0)
(150.00381 0.12782853 0)
(151.41649 -0.5212116 0)
(151.4327 -0.54006627 0)
(151.44611 -0.5622191 0)
(151.46784 -0.60369755 0)
(151.49329 -0.65892645 0)
(151.52675 -0.73206148 0)
(151.56949 -0.82338457 0)
(151.62525 -0.93509585 0)
(151.69799 -1.0686063 0)
(151.79311 -1.2253496 0)
(151.91714 -1.405878 0)
(152.07799 -1.6094383 0)
(152.28471 -1.8330226 0)
(152.54696 -2.0703949 0)
(152.87407 -2.3109166 0)
(153.27249 -2.5385319 0)
(153.74523 -2.7331217 0)
(154.2852 -2.8677699 0)
(154.87636 -2.9218118 0)
(155.49707 -2.8763504 0)
(156.12197 -2.7209856 0)
(156.72342 -2.4480426 0)
(157.27499 -2.0589975 0)
(157.74724 -1.5529742 0)
(158.10826 -0.94290425 0)
(158.33076 -0.24537342 0)
(158.38973 0.5167585 0)
(158.26045 1.3172125 0)
(157.92514 2.1103805 0)
(157.37788 2.8422564 0)
(156.64071 3.4398909 0)
(155.76497 3.8516058 0)
(154.82141 4.0377938 0)
(153.91694 3.9959433 0)
(153.10447 3.8082028 0)
(152.4083 3.5003649 0)
(151.84063 3.143801 0)
(151.38532 2.7627589 0)
(151.03161 2.391156 0)
(150.75832 2.040333 0)
(150.55083 1.720569 0)
(150.39356 1.4334724 0)
(150.2754 1.1789491 0)
(150.18684 0.95409655 0)
(150.12107 0.75531219 0)
(150.07284 0.57832498 0)
(150.03857 0.41875607 0)
(150.0152 0.27214065 0)
(150.00293 0.13462994 0)
(151.51658 -0.44903366 0)
(151.54093 -0.47154744 0)
(151.55216 -0.49869166 0)
(151.56809 -0.5484193 0)
(151.58558 -0.61470711 0)
(151.60864 -0.70239101 0)
(151.63903 -0.81227138 0)
(151.68017 -0.94728714 0)
(151.73611 -1.1096192 0)
(151.81232 -1.3015036 0)
(151.91592 -1.5242119 0)
(152.05592 -1.7774859 0)
(152.24329 -2.058343 0)
(152.49066 -2.3598034 0)
(152.81136 -2.6692751 0)
(153.21593 -2.9668931 0)
(153.71235 -3.2279396 0)
(154.29429 -3.416154 0)
(154.94288 -3.5066844 0)
(155.63281 -3.4762686 0)
(156.33469 -3.3141892 0)
(157.01647 -3.0112296 0)
(157.64961 -2.5710669 0)
(158.20073 -1.9878135 0)
(158.63175 -1.2760866 0)
(158.91283 -0.45386711 0)
(159.01619 0.45308445 0)
(158.90744 1.4143854 0)
(158.55571 2.3716436 0)
(157.94248 3.2609698 0)
(157.08978 3.9846032 0)
(156.06208 4.4769856 0)
(154.94887 4.6801778 0)
(153.90731 4.5838132 0)
(153.00082 4.3249067 0)
(152.24715 3.9248361 0)
(151.65795 3.4849935 0)
(151.20149 3.0275589 0)
(150.86242 2.593988 0)
(150.61053 2.1930814 0)
(150.42787 1.8347759 0)
(150.29522 1.518199 0)
(150.20007 1.2415264 0)
(150.13179 1.000027 0)
(150.08324 0.78870896 0)
(150.04901 0.60214614 0)
(150.02552 0.43507784 0)
(150.00994 0.28234258 0)
(150.00191 0.1395917 0)
(151.60229 -0.55694655 0)
(151.58492 -0.57873034 0)
(151.58017 -0.60435694 0)
(151.57578 -0.65155876 0)
(151.57589 -0.71433279 0)
(151.58023 -0.79755986 0)
(151.59135 -0.90213544 0)
(151.61207 -1.0313172 0)
(151.64683 -1.1878637 0)
(151.70164 -1.3749734 0)
(151.78471 -1.5953368 0)
(151.90681 -1.8506065 0)
(152.08148 -2.1400697 0)
(152.32482 -2.4590462 0)
(152.65474 -2.7964709 0)
(153.08578 -3.1315504 0)
(153.63186 -3.437399 0)
(154.28589 -3.6653671 0)
(155.02311 -3.7862597 0)
(155.8124 -3.7707875 0)
(156.61898 -3.6080312 0)
(157.40559 -3.2851265 0)
(158.14358 -2.8094415 0)
(158.7962 -2.1665697 0)
(159.31572 -1.3765711 0)
(159.6675 -0.4611933 0)
(159.81888 0.55355408 0)
(159.72434 1.6507861 0)
(159.34246 2.7694706 0)
(158.64067 3.8347288 0)
(157.63949 4.7046713 0)
(156.41704 5.2884913 0)
(155.0809 5.4962735 0)
(153.86794 5.2984704 0)
(152.85293 4.9302341 0)
(152.03589 4.3980551 0)
(151.42973 3.8480016 0)
(150.97835 3.2946418 0)
(150.6621 2.7878672 0)
(150.43881 2.3308364 0)
(150.28741 1.9317679 0)
(150.18445 1.5857419 0)
(150.11627 1.2882873 0)
(150.07123 1.0321842 0)
(150.04204 0.81067007 0)
(150.02328 0.61694091 0)
(150.01154 0.4447441 0)
(150.00437 0.28817932 0)
(150.00084 0.14239369 0)
(151.70605 -0.41790925 0)
(151.69962 -0.43983514 0)
(151.69397 -0.46652635 0)
(151.68522 -0.51686007 0)
(151.67882 -0.58528949 0)
(151.67416 -0.67768266 0)
(151.67409 -0.79602966 0)
(151.68079 -0.94499344 0)
(151.69832 -1.1289963 0)
(151.73222 -1.3531697 0)
(151.7906 -1.6223012 0)
(151.88472 -1.9400976 0)
(152.02974 -2.3074125 0)
(152.24517 -2.7200275 0)
(152.55505 -3.1652077 0)
(152.98046 -3.6161641 0)
(153.54802 -4.0398275 0)
(154.25292 -4.364784 0)
(155.06353 -4.5563419 0)
(155.94243 -4.5777329 0)
(156.84939 -4.4212128 0)
(157.7402 -4.0717518 0)
(158.58742 -3.5480256 0)
(159.34915 -2.8200416 0)
(159.96324 -1.910921 0)
(160.39571 -0.8419107 0)
(160.62091 0.36418407 0)
(160.58128 1.6955211 0)
(160.20692 3.0615874 0)
(159.42723 4.3768699 0)
(158.25268 5.4450394 0)
(156.78271 6.1585867 0)
(155.14749 6.3819218 0)
(153.72077 6.0422727 0)
(152.59124 5.5467473 0)
(151.71615 4.8581011 0)
(151.11266 4.1878571 0)
(150.68492 3.5323397 0)
(150.40996 2.9516872 0)
(150.22979 2.4400288 0)
(150.12109 2.0031773 0)
(150.05614 1.6311403 0)
(150.02092 1.3164116 0)
(150.00326 1.0490289 0)
(149.99629 0.82037715 0)
(149.99494 0.62226796 0)
(149.99622 0.44749706 0)
(149.99825 0.28948715 0)
(149.99965 0.14294198 0)
(151.79291 -0.56703817 0)
(151.74214 -0.59173949 0)
(151.71841 -0.62074644 0)
(151.68614 -0.67305961 0)
(151.6581 -0.74237292 0)
(151.62902 -0.83424927 0)
(151.60225 -0.95031915 0)
(151.57897 -1.0950657 0)
(151.56332 -1.2729358 0)
(151.56108 -1.4894875 0)
(151.58142 -1.7505638 0)
(151.63775 -2.0618605 0)
(151.74893 -2.4273574 0)
(151.94019 -2.8472044 0)
(152.24454 -3.3136285 0)
(152.69008 -3.801383 0)
(153.32056 -4.2818085 0)
(154.12968 -4.6538001 0)
(155.06956 -4.8801576 0)
(156.09087 -4.9150594 0)
(157.14436 -4.7575448 0)
(158.17499 -4.3836905 0)
(159.16415 -3.8264614 0)
(160.07195 -3.0219482 0)
(160.81669 -2.0079928 0)
(161.36409 -0.82300908 0)
(161.68887 0.49702807 0)
(161.70321 1.9832674 0)
(161.31415 3.5637106 0)
(160.41738 5.163235 0)
(159.01682 6.484421 0)
(157.23225 7.3695691 0)
(155.19444 7.597882 0)
(153.50165 7.0022552 0)
(152.25446 6.3052926 0)
(151.32099 5.3859118 0)
(150.73671 4.5515107 0)
(150.34487 3.7653655 0)
(150.12439 3.0968003 0)
(149.9969 2.5246708 0)
(149.93856 2.0492783 0)
(149.91703 1.6530687 0)
(149.91865 1.3240883 0)
(149.93103 1.0488256 0)
(149.94805 0.81640092 0)
(149.96525 0.61706882 0)
(149.98026 0.44262795 0)
(149.99192 0.28585111 0)
(149.99844 0.14104894 0)
(151.88884 -0.35778124 0)
(151.84768 -0.37687365 0)
(151.82364 -0.40001446 0)
(151.78808 -0.44583293 0)
(151.75541 -0.50957168 0)
(151.71972 -0.5979001 0)
(151.68461 -0.71403053 0)
(151.65037 -0.86451215 0)
(151.62035 -1.0565707 0)
(151.59916 -1.2994305 0)
(151.59478 -1.6035983 0)
(151.61971 -1.9803799 0)
(151.69275 -2.439771 0)
(151.84115 -2.9872875 0)
(152.1058 -3.617673 0)
(152.5216 -4.2973232 0)
(153.16591 -4.9939686 0)
(154.0394 -5.5426687 0)
(155.07401 -5.9010934 0)
(156.20822 -6.0096715 0)
(157.38762 -5.8796784 0)
(158.54535 -5.4789296 0)
(159.68096 -4.885597 0)
(160.74908 -3.9933518 0)
(161.61977 -2.8537329 0)
(162.25996 -1.5136053 0)
(162.68841 0.028719991 0)
(162.82294 1.8703181 0)
(162.52045 3.8523279 0)
(161.56713 5.8867733 0)
(159.91457 7.5316543 0)
(157.71505 8.6453647 0)
(155.09114 8.8959853 0)
(153.04519 7.9215781 0)
(151.70014 7.0066867 0)
(150.73368 5.8288784 0)
(150.21912 4.8345023 0)
(149.90211 3.9246662 0)
(149.77 3.1798866 0)
(149.71878 2.5583866 0)
(149.72751 2.0544956 0)
(149.7603 1.6425563 0)
(149.80582 1.3062731 0)
(149.85263 1.0288022 0)
(149.89636 0.79724802 0)
(149.93372 0.60055051 0)
(149.96342 0.42971851 0)
(149.98525 0.27705519 0)
(149.99715 0.13661561 0)
(151.97692 -0.54449578 0)
(151.89659 -0.57171559 0)
(151.85499 -0.603314 0)
(151.79557 -0.65921206 0)
(151.73905 -0.73294617 0)
(151.67484 -0.83078078 0)
(151.60634 -0.95521509 0)
(151.53206 -1.1121449 0)
(151.45433 -1.3080531 0)
(151.37671 -1.5514776 0)
(151.30698 -1.8525194 0)
(151.25891 -2.2228655 0)
(151.25524 -2.6743575 0)
(151.33145 -3.2170591 0)
(151.54683 -3.8545604 0)
(151.94756 -4.5576503 0)
(152.66561 -5.3276485 0)
(153.70036 -5.9191904 0)
(154.9338 -6.2988409 0)
(156.28027 -6.3927378 0)
(157.67246 -6.2484275 0)
(159.01012 -5.8112953 0)
(160.32464 -5.2219094 0)
(161.59285 -4.2345435 0)
(162.6314 -2.9326014 0)
(163.44141 -1.4001548 0)
(164.09475 0.26581494 0)
(164.40277 2.2389476 0)
(164.1516 4.4446265 0)
(163.04261 6.9356162 0)
(161.03439 9.0661649 0)
(158.32463 10.574745 0)
(154.89696 10.89083 0)
(152.42584 9.2421445 0)
(151.04236 7.9485618 0)
(150.05593 6.3741039 0)
(149.64927 5.1431576 0)
(149.42332 4.069089 0)
(149.39484 3.2305575 0)
(149.42793 2.5554667 0)
(149.5094 2.0249358 0)
(149.59975 1.6018656 0)
(149.69116 1.2634903 0)
(149.77348 0.98883576 0)
(149.84446 0.76262405 0)
(149.90223 0.57244409 0)
(149.94667 0.40858064 0)
(149.97865 0.26299114 0)
(149.99589 0.12959186 0)
(152.02655 -0.27626 0)
(151.9473 -0.29093744 0)
(151.90401 -0.3076894 0)
(151.84028 -0.34392 0)
(151.7796 -0.39548112 0)
(151.71012 -0.46924334 0)
(151.63569 -0.56903496 0)
(151.55395 -0.70263555 0)
(151.46652 -0.8796025 0)
(151.3756 -1.1133453 0)
(151.28711 -1.4214725 0)
(151.21235 -1.8268103 0)
(151.17116 -2.356589 0)
(151.19615 -3.040352 0)
(151.35421 -3.9038264 0)
(151.68122 -4.9153499 0)
(152.39925 -6.1047906 0)
(153.53081 -7.0271228 0)
(154.89475 -7.6521245 0)
(156.37556 -7.8904996 0)
(157.90733 -7.8205129 0)
(159.36057 -7.3381172 0)
(160.86385 -6.7200075 0)
(162.40847 -5.6222673 0)
(163.64719 -4.1636763 0)
(164.53783 -2.598623 0)
(165.26914 -0.86083828 0)
(165.75948 1.6430794 0)
(165.79487 4.579958 0)
(164.79839 7.9859025 0)
(162.49674 10.644633 0)
(159.10065 12.568038 0)
(154.3778 12.954086 0)
(151.25577 10.23184 0)
(149.95514 8.6077993 0)
(149.03153 6.648631 0)
(148.85124 5.2467095 0)
(148.79673 4.058928 0)
(148.93142 3.169252 0)
(149.08611 2.4715288 0)
(149.26331 1.9366682 0)
(149.42454 1.5183731 0)
(149.56926 1.1892875 0)
(149.69104 0.92574452 0)
(149.79124 0.71104356 0)
(149.87029 0.5321109 0)
(149.9298 0.37897525 0)
(149.972 0.24358932 0)
(149.99461 0.11996207 0)
(152.02917 -0.48127239 0)
(151.92594 -0.51006726 0)
(151.86961 -0.54179127 0)
(151.78654 -0.59756781 0)
(151.70445 -0.67075536 0)
(151.60738 -0.76845628 0)
(151.49808 -0.89412477 0)
(151.37116 -1.0552985 0)
(151.22511 -1.2609498 0)
(151.058 -1.5234965 0)
(150.87118 -1.8589524 0)
(150.67179 -2.2879629 0)
(150.47791 -2.8351904 0)
(150.32584 -3.5283298 0)
(150.31588 -4.3990274 0)
(150.49113 -5.4029426 0)
(151.26307 -6.7050705 0)
(152.66676 -7.631858 0)
(154.34816 -8.2141844 0)
(156.14774 -8.3131799 0)
(158.00971 -8.1541374 0)
(159.69911 -7.5535413 0)
(161.41162 -7.1467348 0)
(163.22509 -5.9825099 0)
(164.55922 -4.3501833 0)
(165.53773 -2.3366938 0)
(166.79635 -0.25176116 0)
(167.89869 2.3219402 0)
(168.27621 5.2552164 0)
(167.05198 9.1341553 0)
(164.13206 12.792859 0)
(159.98904 15.828836 0)
(153.53311 16.683308 0)
(149.73665 12.12574 0)
(148.82666 9.7042534 0)
(147.98309 7.1168709 0)
(148.08518 5.3847161 0)
(148.19806 4.0271034 0)
(148.49544 3.0610628 0)
(148.76486 2.339691 0)
(149.03277 1.8055555 0)
(149.26052 1.3998953 0)
(149.45532 1.0875002 0)
(149.61409 0.84151984 0)
(149.74164 0.64360682 0)
(149.84058 0.48021166 0)
(149.91415 0.34131699 0)
(149.96587 0.2191003 0)
(149.99343 0.10784355 0)
(151.58823 -0.18418249 0)
(151.46799 -0.19455236 0)
(151.40498 -0.20356944 0)
(151.31171 -0.22717196 0)
(151.22107 -0.26108486 0)
(151.11438 -0.31147963 0)
(150.99513 -0.38147448 0)
(150.85719 -0.47823085 0)
(150.69885 -0.61118925 0)
(150.51751 -0.79498543 0)
(150.31346 -1.0514169 0)
(150.09209 -1.4136727 0)
(149.86824 -1.9308919 0)
(149.66936 -2.6734195 0)
(149.60974 -3.7531857 0)
(149.63319 -5.1805516 0)
(150.38488 -7.3587668 0)
(151.968 -8.939037 0)
(153.84882 -9.9455392 0)
(155.78212 -10.347213 0)
(157.73895 -10.409974 0)
(159.31162 -9.8139722 0)
(161.15298 -9.2860654 0)
(163.47577 -7.9394652 0)
(165.25237 -5.6226862 0)
(166.43282 -3.898225 0)
(167.54724 -2.9639968 0)
(168.60413 0.1369331 0)
(169.50655 4.3475853 0)
(169.07594 11.04545 0)
(166.35484 15.568999 0)
(161.38713 19.191254 0)
(151.98997 20.253215 0)
(146.82401 12.454428 0)
(146.738 9.8240975 0)
(146.27777 6.8566725 0)
(146.92438 5.0775971 0)
(147.38461 3.711083 0)
(147.94625 2.7761865 0)
(148.3903 2.0948096 0)
(148.77886 1.6007698 0)
(149.08845 1.2320853 0)
(149.33998 0.95191805 0)
(149.53834 0.73373421 0)
(149.69378 0.55960727 0)
(149.81231 0.41674452 0)
(149.89939 0.29583265 0)
(149.96009 0.18975583 0)
(149.99232 0.093371304 0)
(150.66583 -0.36939451 0)
(150.54454 -0.39887753 0)
(150.47598 -0.42560106 0)
(150.37239 -0.47401924 0)
(150.26808 -0.53663137 0)
(150.14186 -0.62143407 0)
(149.99561 -0.73238473 0)
(149.81936 -0.878341 0)
(149.60616 -1.0706373 0)
(149.34521 -1.3261554 0)
(149.02458 -1.6689438 0)
(148.63188 -2.1337933 0)
(148.15853 -2.769581 0)
(147.59611 -3.6388117 0)
(147.08286 -4.855245 0)
(146.45847 -6.2884776 0)
(147.06785 -8.7191751 0)
(149.17446 -10.128775 0)
(151.54786 -10.976288 0)
(153.86607 -10.80433 0)
(156.28112 -10.568916 0)
(158.23591 -9.0737389 0)
(160.33866 -9.7749921 0)
(163.23507 -8.2299982 0)
(164.71322 -6.6533538 0)
(164.66736 -4.4054639 0)
(166.77899 -1.2627118 0)
(170.02731 2.1551852 0)
(172.82536 6.2981543 0)
(171.8606 10.976901 0)
(167.23239 17.109899 0)
(161.21501 24.421962 0)
(148.90127 28.195596 0)
(143.4578 15.745477 0)
(145.31167 10.751467 0)
(144.97544 7.0732044 0)
(146.12667 4.8236239 0)
(146.79069 3.3811774 0)
(147.54234 2.4335401 0)
(148.10467 1.7967196 0)
(148.58104 1.3506228 0)
(148.95153 1.0295261 0)
(149.24688 0.7902339 0)
(149.47654 0.60677465 0)
(149.65447 0.46168826 0)
(149.78901 0.34338157 0)
(149.8872 0.24358712 0)
(149.95534 0.15619433 0)
(149.99141 0.076846845 0)
(149.27197 -0.090602157 0)
(149.1115 -0.096780856 0)
(149.03324 -0.099106144 0)
(148.91278 -0.11009856 0)
(148.79453 -0.1252828 0)
(148.65172 -0.14896974 0)
(148.48728 -0.18233052 0)
(148.28994 -0.22950311 0)
(148.05248 -0.29593482 0)
(147.76365 -0.39101025 0)
(147.41167 -0.53037576 0)
(146.98533 -0.74162852 0)
(146.4813 -1.0771443 0)
(145.88411 -1.6242505 0)
(145.44025 -2.6247914 0)
(144.63717 -4.1838195 0)
(145.4103 -8.5695037 0)
(148.03037 -11.550576 0)
(150.93648 -12.770392 0)
(153.54933 -13.357875 0)
(156.37029 -13.347481 0)
(157.28999 -13.465276 0)
(159.18689 -12.746828 7.8592481e-18)
(161.41059 -11.687146 4.6002589e-18)
(163.21151 -6.2016826 4.9668395e-18)
(165.17756 -3.4543206 -2.6461568e-20)
(168.90899 -7.4253731 -3.9193421e-18)
(170.90803 -4.3413514 0)
(172.69985 -0.13327174 -4.8564697e-18)
(171.20856 16.230058 7.0710901e-18)
(169.99198 24.503253 0)
(159.71817 30.486925 8.3242491e-19)
(143.22938 33.442237 0)
(136.17151 11.08419 0)
(140.83719 8.9201033 0)
(142.33788 5.5884852 0)
(144.53152 3.8040528 0)
(145.87986 2.6277824 0)
(146.98644 1.8722109 0)
(147.76781 1.3738362 0)
(148.36817 1.0278714 0)
(148.81626 0.78203015 0)
(149.15992 0.59974116 0)
(149.42131 0.46066533 0)
(149.62034 0.35079438 0)
(149.76918 0.26119276 0)
(149.87695 0.18548303 0)
(149.95135 0.11904313 0)
(149.99064 0.058591667 0)
(146.43919 -0.20256959 0)
(146.31566 -0.24037024 0)
(146.24954 -0.25442585 0)
(146.14181 -0.28534482 0)
(146.03316 -0.32266187 0)
(145.89789 -0.37493369 0)
(145.73786 -0.44475394 0)
(145.53967 -0.53991741 0)
(145.29223 -0.67082078 0)
(144.97689 -0.85483898 0)
(144.56801 -1.1202879 0)
(144.02616 -1.514773 0)
(143.29863 -2.128123 0)
(142.24128 -3.0743906 0)
(140.97035 -4.7918434 0)
(137.88925 -7.0995415 0)
(137.38823 -12.138281 0)
(142.53527 -14.036566 -1.3050765e-18)
(145.85468 -15.40152 1.5129423e-19)
(145.30555 -13.970147 0)
(138.93359 -14.353061 -8.0638738e-18)
(98.745321 -7.9647095 1.1866659e-17)
(0 0 0)
(0 0 0)
(0 0 0)
(0 0 0)
(0 0 0)
(0 0 0)
(0 0 0)
(0 0 0)
(0 0 0)
(0 0 0)
(126.84658 50.935038 1.1912543e-16)
(133.28405 20.256154 0)
(142.33374 7.8930411 0)
(141.71575 5.0862732 0)
(144.27516 2.7429471 0)
(145.58865 1.8425414 0)
(146.78684 1.2375743 0)
(147.61988 0.89883706 0)
(148.2642 0.6661703 0)
(148.74376 0.50758642 0)
(149.11037 0.39041608 0)