/*--------------------------------*- C++ -*----------------------------------*\
| =========                 |                                                 |
| \\      /  F ield         | foam-extend: Open Source CFD                    |
|  \\    /   O peration     | Version:     4.1                                |
|   \\  /    A nd           | Web:         http://www.foam-extend.org         |
|    \\/     M anipulation  |                                                 |
\*---------------------------------------------------------------------------*/
FoamFile
{
    version     2.0;
    format      ascii;
    class       volScalarField;
    location    "1.2";
    object      p;
}
// * * * * * * * * * * * * * * * * * * * * * * * * * * * * * * * * * * * * * //

dimensions      [0 2 -2 0 0 0 0];

internalField   nonuniform List<scalar> 
4393
(
-46.222319
-92.622274
-146.18765
-200.77453
-257.55115
-316.82828
-378.98928
-444.34538
-513.12385
-585.43953
-661.26681
-740.41142
-822.48491
-906.88533
-992.78816
-1079.1505
-1164.7293
-1248.1109
-1327.748
-1401.9981
-1469.1606
-1527.5119
-1575.3421
-1610.9967
-1632.932
-1639.79
-1630.5035
-1604.4427
-1561.4954
-1502.1599
-1427.6473
-1339.8663
-1241.3166
-1134.9056
-1023.7218
-910.80815
-798.97211
-690.65377
-587.85686
-492.13517
-404.62076
-326.07838
-256.97145
-197.52799
-147.81089
-107.78984
-77.246653
-55.27257
-41.051299
-44.971382
-92.038681
-145.47806
-199.91413
-256.52173
-315.64378
-377.67714
-442.945
-511.68643
-584.02828
-659.95655
-739.2872
-821.63906
-906.41302
-992.78185
-1079.6942
-1165.8936
-1249.9506
-1330.3009
-1405.2861
-1473.1904
-1532.2753
-1580.8136
-1617.1286
-1639.6471
-1646.9769
-1638.0151
-1612.0587
-1568.9312
-1509.1227
-1433.8511
-1345.06
-1245.3153
-1137.6102
-1025.1234
-910.97812
-798.04196
-688.79178
-585.24579
-488.95444
-401.03408
-322.22689
-252.9736
-193.48938
-143.82859
-103.90054
-73.435473
-52.293211
-41.678
-44.170292
-91.145291
-144.22443
-198.30055
-254.55755
-313.36772
-375.14986
-440.24924
-508.92792
-581.33637
-657.48354
-737.20523
-820.13416
-905.67583
-992.99602
-1081.0245
-1168.4764
-1253.8881
-1335.6611
-1412.1045
-1481.4733
-1541.9999
-1591.9237
-1629.5237
-1653.1652
-1661.3754
-1652.9619
-1627.1384
-1583.6374
-1522.8778
-1446.0715
-1355.2322
-1253.0624
-1142.7344
-1027.6138
-910.98703
-795.84227
-684.72698
-579.68357
-482.25
-393.50498
-314.13899
-244.53887
-184.87602
-135.16125
-95.209772
-64.712632
-44.114016
-35.314314
-43.383977
-89.855576
-142.32885
-195.82783
-251.54125
-309.8697
-371.26047
-436.0905
-504.65641
-577.14505
-653.60126
-733.89265
-817.67477
-904.36179
-993.10988
-1082.8201
-1172.1635
-1259.6242
-1343.5507
-1422.2043
-1493.7976
-1556.523
-1608.5734
-1648.1655
-1673.5749
-1683.2054
-1675.7173
-1650.1732
-1606.1578
-1543.9839
-1464.8506
-1370.8783
-1264.9873
-1150.6355
-1031.4851
-911.07989
-792.59451
-678.68251
-571.41921
-472.31878
-382.39867
-302.26852
-232.23125
-172.3829
-122.65912
-82.785377
-52.44828
-32.316113
-24.154619
-42.5639
-88.24574
-139.86908
-192.5658
-247.53201
-305.19871
-366.04822
-430.49857
-498.89262
-571.4669
-648.31609
-729.35279
-814.26582
-902.48294
-993.14773
-1085.1208
-1177.0103
-1267.2259
-1354.0426
-1435.6574
-1510.2293
-1575.9017
-1630.8126
-1673.1015
-1700.9294
-1712.5366
-1706.3803
-1681.3027
-1636.6635
-1572.6079
-1490.3024
-1392.013
-1280.9732
-1161.0555
-1036.3499
-910.76447
-787.73107
-670.04221
-559.80767
-458.49773
-367.03645
-285.9166
-215.32191
-155.23903
-105.50176
-65.753155
-35.687274
-16.026026
-8.2519972
-41.562261
-86.207066
-136.73516
-188.39944
-242.40459
-299.21622
-359.35887
-423.30179
-491.44693
-564.0956
-641.40881
-723.36051
-809.68654
-899.8359
-992.9374
-1087.7975
-1182.9385
-1276.6687
-1367.1653
-1452.5439
-1530.9005
-1600.3259
-1658.8988
-1704.6723
-1735.669
-1749.9225
-1745.6203
-1721.3021
-1676.0063
-1609.6238
-1523.2503
-1419.3393
-1301.5573
-1174.356
-1042.4164
-910.13962
-781.29289
-658.8372
-544.90846
-440.90072
-347.60051
-265.33689
-194.12949
-133.81388
-84.08951
-44.499764
-14.70767
4.6020567
12.158791
-40.42864
-83.810253
-132.99157
-183.37775
-236.18644
-291.9237
-351.16387
-414.43803
-482.22114
-554.89627
-632.71009
-715.7181
-803.72135
-896.20149
-992.27166
-1090.6678
-1189.7968
-1287.8316
-1382.8222
-1472.7843
-1555.7455
-1629.747
-1692.8143
-1742.9131
-1777.9116
-1795.5939
-1793.8007
-1770.6676
-1724.7829
-1655.655
-1564.2401
-1453.2214
-1326.8543
-1190.3867
-1049.3018
-908.65091
-772.62314
-644.37072
-526.03303
-418.8795
-323.50148
-240.00778
-168.20359
-107.73167
-58.127454
-18.812692
10.623921
29.590029
36.975528
-39.0298
-80.905206
-128.48035
-177.33801
-228.7074
-283.14007
-341.26761
-403.69398
-470.98228
-543.61664
-621.95225
-706.15124
-796.10411
-891.34224
-990.96425
-1093.6152
-1197.5475
-1300.7529
-1401.1165
-1496.5342
-1584.964
-1664.4101
-1732.8625
-1788.2119
-1828.1654
-1850.2169
-1851.7743
-1830.4458
-1784.1979
-1711.9676
-1614.4532
-1494.6066
-1357.4815
-1209.4187
-1056.9825
-906.06955
-761.38434
-626.27889
-502.84941
-392.16763
-294.55089
-209.81573
-137.49285
-76.985988
-27.635388
11.281388
40.279231
58.880311
66.103634
-37.509914
-77.650486
-123.34932
-170.40455
-220.06029
-272.9191
-329.67716
-391.02275
-457.62369
-530.08735
-608.90496
-694.37718
-786.51719
-884.93232
-988.71281
-1096.3881
-1206.0037
-1315.3077
-1421.9706
-1523.7461
-1618.528
-1704.31
-1779.0815
-1840.688
-1886.6835
-1914.2383
-1920.2324
-1901.5949
-1855.4429
-1779.8636
-1675.0948
-1544.3852
-1393.8756
-1231.4175
-1065.0343
-901.71288
-746.77034
-603.74295
-474.60266
-360.1173
-260.22575
-174.36285
-101.71474
-41.395153
7.4852783
45.81788
74.243866
92.411523
99.453225
-35.620836
-73.748994
-117.28006
-162.24757
-209.90253
-260.90114
-316.01033
-376.01396
-441.70231
-513.83106
-593.06008
-679.86833
-774.4362
-876.48633
-985.11424
-1098.7029
-1215.017
-1331.4719
-1445.4542
-1554.5488
-1656.601
-1749.6384
-1831.7089
-1900.6689
-1953.9503
-1988.3796
-2000.2113
-1985.5138
-1940.2582
-1861.2744
-1747.9969
-1603.9664
-1436.8216
-1256.5298
-1073.093
-894.89565
-727.95815
-575.94283
-440.56395
-322.13364
-220.07484
-133.33129
-60.664971
-0.84608306
47.277833
84.788191
112.46761
130.09816
136.92105
-33.689389
-69.579849
-110.65836
-153.23723
-198.57694
-247.39004
-300.5191
-358.85394
-423.32559
-494.86608
-574.34225
-662.46076
-759.62943
-865.74621
-979.94101
-1100.4146
-1224.5486
-1349.2979
-1471.6699
-1589.0504
-1699.2686
-1800.4574
-1890.8132
-1968.2941
-2030.2718
-2073.2296
-2092.7103
-2083.6996
-2040.6476
-1958.5369
-1835.4198
-1675.0469
-1487.1548
-1284.7279
-1080.4718
-884.55109
-703.75392
-541.73872
-399.75176
-277.43601
-173.52008
-86.324604
-14.098277
44.787342
91.778844
128.1637
154.87374
171.82946
178.38164
-31.234613
-64.556245
-102.845
-142.70095
-185.37595
-231.63654
-282.40334
-338.68149
-401.56191
-472.18478
-551.66944
-641.01152
-740.92727
-851.581
-972.1931
-1100.7424
-1234.0793
-1368.5069
-1500.5111
-1627.2389
-1746.5555
-1856.803
-1956.4541
-2043.7068
-2115.985
-2169.4678
-2198.9267
-2198.014
-2159.2042
-2074.8003
-1940.4928
-1759.9874
-1546.0138
-1315.96
-1086.2557
-869.31293
-672.6838
-499.77532
-351.04358
-225.16791
-119.956
-32.950631
38.207982
95.599435
140.98914
175.87874
201.34941
217.46166
223.67876
-28.874964
-59.426217
-94.641235
-131.45914
-171.12534
-214.45816
-262.45564
-316.24388
-377.09046
-446.37628
-525.52349
-615.88769
-718.59659
-834.21436
-962.15285
-1100.1297
-1244.2493
-1389.8753
-1532.7657
-1669.7886
-1798.9469
-1918.9556
-2028.751
-2126.9754
-2211.2926
-2277.6648
-2320.0282
-2330.4895
-2299.0518
-2214.1242
-2067.4072
-1861.9315
-1614.7825
-1349.9614
-1089.0615
-847.29089
-632.81726
-448.35834
-293.09753
-164.35175
-58.726747
27.187132
96.453786
151.64787
194.86696
227.82372
251.73941
266.81147
272.61825
-25.799416
-53.188035
-84.942866
-118.33315
-154.56503
-194.49703
-239.19866
-289.91874
-348.11663
-415.44992
-493.70328
-584.67835
-690.04908
-810.98248
-947.27195
-1096.3608
-1253.3018
-1412.0815
-1567.4194
-1715.8561
-1855.6904
-1986.2309
-2107.097
-2217.633
-2316.0193
-2398.1723
-2457.1783
-2483.4347
-2464.0336
-2381.891
-2221.9973
-1985.2668
-1695.2338
-1386.1834
-1086.8841
-815.93841
-581.69211
-385.43517
-224.37048
-93.925324
10.832954
94.452359
160.78633
212.93098
253.31174
283.83389
305.83814
319.64939
324.96166
-22.996847
-47.065921
-75.095813
-104.74608
-137.18537
-173.30394
-214.23417
-261.34397
-316.2933
-381.04954
-457.82242
-548.95035
-656.8071
-783.44358
-929.35619
-1091.7442
-1264.1385
-1438.4402
-1607.8336
-1768.4756
-1919.2457
-2060.3971
-2192.5466
-2316.1273
-2430.3159
-2531.3308
-2611.4635
-2659.3006
-2658.7361
-2585.2034
-2412.4883
-2136.2255
-1789.5923
-1423.5494
-1076.7632
-771.78807
-516.15846
-308.53172
-143.11429
-12.767536
89.36264
169.14187
231.27167
279.36611
316.14841
343.67847
363.38198
375.69385
380.42087
-19.267332
-39.572674
-63.461797
-88.948891
-117.11172
-148.84496
-185.32053
-228.00662
-278.75728
-339.87413
-414.05893
-504.28647
-613.8051
-745.94906
-902.49759
-1080.6039
-1271.6205
-1464.2776
-1649.5036
-1823.0764
-1984.9964
-2136.9977
-2281.0199
-2418.9567
-2551.5582
-2675.7802
-2783.1363
-2860.3901
-2888.4658
-2833.4233
-2650.7354
-2323.9916
-1900.6613
-1460.1172
-1054.3319
-710.13542
-432.22905
-214.72683
-47.416422
80.237967
177.41353
251.43427
307.85657
350.76305
383.10994
407.04954
424.04231
434.60643
438.65415
-16.014485
-32.478314
-52.008412
-73.040359
-96.559577
-123.44886
-154.90183
-192.47056
-238.19522
-294.73708
-365.37159
-453.82068
-564.3718
-702.14634
-871.16945
-1069.0522
-1283.9449
-1499.5419
-1703.2766
-1890.4946
-2063.1604
-2225.2249
-2380.2011
-2531.8083
-2683.3741
-2833.6619
-2973.8675
-3089.3241
-3159.0861
-3138.7637
-2954.2606
-2562.7519
-2031.937
-1492.4871
-1013.1074
-624.60443
-324.91381
-100.65935
64.717232
186.10471
275.36348
341.32608
390.32468
426.79594
453.82021
473.5522
487.42013
495.98899
499.2642
-11.600876
-23.735239
-38.4809
-54.635083
-73.018649
-94.460257
-120.13023
-151.61083
-191.06653
-241.48089
-306.74247
-391.39992
-500.85836
-642.57264
-824.40001
-1045.6748
-1289.9173
-1532.7446
-1756.2837
-1955.6156
-2136.4433
-2306.4067
-2470.9679
-2636.0268
-2809.026
-2992.1229
-3176.2723
-3344.6493
-3475.9992
-3517.058
-3349.4158
-2875.2326
-2187.3839
-1514.7767
-943.42791
-506.60585
-188.09065
37.379672
195.2005
305.59088
383.30079
438.5531
478.24738
506.9745
527.77844
542.697
553.04316
559.38315
561.79838
-7.7808193
-15.712132
-25.621996
-36.73757
-49.693961
-65.227829
-84.441464
-108.89793
-140.82959
-183.51509
-241.55553
-320.52125
-427.00192
-571.30788
-767.65921
-1019.9886
-1305.1361
-1585.1049
-1833.6984
-2045.8262
-2233.9471
-2411.5485
-2585.6469
-2763.2645
-2957.3949
-3175.7039
-3409.2444
-3638.197
-3847.3243
-3986.4798
-3874.4882
-3299.6296
-2371.8604
-1517.7189
-831.05415
-344.71201
-14.48212
203.20672
345.5904
438.97907
500.87581
542.50038
570.93358
590.61843
604.34783
613.89643
620.36641
624.27287
625.75211
-2.7177457
-5.9683644
-10.542362
-16.098849
-23.026178
-31.940916
-43.839723
-60.210354
-83.251482
-116.39151
-164.89029
-235.42157
-335.46987
-477.96668
-686.77284
-976.43451
-1314.623
-1639.6514
-1913.0473
-2129.9273
-2315.2517
-2492.0898
-2668.113
-2849.0881
-3057.3587
-3312.0995
-3608.2483
-3923.2801
-4250.2019
-4561.6276
-4590.9578
-3910.4023
-2594.2871
-1485.8771
-654.20873
-123.72606
204.16191
400.25457
516.64575
585.77551
627.12385
652.1085
667.38523
676.83973
682.75139
686.46721
688.77733
690.09081
690.57546
2.5626063
3.4117178
3.7839322
3.4517573
2.3362751
0.0059165631
-4.3266234
-11.93041
-24.756198
-46.071956
-81.602584
-139.39114
-227.7998
-361.4937
-578.31394
-916.7287
-1334.4107
-1725.5484
-2033.9128
-2253.2524
-2431.3156
-2607.7791
-2790.6081
-2977.7998
-3205.2646
-3510.9708
-3894.267
-4323.9185
-4774.3763
-5301.674
-5583.6066
-4834.1713
-2843.515
-1379.2783
-377.60915
175.82369
476.16997
630.61526
707.6576
744.32752
760.27482
765.79121
766.26915
764.53914
762.07857
759.64028
757.60646
756.22872
755.68347
7.8934001
12.717635
18.566003
24.238065
29.962979
35.5045
40.327509
43.428575
43.168533
36.605484
17.681332
-23.56111
-96.71103
-214.96993
-431.28498
-831.32185
-1367.6537
-1843.6919
-2184.0073
-2378.2262
-2521.3871
-2681.8489
-2865.8287
-3040.4302
-3255.1882
-3587.1532
-4036.9898
-4574.7258
-5101.9407
-5971.9533
-6835.165
-6310.7287
-3082.0233
-1174.5055
36.047682
574.02061
807.52674
893.41698
915.53239
911.39477
897.58727
881.39008
865.91965
852.42433
841.30592
832.57976
826.14384
822.0519
820.4698
17.264779
25.049391
35.64594
46.347303
57.796683
69.934594
82.511145
94.872572
105.87338
113.42319
112.25265
91.344629
40.023691
-47.719135
-233.15483
-689.85503
-1406.241
-1992.0436
-2378.4028
-2532.7238
-2635.177
-2784.5561
-2985.5473
-3131.1541
-3300.3588
-3692.555
-4239.0188
-4976.2083
-5692.7978
-7255.8272
-8896.0386
-9084.617
-3590.809
-1042.9402
635.23975
1101.1775
1200.5268
1182.7837
1133.7365
1081.7762
1035.2757
996.20314
964.38938
939.05702
919.33482
904.41191
893.66148
886.91771
884.32368
21.429211
29.993509
44.952797
60.843016
78.575727
98.309438
120.27237
144.46914
170.66647
198.32833
224.39935
237.72491
222.78717
179.35448
56.649897
-450.30059
-1507.2566
-2254.2503
-2721.0945
-2765.6934
-2742.9878
-2807.656
-3019.9967
-3122.0306
-3243.8615
-3779.2356
-4248.5941
-5201.9684
-6487.0205
-7879.1139
-9605.2588
-12122.417
-4840.1
-76.751467
1724.5357
1815.2557
1645.1711
1483.2167
1350.965
1248.1325
1168.6265
1107.1299
1059.5631
1022.9327
995.04585
974.26272
959.44039
950.1966
946.64881
36.109392
45.587491
65.180551
85.759218
108.89295
134.87868
164.29226
197.57922
235.01649
276.93367
322.02898
359.04023
363.60104
337.9522
298.34507
-151.37378
-1762.2556
-2558.7204
-3046.4095
-2791.8364
-2612.9377
-2724.3224
-3141.2609
-3300.5983
-3365.1872
0
0
0
0
0
0
0
0
6205.5139
3407.0668
2587.2081
2073.2156
1761.0169
1550.4164
1401.4783
1292.4654
1210.9751
1149.3406
1102.5903
1067.3665
1041.3015
1022.8005
1011.2947
1006.8832
34.132012
40.984846
62.578131
85.460583
111.39632
140.68953
174.20881
212.86927
257.64064
310.11385
372.3916
440.03497
494.17041
547.36732
711.55095
608.29764
-1929.132
-2708.2192
-3508.2479
-2983.5764
-3047.5592
-3037.72
0
0
0
0
0
0
0
0
0
0
10140.274
6294.2665
4130.3019
3006.3411
2367.21
1975.0376
1714.9018
1533.4198
1402.1497
1304.9139
1231.8699
1176.7379
1135.3432
1104.7854
1083.1302
1069.6755
1064.5183
43.495282
54.419492
80.225004
106.08636
135.01535
167.56479
204.95842
248.58866
300.15276
362.48953
440.95292
538.39206
641.99822
734.45436
832.28516
631.48592
-3014.8003
-3542.0678
-3189.4719
0
0
0
0
0
0
0
0
0
0
0
1799.2291
3382.519
5769.3523
5245.6374
3969.4405
3107.3433
2513.9023
2114.273
1837.0548
1639.3089
1494.6904
1386.9517
1305.7613
1244.3631
1198.2043
1164.0978
1139.9119
1124.8789
1119.1156
21.856782
41.960259
66.294895
91.216638
118.56561
149.07816
183.79253
223.83192
270.41809
325.61804
393.49693
470.93786
528.2496
518.09324
538.8318
775.67946
0
0
0
0
0
0
-1109.6626
-1082.2677
-990.92805
-897.80693
-770.77604
-476.39854
-76.396197
715.05762
2043.8355
3377.9094
4764.1682
4500.2408
3723.7743
3066.7405
2560.1632
2189.3679
1918.3632
1718.4212
1569.0017
1456.096
1370.1938
1304.7986
1255.4006
1218.7752
1192.7407
1176.5357
1170.3192
19.840041
51.032847
76.017156
101.43297
128.55187
158.23783
191.15767
227.75998
268.00276
311.15393
355.27893
394.04604
403.268
333.54915
146.86005
-290.91759
-1233.2816
-1187.8793
-1114.207
-1071.8604
-1025.4248
-997.95697
-987.06946
-781.70413
-817.80831
-563.23279
-343.08542
-185.76616
277.19519
922.23646
1977.1844
3064.6887
3969.4924
3862.8808
3413.9695
2942.3734
2536.5931
2213.7141
1964.0999
1772.6006
1625.5462
1512.277
1424.9087
1357.7331
1306.6194
1268.5191
1241.3346
1224.3759
1217.8641
20.408161
46.67354
72.5056
98.403891
125.62605
154.92996
186.90208
221.91422
259.96373
300.26141
339.96574
371.90209
383.04303
352.88811
216.28769
-195.90065
-756.24685
-887.4674
-931.95043
-938.15956
-862.00777
-818.15558
-796.03271
-670.60673
-600.56338
-397.92827
-160.16023
96.224464
528.69573
1113.5122
1912.3852
2736.4325
3347.865
3368.2283
3115.8273
2786.4516
2472.0164
2201.992
1981.4278
1805.246
1665.8815
1556.1571
1470.1334
1403.1822
1351.7738
1313.1939
1285.5352
1268.2311
1261.5787
15.523302
36.971591
59.700643
82.238314
105.19511
128.82649
153.15648
177.84328
202.01889
223.84556
239.32734
241.15926
220.01927
163.87347
29.063036
-257.64989
-576.76751
-703.0298
-756.76578
-768.30898
-728.70105
-680.28057
-620.28276
-516.91539
-403.8992
-219.02069
7.0633348
287.839
685.89091
1204.2672
1838.9106
2465.3599
2902.5192
2978.7428
2845.5588
2622.7502
2385.2921
2166.2814
1977.4098
1820.311
1692.1676
1588.8911
1506.464
1441.4313
1390.9752
1352.8133
1325.3015
1308.0315
1301.383
24.110227
46.820009
70.76081
94.354803
118.30862
142.73768
167.48159
191.94141
214.86024
233.80853
244.24247
239.08534
209.79025
142.5046
6.8303122
-214.62465
-434.54807
-553.54783
-609.74661
-619.99841
-592.44781
-545.96827
-475.98342
-374.08747
-244.76794
-64.070168
157.36919
433.68283
793.91156
1239.916
1750.7926
2235.9533
2570.2292
2670.4365
2610.5199
2464.9428
2289.6526
2116.0933
1958.3192
1821.7206
1706.7931
1611.9082
1534.7431
1472.9672
1424.4953
1387.519
1360.6972
1343.7978
1337.2821
12.641196
30.667262
50.975382
71.123246
91.235225
111.20165
130.7355
149.19831
165.40469
177.22162
181.05523
171.85668
143.13149
83.353875
-26.122891
-184.22359
-336.43176
-433.2554
-482.57205
-491.25512
-466.69108
-418.56811
-345.07435
-242.76581
-109.41607
65.42068
279.67984
542.3855
866.201
1248.1411
1663.6188
2046.8308
2314.9439
2423.6008
2409.2689
2318.9293
2192.9456
2058.2413
1929.2659
1813.0124
1712.1091
1626.7355
1555.9491
1498.4109
1452.7246
1417.5546
1391.8747
1375.6302
1369.3568
21.832117
41.194717
61.675463
81.420432
100.72187
119.32064
136.72406
152.07361
163.98066
170.2511
167.71471
152.49184
119.8056
61.875293
-29.944146
-148.06519
-258.84087
-334.69002
-373.90103
-378.84643
-354.02466
-304.14141
-228.73109
-125.98701
6.8935804
174.85017
378.51731
622.86995
912.1565
1239.9275
1582.608
1892.3911
2114.9812
2224.3065
2238.4744
2187.3942
2099.8887
1997.6278
1894.2514
1797.2023
1710.2743
1634.8734
1571.1076
1518.4569
1476.133
1443.2401
1419.0567
1403.6948
1397.7522
12.459392
28.742534
47.010347
64.912411
82.368457
99.036546
114.4103
127.67188
137.54495
142.1064
138.73983
124.32057
95.028772
45.726939
-26.799515
-114.18985
-195.06635
-252.08384
-280.54675
-280.25004
-253.30414
-201.86535
-125.74847
-23.755316
106.20747
266.57241
458.11925
682.82753
940.4897
1222.9933
1509.72
1765.9309
1955.598
2061.959
2093.9512
2070.77
2012.9487
1937.4291
1856.2427
1776.7423
1703.1742
1637.7157
1581.2256
1533.8251
1495.2342
1464.9461
1442.5184
1428.2099
1422.6652
17.635255
33.954574
51.27264
67.741754
83.422722
97.944595
110.77556
121.12748
127.86437
129.41327
123.80506
108.80889
81.809095
39.930978
-17.134307
-82.093346
-140.9568
-182.0542
-200.32031
-194.23416
-164.30797
-111.33054
-35.106071
65.195613
190.87804
343.05962
521.94484
727.47529
957.072
1202.1956
1445.6057
1661.982
1826.8838
1928.7443
1971.8105
1968.4904
1933.4211
1879.6924
1817.4391
1753.5732
1692.4008
1636.5068
1587.249
1545.2239
1510.5577
1483.0724
1462.57
1449.4317
1444.3314
12.54228
27.202972
43.302797
58.767805
73.454842
86.948632
98.714573
108.00803
113.81482
114.82261
109.49845
96.210064
73.252883
39.311756
-4.4980166
-52.166783
-94.075836
-121.9055
-130.97071
-119.1878
-86.111765
-31.760032
44.141621
142.14073
262.89824
406.70623
573.10131
760.74061
965.8848
1180.3147
1389.9316
1576.1225
1721.8588
1818.7414
1868.5739
1879.4246
1861.7522
1825.618
1779.3557
1729.1769
1679.2586
1632.3243
1590.0365
1553.3248
1522.6255
1498.0288
1479.542
1467.6416
1463.0136
14.208198
28.198213
43.118616
57.203886
70.394047
82.305312
92.4546
100.19946
104.70997
104.97412
99.878364
88.318524
69.31454
42.532894
9.6435654
-24.533685
-53.127132
-69.966064
-70.958002
-53.8757
-17.773566
37.74703
113.01499
208.35555
323.9591
459.55404
614.12224
785.56419
969.68596
1158.9678
1341.9958
1504.9125
1635.5153
1727.4772
1781.3161
1802.2981
1797.9226
1775.9041
1743.021
1704.676
1664.7945
1626.0794
1590.3479
1558.7461
1531.9369
1510.2207
1493.7717
1483.1345
1478.9902
11.927684
24.939167
38.993561
52.286106
64.678046
75.787078
85.166269
92.256545
96.380612
96.769791
92.643774
83.319465
68.367629
48.067152
24.253045
0.80615538
-17.169289
-24.927137
-18.984899
2.8233963
41.659361
98.120931
172.54529
265.07738
375.57116
503.36532
647.04963
804.12736
970.35358
1139.0463
1300.9836
1445.6865
1564.1663
1651.5222
1707.597
1735.83
1741.6205
1730.8824
1709.1027
1680.8918
1649.8328
1618.5291
1588.8418
1562.0446
1538.9567
1520.0377
1505.5927
1496.2085
1492.546
11.970135
24.230496
37.330247
49.636064
61.046964
71.219458
79.766084
86.224764
90.067847
90.738552
87.725747
80.667736
69.517443
54.895672
38.599548
23.780367
14.363388
14.093384
25.911574
51.82134
93.032077
150.20992
223.66307
313.38992
419.00586
539.58542
673.47358
818.01229
969.125
1120.9686
1266.065
1396.3502
1505.0265
1588.2093
1645.3952
1678.8201
1692.3884
1690.6419
1678.0122
1658.3996
1635.0055
1610.2877
1586.0779
1563.7113
1544.1081
1527.8449
1515.3259
1507.1571
1503.964
10.924584
22.496653
34.898114
46.5422
57.314634
66.900647
74.96717
81.141154
85.027282
86.247759
84.510456
79.70342
72.044311
62.337952
52.268028
44.434484
41.951069
47.835299
64.573065
93.966551
137.17979
194.86971
267.29161
354.32496
455.41777
569.47357
694.70667
828.44484
966.88499
1104.9539
1236.5401
1355.3204
1456.0236
1535.5066
1593.0981
1630.2339
1649.7505
1655.1481
1650.0082
1637.6225
1620.8123
1601.8588
1582.5304
1564.175
1547.771
1533.978
1523.2736
1516.2628
1513.5196
10.521992
21.484806
33.202722
44.191121
54.354963
63.415781
71.094869
77.100018
81.148435
83.006649
82.551887
79.855775
75.308312
69.796953
64.868582
62.706769
65.845941
76.765953
97.57776
129.87818
174.74012
232.76938
304.15672
388.68551
485.68821
593.9653
711.68101
836.2342
964.13122
1090.9697
1211.6996
1321.2635
1415.474
1491.7374
1549.3112
1589.095
1613.1594
1624.217
1625.1719
1618.8041
1607.59
1593.6192
1578.5776
1563.7939
1550.2745
1538.7362
1529.7127
1523.7915
1521.4759
9.9472608
20.404781
31.592846
42.090352
51.810245
60.507218
67.952992
73.927586
78.244208
80.78708
81.565632
80.786129
78.949134
76.969368
76.260843
78.691036
86.372858
101.38299
125.52812
160.21375
206.40476
264.63689
335.03391
417.30239
510.69672
613.96201
725.26446
842.11692
961.33015
1079.0661
1191.0927
1293.2796
1382.2195
1455.7293
1513.0465
1554.7087
1582.2358
1597.7472
1603.6132
1602.1917
1595.6582
1585.918
1574.5655
1562.8941
1551.9164
1542.3893
1534.8937
1529.99
1528.0825
9.5290975
19.548595
30.275225
40.353292
49.707509
58.123302
65.416641
71.428451
76.049955
79.257705
81.160908
82.061171
82.526441
83.468704
86.183934
92.29939
103.61723
121.90994
148.74069
185.34682
232.58541
290.91776
360.4044
440.69141
530.98199
629.99758
735.93626
846.43958
958.59486
1069.0253
1174.1245
1270.4431
1355.1398
1426.3398
1483.2861
1526.2714
1556.4201
1575.4076
1585.1897
1587.7827
1585.1094
1578.9074
1570.6798
1561.6779
1552.9055
1545.144
1539.0228
1535.0784
1533.5751
9.1487763
18.82729
29.200375
38.963278
48.049269
56.271377
63.484132
69.579463
74.511448
78.328365
81.213802
83.53576
85.901573
89.206671
94.648254
103.67247
117.8522
138.73136
167.68195
205.80039
253.84627
312.21118
380.90009
459.51258
547.21953
642.73813
744.31198
849.70746
956.24861
1060.9248
1160.6016
1252.3278
1333.6725
1402.9904
1459.541
1503.4511
1535.5622
1557.2211
1570.0663
1575.8443
1576.271
1572.941
1567.2724
1560.4745
1553.5335
1547.2451
1542.3044
1539.263
1538.1862
8.782558
18.201221
28.303634
37.82984
46.718177
54.805754
61.978996
68.17039
73.382408
77.71695
81.41129
84.878478
88.747856
93.894346
101.43667
112.68702
129.05135
151.90486
182.47387
221.74238
270.38836
328.74371
396.76759
474.02484
559.66674
652.41636
750.56459
851.98706
954.19903
1054.4701
1150.0135
1238.2365
1317.0019
1384.8321
1441.0062
1485.54
1519.0765
1542.7245
1557.8874
1566.106
1568.9347
1567.8531
1564.2094
1559.1791
1553.7319
1548.6667
1544.7597
1542.6546
1542.1419
8.413388
17.714884
27.648357
37.022058
45.780332
53.783774
60.945169
67.228269
72.671344
77.414785
81.73318
86.068925
91.062512
97.56909
106.6479
119.51626
137.46423
161.74812
193.48913
233.58756
282.65864
340.98775
408.49924
484.73346
568.83059
659.52335
755.14409
853.65519
952.71576
1049.7983
1142.3607
1228.058
1304.9555
1371.6931
1427.5673
1472.522
1507.0654
1532.1417
1548.9872
1558.9944
1563.599
1564.194
1562.0733
1558.3872
1554.0896
1549.9506
1546.7953
1545.5185
1545.7815
7.9143422
17.288027
27.144997
36.438904
45.12138
53.07705
60.239023
66.59268
72.199779
77.225178
81.966303
86.882359
92.618319
100.01456
110.09202
124.01045
142.98726
168.20055
200.70243
241.3377
290.6792
348.98074
416.14332
491.69168
574.76012
664.08988
758.04323
854.64198
951.6407
1046.6433
1137.2633
1221.3118
1296.9813
1362.9863
1418.6365
1463.8324
1498.9987
1524.9755
1542.8922
1554.0449
1559.7912
1561.4646
1560.3187
1557.4897
1553.9254
1550.3413
1547.5576
1547.0705
1549.2415
6.6897945
16.955442
26.870136
36.159681
44.814149
52.750233
59.915135
66.306181
71.997187
77.165335
82.119513
87.327596
93.437669
101.28573
111.87822
126.33637
145.83239
171.51113
204.39334
245.29666
294.77273
353.05928
420.04544
495.24805
577.79857
666.44292
759.55895
855.19899
951.16592
1045.1294
1134.7802
1218.0064
1293.0632
1358.7026
1414.2414
1459.5598
1495.0422
1521.4776
1539.9437
1551.6896
1558.0293
1560.2657
1559.6406
1557.2938
1554.1829
1550.983
1548.4801
1548.9466
1554.7667
-2183.595
-2433.0627
-2642.6378
-2817.2355
-2950.855
-3022.8751
-3014.8003
-2925.2711
-2748.461
-2560.9485
-3189.3325
-3189.4719
-3184.2441
-3176.0571
-3165.2846
-3156.8711
-3145.7361
-3155.992
-3152.0288
-3117.7535
-3168.2912
-3166.7902
-3153.2359
-3138.2022
-3123.6206
-3118.0149
-3101.9791
-3106.6001
-3091.0606
-3034.1937
-3125.5171
-3122.5444
-3112.4021
-3102.0385
-3091.3177
-3092.1594
-3081.9783
-3079.4957
-3067.0533
-3030.4904
-3061.7082
-3060.4881
-3055.1317
-3047.0007
-3034.6237
-3024.8658
-3031.0072
-3034.5437
-3036.6763
-3041.6206
-3028.5669
-3028.2248
-3024.956
-3018.635
-3010.315
-2983.5764
-3000.9975
-3008.0119
-3010.1771
-3019.0279
-3028.3281
-3030.1228
-3034.66
-3040.3118
-3056.2737
-3041.1131
-3035.1497
-3022.5896
-2999.7734
-2970.6115
-3040.9029
-3041.2889
-3043.918
-3047.5592
-3064.5087
-3069.9127
-3053.9586
-3031.1405
-3002.2747
-2966.4155
-3864.8119
-3877.7901
-3851.2311
-3809.2086
-3773.4601
-3742.4704
-3721.3192
-3707.2942
-3697.5697
-3698.0834
-2996.5126
-2996.4181
-2992.4801
-2983.1882
-2947.2669
-2966.9284
-2975.8291
-2975.5733
-2962.5101
-2933.1026
-3033.8209
-3037.72
-3046.1255
-3069.4787
-3055.5207
-3041.9112
-3029.4878
-3015.1761
-2995.9707
-2976.9418
-3058.6584
-3059.6673
-3060.5687
-3076.8408
-3089.2637
-3071.382
-3050.2641
-3032.834
-3014.6512
-2997.5468
-3012.11
-3008.4807
-2990.1588
-2959.9942
-2985.2349
-3003.8884
-3015.8538
-3023.6462
-3025.527
-3031.3679
-3058.0144
-3060.6636
-3065.5917
-3033.5677
-3035.8362
-3044.8572
-3051.6453
-3055.4285
-3055.8006
-3063.2274
-3162.038
-3168.1194
-3191.6075
-3196.2927
-3169.6507
-3141.2609
-3120.1901
-3104.7835
-3089.4933
-3072.4191
-3124.858
-3117.9673
-3106.5384
-3124.4359
-3131.8257
-3134.1729
-3134.7692
-3134.6376
-3132.4023
-3136.6762
-3160.972
-3160.2199
-3133.0293
-3144.1821
-3157.3952
-3168.5393
-3176.4239
-3181.347
-3183.0102
-3189.4142
-3309.8259
-3324.2784
-3318.5235
-3300.5983
-3281.787
-3266.9021
-3256.1072
-3248.8656
-3240.8733
-3231.2177
-3325.1723
-3329.6818
-3339.0284
-3329.2654
-3316.5602
-3307.5081
-3303.6235
-3304.5845
-3306.3805
-3315.6501
-3237.1139
-3222.4885
-3240.458
-3265.6135
-3292.9204
-3318.2561
-3341.1101
-3361.2937
-3377.1773
-3398.2533
-3388.4717
-3365.1872
-3372.9851
-3389.8122
-3412.046
-3432.2537
-3449.5694
-3463.041
-3471.0175
-3482.6875
-3746.4069
-3738.5042
-3707.618
-3672.116
-3644.6959
-3622.33
-3607.1268
-3596.8239
-3587.6963
-3582.0203
-3016.6877
-3014.7529
-3006.586
-2990.855
-2976.5316
-2989.9301
-2994.0222
-2992.5915
-2985.9772
-2985.5956
-3489.6164
-3498.3664
-3513.15
-3559.7678
-3614.558
-3662.1753
-3680.426
-3659.101
-3564.8748
-3385.2009
-3253.0167
-3253.107
-3255.28
-3259.7272
-3260.7101
-3259.8303
-3257.2566
-3257.7332
-3249.0684
-3195.5518
-3120.019
-3168.7757
-3231.7792
-3335.3086
-3443.0689
-3523.784
-3564.1952
-3514.7349
-3353.3794
-3116.624
-3444.6288
-3454.534
-3474.6536
-3509.8312
-3542.0678
-3568.8174
-3574.8844
-3572.0415
-3530.3989
-3409.9217
-3343.5757
-3348.1089
-3361.5128
-3384.2686
-3404.2256
-3420.9324
-3428.8839
-3418.3898
-3400.6774
-3341.3642
11328.864
10726.192
10140.274
9500.6285
8843.4701
8190.0648
7555.5965
6947.098
6357.5515
5780.3108
8320.1944
8242.2617
8118.0948
7855.7015
7517.1386
7126.0976
6703.873
6268.3426
5829.7332
5372.9444
-3715.1224
-3732.8156
-3752.4508
-3761.5914
-3773.4038
-3779.2356
-3785.9233
-3790.5025
-3792.3171
-3795.6765
-3716.0377
-3719.8982
-3755.6386
-3787.7702
-3828.2268
-3856.7959
-3881.9928
-3898.9562
-3908.168
-3912.4958
-3960.5143
-3953.2346
-3969.4964
-3977.1436
-4005.8961
-4024.6847
-4045.0099
-4058.383
-4064.068
-4059.6987
-4238.1618
-4227.7967
-4242.0369
-4232.4975
-4248.5941
-4250.4318
-4257.004
-4258.0494
-4254.4327
-4249.9129
-4561.5847
-4543.4488
-4555.1071
-4527.8556
-4531.5164
-4513.4176
-4500.7807
-4480.5223
-4452.6118
-4419.9342
-4918.1795
-4890.9763
-4900.4667
-4853.8062
-4845.1933
-4806.3706
-4773.2577
-4729.4902
-4674.4622
-4613.8186
-5298.9188
-5260.51
-5269.0181
-5201.9684
-5182.2234
-5123.7814
-5072.0672
-5008.2085
-4931.5413
-4845.7525
-5699.7106
-5647.7016
-5656.3894
-5567.1572
-5536.15
-5457.5787
-5386.5889
-5303.7601
-5213.3661
-5130.3369
-6121.5766
-6052.5457
-6062.2583
-5948.0771
-5904.4257
-5803.6941
-5709.0082
-5598.5911
-5472.8497
-5336.766
-6564.6938
-6474.722
-6487.0205
-6345.2106
-6287.7853
-6164.6012
-6046.1285
-5911.6397
-5761.6083
-5599.37
-7035.2256
-6918.2336
-6933.8732
-6760.2412
-6685.9301
-6538.061
-6391.8574
-6229.2706
-6050.37
-5864.0458
-7532.0844
-7382.0087
-7404.0121
-7195.4304
-7101.1029
-6926.7782
-6748.6803
-6552.2392
-6333.2086
-6095.4804
-8073.6141
-7879.1139
-7907.9661
-7658.6125