/*--------------------------------*- C++ -*----------------------------------*\
| =========                 |                                                 |
| \\      /  F ield         | foam-extend: Open Source CFD                    |
|  \\    /   O peration     | Version:     4.1                                |
|   \\  /    A nd           | Web:         http://www.foam-extend.org         |
|    \\/     M anipulation  |                                                 |
\*---------------------------------------------------------------------------*/
FoamFile
{
    version     2.0;
    format      ascii;
    class       surfaceScalarField;
    location    "1.2";
    object      phi;
}
// * * * * * * * * * * * * * * * * * * * * * * * * * * * * * * * * * * * * * //

dimensions      [0 3 -1 0 0 0 0];

internalField   nonuniform List<scalar> 
8438
(
-0.59744044
0.0016735534
-0.59917929
0.0017388563
-0.60095307
0.0017737752
-0.60277077
0.0018176983
-0.60464215
0.0018713801
-0.60657765
0.0019354973
-0.60858666
0.0020090187
-0.61067682
0.002090153
-0.61285322
0.0021764022
-0.61511779
0.0022645742
-0.61746857
0.0023507795
-0.61989904
0.0024304657
-0.62239756
0.0024985208
-0.62494702
0.0025494651
-0.62752475
0.0025777278
-0.63010276
0.0025780113
-0.63264835
0.0025455905
-0.63512497
0.0024766129
-0.6374932
0.0023682277
-0.63971177
0.0022185777
-0.6417385
0.0020267235
-0.64353105
0.0017925512
-0.6450478
0.0015167544
-0.64624876
0.0012009543
-0.64709677
0.00084801229
-0.64755931
0.00046254526
-0.64761062
5.1308248e-05
-0.64723331
-0.00037730914
-0.6464224
-0.00081091745
-0.64518935
-0.0012330479
-0.64356305
-0.0016262928
-0.64158957
-0.001973483
-0.63932997
-0.0022595992
-0.6368563
-0.0024736741
-0.63424629
-0.0026100038
-0.6315779
-0.0026683908
-0.62892442
-0.0026534841
-0.62635089
-0.0025735323
-0.62391197
-0.0024389139
-0.62165122
-0.0022607572
-0.61960137
-0.002049842
-0.61778553
-0.0018158451
-0.61621862
-0.0015669063
-0.61490908
-0.0013095388
-0.61385998
-0.0010491001
-0.61306953
-0.00079045784
-0.61253402
-0.00053550964
-0.6122586
-0.0002754186
-1.3648039e-05
-0.61123264
0.003139296
-0.61269177
0.0031979893
-0.61417807
0.0032600699
-0.61570479
0.0033444179
-0.61728438
0.0034509743
-0.61892806
0.003579172
-0.62064566
0.0037266222
-0.62244516
0.0038896485
-0.624332
0.0040632438
-0.62630845
0.0042410239
-0.62837286
0.0044151939
-0.630519
0.0045766044
-0.63273543
0.0047149495
-0.63500511
0.0048191495
-0.6373053
0.0048779163
-0.63960779
0.0048805021
-0.64187953
0.0048173327
-0.64408355
0.0046806262
-0.64617998
0.0044646569
-0.64812712
0.0041657242
-0.64988237
0.003781971
-0.65140299
0.0033131656
-0.65264687
0.0027606419
-0.65357345
0.0021275326
-0.65414483
0.0014193872
-0.65432746
0.00064517772
-0.65409465
-0.00018150568
-0.65343054
-0.0010414112
-0.65233202
-0.00190944
-0.65081
-0.0027550639
-0.64889255
-0.0035437453
-0.6466254
-0.0042406322
-0.64406997
-0.0048150369
-0.6412991
-0.0052445348
-0.63839158
-0.0055175246
-0.63542626
-0.0056337099
-0.63247706
-0.0056026874
-0.62960927
-0.0054413275
-0.62687745
-0.0051707285
-0.62432482
-0.0048133913
-0.62198367
-0.0043909937
-0.61987663
-0.0039228844
-0.61801828
-0.0034252544
-0.61641682
-0.0029109976
-0.61507556
-0.0023903564
-0.61399476
-0.0018712624
-0.6131739
-0.0013563652
-0.61260473
-0.0008445953
-0.00037357403
-0.61227817
0.0045549028
-0.61369205
0.0046118704
-0.61513077
0.0046987895
-0.61660928
0.004822933
-0.61814089
0.0049825838
-0.6197374
0.0051756799
-0.62140914
0.005398363
-0.62316458
0.0056450851
-0.62500972
0.0059083902
-0.62694746
0.0061787617
-0.6289768
0.0064445296
-0.63109211
0.0066919223
-0.63328251
0.0069053431
-0.6355313
0.0070679385
-0.63781585
0.0071624723
-0.64010785
0.0071725027
-0.64237393
0.0070834071
-0.64457666
0.0068833635
-0.64667576
0.0065637558
-0.64862912
0.0061190831
-0.65039376
0.0055466082
-0.65192654
0.0048459438
-0.65318479
0.0040188962
-0.65412704
0.0030697857
-0.65471404
0.0020063867
-0.65491038
0.00084151731
-0.65468692
-0.00040497047
-0.65402359
-0.0017047448
-0.65291293
-0.0030200923
-0.65136391
-0.0043040917
-0.64940441
-0.005503246
-0.64708189
-0.0065631505
-0.64446119
-0.0074357366
-0.64161972
-0.0080860037
-0.63864107
-0.0084961737
-0.63560841
-0.0086663692
-0.6325989
-0.0086121943
-0.62967981
-0.0083604204
-0.62690645
-0.007944088
-0.62432178
-0.0073980595
-0.62195718
-0.0067555926
-0.61983398
-0.0060460886
-0.6179653
-0.0052939344
-0.61635794
-0.0045183525
-0.61501429
-0.0037340079
-0.6139345
-0.0029510586
-0.61311683
-0.0021740355
-0.61255277
-0.0014086507
-0.00068139501
-0.61263502
0.0059411255
-0.61402853
0.0060053838
-0.61544753
0.0061177866
-0.61690697
0.0062823668
-0.6184206
0.0064962232
-0.62000096
0.0067560323
-0.62165913
0.007056535
-0.62340443
0.0073903846
-0.62524378
0.0077477448
-0.62718103
0.0081160034
-0.62921608
0.0084795874
-0.63134414
0.0088199795
-0.63355484
0.0091160465
-0.6358317
0.0093447904
-0.63815179
0.009482562
-0.64048603
0.0095067471
-0.64279991
0.0093972879
-0.64505466
0.0091381097
-0.64720858
0.0087176837
-0.64921832
0.0081288177
-0.65103974
0.0073680242
-0.65262858
0.0064347924
-0.65394093
0.0053312401
-0.65493361
0.0040624728
-0.65556509
0.002637862
-0.65579688
0.0010733083
-0.65559602
-0.00060583159
-0.65493839
-0.0023623797
-0.65381281
-0.004145663
-0.65222569
-0.0058912158
-0.6502046
-0.0075243333
-0.64779962
-0.0089681321
-0.64508098
-0.010154375
-0.64213332
-0.011033664
-0.63904787
-0.011581621
-0.63591457
-0.011799671
-0.6328156
-0.011711165
-0.62982119
-0.011354835
-0.62698769
-0.010777588
-0.62435757
-0.010028174
-0.62196071
-0.0091524567
-0.61981635
-0.0081904481
-0.61793537
-0.0071749111
-0.61632247
-0.0061312549
-0.61497832
-0.0050781599
-0.61390148
-0.0040278972
-0.61308836
-0.0029871593
-0.61253356
-0.0019634518
-0.00097000047
-0.61305953
0.0073002976
-0.61442982
0.0073756725
-0.61582655
0.0075145202
-0.61726487
0.0077206912
-0.61875905
0.007990399
-0.62032237
0.008319349
-0.62196688
0.0087010472
-0.62370299
0.0091264927
-0.62553883
0.0095835874
-0.62747952
0.01005669
-0.62952623
0.010526299
-0.63167524
0.010968991
-0.63391696
0.011357768
-0.63623514
0.011662967
-0.63860644
0.011853865
-0.64100068
0.011900985
-0.64338167
0.011778281
-0.6457087
0.011465144
-0.64793817
0.010947152
-0.650025
0.010215649
-0.65192364
0.0092666571
-0.6535885
0.0080996589
-0.65497417
0.0067169108
-0.65603547
0.0051237678
-0.65672792
0.0033303109
-0.65700901
0.0013543969
-0.65684061
-0.00077422278
-0.65619285
-0.003010143
-0.65504895
-0.0052895593
-0.65341127
-0.0075289047
-0.65130655
-0.009629045
-0.64878841
-0.011486276
-0.6459348
-0.01300799
-0.64284078
-0.014127682
-0.63960858
-0.01481382
-0.6363377
-0.015070546
-0.63311726
-0.014931608
-0.63002137
-0.014450721
-0.62710755
-0.013691411
-0.6244173
-0.012718424
-0.62197816
-0.011591595
-0.61980638
-0.010362232
-0.61790967
-0.0090716242
-0.61628982
-0.0077511017
-0.61494508
-0.0064229002
-0.61387185
-0.0051011302
-0.61306518
-0.0037938244
-0.61252118
-0.0025074566
-0.001246376
-0.61359673
0.0086272327
-0.61493736
0.0087163002
-0.61630579
0.0088829534
-0.61771734
0.0091322378
-0.61918683
0.0094598944
-0.62072847
0.0098609803
-0.62235543
0.01032801
-0.62407948
0.010850548
-0.62591032
0.011414421
-0.62785471
0.012001078
-0.6299155
0.01258709
-0.63209046
0.013143953
-0.63437108
0.01363839
-0.63674151
0.014033399
-0.63917792
0.014290274
-0.64164865
0.01437171
-0.64411526
0.014244893
-0.64653442
0.013884305
-0.64885998
0.013272713
-0.65104472
0.012400391
-0.65304139
0.011263329
-0.65480298
0.0098612428
-0.65628243
0.0081963579
-0.65743224
0.0062735829
-0.65820442
0.0041024894
-0.65855131
0.0017012919
-0.65842804
-0.00089749211
-0.65779687
-0.0036413198
-0.65663306
-0.0064533643
-0.65493287
-0.0092290996
-0.6527213
-0.011840612
-0.65005641
-0.014151161
-0.64702678
-0.01603763
-0.64374197
-0.01741249
-0.64031938
-0.018236412
-0.63687145
-0.018518475
-0.63349633
-0.018306723
-0.63027291
-0.017674144
-0.62725968
-0.016704637
-0.6244964
-0.015481709
-0.62200713
-0.014080865
-0.61980387
-0.012565494
-0.61788999
-0.010985499
-0.61626333
-0.0093777637
-0.6149187
-0.0077675328
-0.61384965
-0.0061701811
-0.61304957
-0.0045939019
-0.61251419
-0.0030428331
-0.0015156193
-0.61424975
0.0099181893
-0.61555478
0.010021328
-0.61688851
0.010216687
-0.61826696
0.01051069
-0.61970576
0.010898686
-0.62122013
0.011375359
-0.62282465
0.011932522
-0.6245327
0.0125586
-0.62635589
0.013237613
-0.62830311
0.013948294
-0.63037935
0.014663336
-0.63258439
0.015348985
-0.6349112
0.015965207
-0.6373446
0.016466798
-0.63986019
0.016805861
-0.6424244
0.016935922
-0.64499582
0.016816309
-0.64752761
0.016416101
-0.64997035
0.015715446
-0.65227418
0.014704223
-0.65438999
0.013379141
-0.65626936
0.011740615
-0.65786373
0.0097907203
-0.65912321
0.0075330633
-0.65999581
0.0049750885
-0.66042767
0.0021331554
-0.66036531
-0.00095984981
-0.65976054
-0.0042460897
-0.65857752
-0.0076363811
-0.65680338
-0.01100324
-0.65445972
-0.014184277
-0.65160995
-0.017000931
-0.64835693
-0.019290647
-0.64483014
-0.020939286
-0.6411675
-0.02189905
-0.63749854
-0.022187432
-0.63393282
-0.02187244
-0.63055468
-0.021052287
-0.6274231
-0.019836215
-0.62457485
-0.018329959
-0.62202905
-0.01662667
-0.61979195
-0.014802586
-0.61786131
-0.012916148
-0.61622985
-0.01100922
-0.61488808
-0.0091093041
-0.61382607
-0.007232193
-0.61303484
-0.0053851248
-0.61250836
-0.0035693114
-0.0017790334
-0.61501302
0.011164727
-0.6162752
0.011283505
-0.61756745
0.011508936
-0.6189062
0.011849442
-0.62030791
0.012300403
-0.62178903
0.012856478
-0.62336566
0.013509147
-0.62505314
0.014246081
-0.6268654
0.015049868
-0.62881392
0.015896817
-0.63090646
0.016755877
-0.63314538
0.017587909
-0.63552577
0.018345591
-0.63803343
0.018974461
-0.6406434
0.019415833
-0.64331969
0.019612213
-0.64601692
0.019513537
-0.64868364
0.019082817
-0.65126615
0.018297963
-0.65371148
0.01714955
-0.65596857
0.015636232
-0.65798787
0.013759918
-0.65971969
0.011522538
-0.66111201
0.0089253791
-0.66210858
0.005971665
-0.66264834
0.0026729086
-0.66266711
-0.0009410715
-0.66210312
-0.0048100802
-0.66090526
-0.0088342467
-0.65904715
-0.012861347
-0.65654414
-0.016687284
-0.65346576
-0.020079311
-0.64993404
-0.022822373
-0.64610561
-0.024767717
-0.64214609
-0.025858569
-0.63820724
-0.026126284
-0.63441259
-0.025667085
-0.6308523
-0.024612584
-0.62758468
-0.023103827
-0.62464166
-0.021272985
-0.62203532
-0.019233007
-0.61976432
-0.017073584
-0.61781917
-0.0148613
-0.61618631
-0.012642085
-0.61485101
-0.010444599
-0.6137993
-0.0082838998
-0.6130193
-0.0061651303
-0.61250256
-0.0040860448
-0.002036798
-0.61588763
0.012363446
-0.61710097
0.012496846
-0.61834485
0.01275281
-0.61963681
0.013141405
-0.62099437
0.013657959
-0.6224353
0.01429741
-0.62397747
0.015051323
-0.6256385
0.015907104
-0.62743504
0.016846412
-0.62938179
0.01784357
-0.63148996
0.018864043
-0.63376531
0.019863255
-0.63620577
0.020786054
-0.63879876
0.021567457
-0.64151884
0.022135909
-0.64432695
0.022420326
-0.64717248
0.022359061
-0.64999781
0.021908147
-0.65274377
0.021043921
-0.65535362
0.019759401
-0.65777449
0.018057103
-0.6599563
0.015941731
-0.66184904
0.013415278
-0.66339921
0.010475551
-0.66454645
0.0071188975
-0.66522154
0.0033480062
-0.66534742
-0.000815194
-0.66484477
-0.005312731
-0.6636417
-0.01003732
-0.66169199
-0.014811054
-0.65899997
-0.019379301
-0.65564159
-0.023437691
-0.65176465
-0.026699314
-0.64756318
-0.028969185
-0.64324015
-0.030181601
-0.63897606
-0.03039038
-0.63491116
-0.029731978
-0.63114116
-0.028382585
-0.6277217
-0.026523289
-0.62467707
-0.024317614
-0.62200963
-0.021900445
-0.61970807
-0.019375148
-0.61775382
-0.016815551
-0.61612566
-0.014270246
-0.61480272
-0.01176753
-0.61376636
-0.009320263
-0.61300126
-0.0069302318
-0.61249631
-0.0045909969
-0.0022881551
-0.61686696
0.013502424
-0.61802273
0.013652621
-0.61921048
0.01394056
-0.620448
0.014378927
-0.62175373
0.014963689
-0.62314685
0.015690529
-0.62464717
0.016551639
-0.62627485
0.017534783
-0.62804979
0.018621358
-0.62999056
0.019784332
-0.63211264
0.020986129
-0.63442622
0.02217683
-0.63693313
0.023292967
-0.63962327
0.024257597
-0.64247095
0.024983591
-0.64543331
0.025382689
-0.64845272
0.025378466
-0.65146324
0.024918667
-0.65439848
0.023979166
-0.65719725
0.022558171
-0.65980518
0.020665027
-0.66217271
0.018309258
-0.66425089
0.015493461
-0.66598605
0.01221071
-0.66731431
0.0084471622
-0.66815778
0.0041914713
-0.6684241
-0.0005488753
-0.6680117
-0.0057251271
-0.66682075
-0.01122827
-0.66477605
-0.016855759
-0.66186299
-0.022292353
-0.65816324
-0.027137449
-0.65385952
-0.031003031
-0.64919799
-0.033630715
-0.6444323
-0.034947288
-0.63977993
-0.03504275
-0.63540052
-0.034111391
-0.63139396
-0.032389149
-0.62780978
-0.030107463
-0.62466073
-0.027466667
-0.6219358
-0.024625376
-0.61961083
-0.021700112
-0.61765612
-0.018770266
-0.61604136
-0.015885007
-0.61473866
-0.013070228
-0.61372415
-0.010334774
-0.61297875
-0.0076756329
-0.61248854
-0.0050812053
-0.0025317431
-0.61794999
0.014580946
-0.6190427
0.01474533
-0.62016709
0.015064944
-0.62134238
0.01555422
-0.62258814
0.016209447
-0.62392503
0.017027424
-0.62537496
0.018001566
-0.62696094
0.019120759
-0.62870659
0.020367013
-0.63063507
0.021712814
-0.6327672
0.023118259
-0.6351188
0.024528427
-0.63769704
0.025871212
-0.64049561
0.027056164
-0.64348917
0.027977151
-0.64663017
0.028523686
-0.64985154
0.028599834
-0.65307597
0.028143101
-0.65622749
0.02713069
-0.65923962
0.025570301
-0.66205721
0.023482609
-0.66463293
0.020884981
-0.66692106
0.017781597
-0.66886987
0.014159515
-0.67041338
0.0099906712
-0.67146478
0.0052428699
-0.6719144
-9.9253568e-05
-0.67163255
-0.0060069775
-0.67048228
-0.01237854
-0.6683464
-0.018991634
-0.6651784
-0.025460352
-0.66106264
-0.031253211
-0.65622978
-0.03583589
-0.65099994
-0.038860557
-0.6456962
-0.040251023
-0.64058341
-0.040155547
-0.63584262
-0.038852173
-0.63157474
-0.036657032
-0.62781775
-0.033864456
-0.62456722
-0.030717192
-0.62179414
-0.027398463
-0.61945803
-0.024036219
-0.6175157
-0.020712594
-0.61592635
-0.017474358
-0.61465426
-0.014342322
-0.61366992
-0.011319109
-0.61295032
-0.008395237
-0.61247874
-0.0055527809
-0.0027656862
-0.61913342
0.015582071
-0.6201522
0.015764109
-0.62120415
0.016116889
-0.62230813
0.016658205
-0.62348446
0.017385775
-0.6247552
0.018298166
-0.62614442
0.019390781
-0.62767824
0.020654577
-0.62938453
0.022073305
-0.6312919
0.023620183
-0.6334277
0.025254061
-0.63581499
0.026915722
-0.63846822
0.028524441
-0.64138685
0.029974788
-0.64454707
0.031137369
-0.6478957
0.031872319
-0.65135285
0.032056986
-0.65482531
0.031615562
-0.65822401
0.030529387
-0.66147603
0.028822328
-0.66452662
0.026533192
-0.66733318
0.023691545
-0.66985628
0.020304696
-0.67204932
0.016352553
-0.67384686
0.01178821
-0.67515374
0.0065497471
-0.67583972
0.00058673399
-0.6757421
-0.0061045962
-0.67467693
-0.013443713
-0.6724656
-0.02120297
-0.66900822
-0.028917723
-0.66438415
-0.035877285
-0.65889057
-0.041329471
-0.65295508
-0.044796045
-0.64699687
-0.04620924
-0.64134098
-0.045811432
-0.63619038
-0.044002775
-0.63164062
-0.041206788
-0.62770974
-0.037795342
-0.62436842
-0.03405851
-0.62156367
-0.030203211
-0.6192347
-0.026365185
-0.61732238
-0.022624923
-0.61577404
-0.019022692
-0.61454554
-0.015570822
-0.61360156
-0.012263095
-0.61291513
-0.0090816633
-0.61246693
-0.0060009796
-0.0029876665
-0.6204071
0.016509539
-0.62134756
0.016704567
-0.62231977
0.017089098
-0.62334419
0.01768263
-0.62444207
0.018483655
-0.62563684
0.019492937
-0.62695474
0.020708681
-0.62842519
0.022125029
-0.63008077
0.023728885
-0.63195642
0.025495827
-0.63408739
0.027385036
-0.63650589
0.029334222
-0.63923608
0.031254629
-0.64228608
0.033024788
-0.6456357
0.034486988
-0.64922522
0.03546184
-0.65295706
0.035788827
-0.65671536
0.035373861
-0.66039282
0.034206846
-0.66390883
0.032338338
-0.66721125
0.029835615
-0.67026626
0.026746556
-0.67304524
0.023083678
-0.67551155
0.018818857
-0.67760459
0.013881248
-0.67922291
0.0081680709
-0.68021418
0.0015780001
-0.68037588
-0.0059428869
-0.67946349
-0.014356106
-0.67721207
-0.023454397
-0.67343381
-0.032695975
-0.66818553
-0.041125566
-0.6618578
-0.047657201
-0.65503903
-0.05161482
-0.64828274
-0.052965528
-0.64198969
-0.052104483
-0.6363815
-0.049610962
-0.63153702
-0.046051268
-0.62744163
-0.041890731
-0.62403069
-0.037469451
-0.62121991
-0.033013993
-0.61892367
-0.028661428
-0.61706446
-0.024484133
-0.61557672
-0.020510424
-0.61440759
-0.016739959
-0.61351602
-0.013154665
-0.6128714
-0.0097262772
-0.61245211
-0.0064202709
-0.0031949779
-0.62177478
0.01734036
-0.62262372
0.017553507
-0.62350577
0.017971155
-0.62444003
0.018616883
-0.62544788
0.019491509
-0.62655379
0.020598841
-0.627786
0.021940893
-0.6291773
0.023516333
-0.63076539
0.025316975
-0.63259248
0.02732291
-0.63470337
0.029495928
-0.63714179
0.031772638
-0.63994491
0.03405775
-0.64313387
0.036213754
-0.64669607
0.038049181
-0.65056505
0.03933083
-0.65461895
0.039842723
-0.65870921
0.03946412
-0.66270269
0.03820033
-0.66650942
0.036145066
-0.67008342
0.033409616
-0.67340507
0.030068207
-0.67646207
0.026140672
-0.67923362
0.021590412
-0.68167024
0.016317861
-0.68366821
0.01016605
-0.68505238
0.0029621617
-0.68557398
-0.0054212797
-0.68491431
-0.015015783
-0.68268963
-0.02567907
-0.67856899
-0.036816618
-0.67254907
-0.047145487
-0.66515201
-0.055054258
-0.65721551
-0.059551318
-0.64948255
-0.060698489
-0.64244689
-0.059140146
-0.63633821
-0.055719646
-0.63119908
-0.051190396
-0.62696361
-0.046126202
-0.62351802
-0.040915035
-0.62073807
-0.03579394
-0.61850862
-0.030890887
-0.6167317
-0.026261048
-0.61532832
-0.021913805
-0.61423708
-0.017831196
-0.61341178
-0.013979966
-0.61281874
-0.010319315
-0.61243456
-0.0068044511
-0.0033845924
-0.6232031
0.01808351
-0.62395741
0.018307825
-0.62474202
0.018755763
-0.62557741
0.019452268
-0.62648532
0.020399419
-0.62749101
0.021604539
-0.62862459
0.023074474
-0.62992217
0.024813911
-0.63142685
0.026821654
-0.63318902
0.029085081
-0.63526484
0.03157175
-0.63771231
0.034220103
-0.64058558
0.036931021
-0.64392474
0.039552915
-0.64773127
0.041855716
-0.65193288
0.043532437
-0.65637336
0.044283199
-0.66085525
0.043946008
-0.66520718
0.04255227
-0.6693273
0.040265179
-0.67318183
0.037264151
-0.67677399
0.033660365
-0.68011574
0.029482424
-0.68321107
0.024685737
-0.68603236
0.019139151
-0.68848223
0.012615921
-0.69036396
0.0048438964
-0.69137639
-0.004408853
-0.69111305
-0.015279128
-0.68903173
-0.027760385
-0.68457155
-0.041276802
-0.67759112
-0.054125913
-0.6687955
-0.063849878
-0.65942572
-0.068921095
-0.65049282
-0.069631394
-0.64260016
-0.067032808
-0.63596042
-0.062359381
-0.63054757
-0.056603252
-0.62621769
-0.05045608
-0.62279037
-0.044342357
-0.62009171
-0.038492595
-0.6179727
-0.0330099
-0.6163137
-0.027920044
-0.61502257
-0.023204936
-0.61403036
-0.01882341
-0.61328674
-0.014723581
-0.61275596
-0.010850098
-0.6124136
-0.0071468062
-0.0035532469
-0.62472695
0.018710135
-0.62537214
0.018953015
-0.62604882
0.019432452
-0.62677457
0.020178013
-0.62757015
0.021194998
-0.62846085
0.022495236
-0.62947796
0.024091592
-0.63066049
0.025996433
-0.63205679
0.028217956
-0.633726
0.030754291
-0.6357374
0.033583156
-0.63816643
0.036649131
-0.64108901
0.039853603
-0.64457239
0.043036291
-0.64864361
0.045926937
-0.6532293
0.048118126
-0.65812584
0.049179738
-0.66306268
0.048882852
-0.6678126
0.047302186
-0.67226028
0.044712861
-0.67639613
0.041399998
-0.68025985
0.037524083
-0.68389688
0.033119456
-0.68734455
0.028133409
-0.69060959
0.022404185
-0.69361168
0.015618012
-0.69613399
0.007366211
-0.69781653
-0.0027263159
-0.69815468
-0.014940981
-0.6964108
-0.029504262
-0.69166663
-0.046020973
-0.68348563
-0.062306908
-0.67281358
-0.074521933
-0.66157729
-0.080157385
-0.65116512
-0.080043559
-0.64229923
-0.075898706
-0.63512298
-0.069535622
-0.62948972
-0.062236514
-0.62514044
-0.05480536
-0.62180693
-0.04767587
-0.61925589
-0.041043629
-0.61730138
-0.034964415
-0.61580237
-0.029419053
-0.6146552
-0.024352109
-0.61378527
-0.019693335
-0.61313991
-0.015368944
-0.61268265
-0.011307361
-0.61238911
-0.0074403403
-0.0036975594
-0.62625575
0.019233967
-0.62678957
0.019486834
-0.6273505
0.019993382
-0.62795663
0.020784142
-0.62862781
0.021866171
-0.62938888
0.023256306
-0.63027187
0.024974586
-0.63131828
0.027042844
-0.63258168
0.029481355
-0.6341306
0.032303208
-0.63604965
0.035502212
-0.63843581
0.039035292
-0.64139261
0.042810401
-0.64502508
0.046668755
-0.64940448
0.050306336
-0.65446832
0.053181973
-0.65994632
0.054657738
-0.6654536
0.054390129
-0.67067614
0.052524723
-0.67548
0.049516728
-0.67989678
0.045816774
-0.68402063
0.04164793
-0.6879387
0.037037531
-0.69172959
0.031924296
-0.6954552
0.026129796
-0.6990778
0.019240612
-0.70237471
0.010663123
-0.70493052
-0.00017050699
-0.70613766
-0.013733835
-0.70504011
-0.030601818
-0.70017661
-0.050884471
-0.69050281
-0.071980711
-0.67723143
-0.087793308
-0.66352221
-0.09386661
-0.65128391
-0.092281854
-0.64134301
-0.085839606
-0.63367109
-0.077207548
-0.62791968
-0.06798792
-0.62366546
-0.059059576
-0.62052899
-0.050812347
-0.61820962
-0.043362998
-0.61648421
-0.036689826
-0.61519312
-0.030710137
-0.61422464
-0.025320592
-0.61350167
-0.020416308
-0.61297165
-0.015898957
-0.6125993
-0.011679713
-0.61236157
-0.0076780753
-0.0038141774
-0.62788232
0.019620831
-0.62829037
0.019894886
-0.62872674
0.02042975
-0.62920448
0.021261886
-0.62974076
0.022402444
-0.63035879
0.023874339
-0.63109014
0.025705935
-0.63197749
0.027930195
-0.63307822
0.030582085
-0.63446922
0.033694208
-0.63625107
0.037284066
-0.63854562
0.041329841
-0.64148919
0.045753968
-0.64523558
0.050415142
-0.64992843
0.054999184
-0.65554383
0.058797373
-0.66172014
0.060834051
-0.66789165
0.060561639
-0.67361237
0.05824545
-0.67872778
0.054632138
-0.68334887
0.050437863
-0.68766181
0.045960866
-0.69181166
0.041187377
-0.69592754
0.036040182
-0.70015811
0.030360363
-0.70454447
0.02362697
-0.70886989
0.01498855
-0.71262565
0.0035852459
-0.71509992
-0.011259562
-0.71514607
-0.030555666
-0.7105427
-0.055487841
-0.69906497
-0.083458449
-0.68205632
-0.10480196
-0.66501593
-0.110907
-0.65053154
-0.10676624
-0.63946198
-0.096909162
-0.63141566
-0.085253872
-0.62572015
-0.073683425
-0.62172684
-0.063052893
-0.61892295
-0.053616233
-0.61693777
-0.045348176
-0.6155157
-0.038111896
-0.61448494
-0.031740899
-0.61373154
-0.026073998
-0.61318045
-0.020967393
-0.61278258
-0.016296828
-0.61250607
-0.011956219
-0.61233073
-0.0078534195
-0.0038999566
-0.62933597
0.019882711
-0.62961491
0.020173821
-0.62991711
0.020731946
-0.63025352
0.021598298
-0.63063795
0.022786879
-0.6310908
0.024327185
-0.63164168
0.026256814
-0.63233296
0.02862148
-0.63322442
0.031473545
-0.63440038
0.034870168
-0.63597877
0.038862448
-0.63811246
0.043463537
-0.64097953
0.048621039
-0.64479588
0.054231487
-0.64982097
0.060024273
-0.65613232
0.065108727
-0.66324986
0.067951591
-0.67030962
0.067621403
-0.67665923
0.064595052
-0.68211421
0.060087118
-0.68692667
0.055250328
-0.69142572
0.050459914
-0.69581681
0.045578464
-0.70025359
0.040476964
-0.70499406
0.035100833
-0.71020147
0.02883438
-0.71569658
0.020483657
-0.72088198
0.0087706472
-0.72496916
-0.0071723825
-0.72679972
-0.028725106
-0.72323185
-0.059055706
-0.70979739
-0.096892907
-0.68723409
-0.12736526
-0.66565425
-0.13248685
-0.64844079
-0.1239797
-0.63630036
-0.10904959
-0.62813509
-0.093419142
-0.62277144
-0.079047077
-0.61926875
-0.066555582
-0.61696816
-0.055916826
-0.61543681
-0.04687952
-0.61439936
-0.039149351
-0.61368323
-0.032457023
-0.61318089
-0.026576339
-0.61282538
-0.021322902
-0.61257507
-0.016547138
-0.61240418
-0.012127108
-0.61229701
-0.007960595
-0.0039521657
-0.63049027
0.019981374
-0.63061982
0.02030337
-0.63077082
0.020882946
-0.63094762
0.021775102
-0.63115924
0.022998499
-0.63142223
0.02459017
-0.63176303
0.026597615
-0.63222202
0.029080473
-0.63285905
0.03211057
-0.63376248
0.035773601
-0.63506442
0.040164385
-0.63695059
0.045349708
-0.63964598
0.05131643
-0.64343017
0.05801568
-0.64872251
0.065316614
-0.65582174
0.072207958
-0.66410928
0.07623913
-0.67220489
0.075717014
-0.6791452
0.071535357
-0.68470216
0.065644081
-0.68939228
0.059940441
-0.6937779
0.054845538
-0.69813756
0.049938127
-0.70260017
0.044939576
-0.70761201
0.040112673
-0.71359371
0.034816073
-0.72050259
0.027392544
-0.72773212
0.016000175
-0.73427939
-0.00062511874
-0.73920326
-0.023801233
-0.73833186
-0.059927108
-0.72349559
-0.11172917
-0.69248319
-0.15837766
-0.66469656
-0.16027347
-0.64430095
-0.14437531
-0.6313913
-0.12195924
-0.62358302
-0.10122743
-0.61896662
-0.083663469
-0.6162585
-0.069263705
-0.61466562
-0.057509704
-0.61371995
-0.047825189
-0.61315047
-0.039718835
-0.61280129
-0.032806203
-0.61258279
-0.026794839
-0.61244339
-0.021462301
-0.61235344
-0.016637088
-0.61229599
-0.012184558
-0.61226149
-0.0079950989
-0.0039687026
-0.63007847
0.019880167
-0.63002793
0.020252831
-0.62999531
0.020850322
-0.62997624
0.021756032
-0.62997275
0.022995015
-0.62999478
0.024612201
-0.63006162
0.026664449
-0.6302062
0.029225056
-0.63048152
0.032385886
-0.63097111
0.036263197
-0.63181141
0.041004683
-0.63321966
0.046757959
-0.63548195
0.053578718
-0.63894665
0.061480374
-0.64423989
0.070609861
-0.65213527
0.080103336
-0.66194775
0.08605161
-0.6713499
0.085119166
-0.67893516
0.079120616
-0.68436564
0.07107456
-0.68865617
0.064230973
-0.69275104
0.0589404
-0.6970513
0.054238396
-0.70151398
0.049402257
-0.70683808
0.04543677
-0.71385883
0.041836824
-0.7225961
0.036129812
-0.73261914
0.026023211
-0.74190455
0.0086602958
-0.75052997
-0.015175811
-0.75421883
-0.056238246
-0.74047677
-0.12547124
-0.69642063
-0.2024338
-0.66055577
-0.19613834
-0.637035
-0.16789608
-0.62415364
-0.13484059
-0.61751701
-0.10786406
-0.61423903
-0.086941441
-0.61270459
-0.070798146
-0.61204776
-0.05816654
-0.61182143
-0.04805152
-0.61179737
-0.039742888
-0.61186
-0.032743576
-0.61195141
-0.026703429
-0.61204331
-0.021370399
-0.61212256
-0.01655784
-0.61218362
-0.012123503
-0.61222455
-0.0079541607
-0.0039483066
-0.62618378
0.01954877
-0.62589611
0.019965165
-0.62560429
0.020558502
-0.62530174
0.021453476
-0.62498315
0.022676424
-0.6246498
0.024278855
-0.62431056
0.026325211
-0.62398677
0.028901264
-0.62371999
0.032119102
-0.62358362
0.036126833
-0.62371019
0.04113125
-0.62434506
0.047392828
-0.62585805
0.055091709
-0.62866641
0.064288734
-0.63355932
0.075502775
-0.64216239
0.088706407
-0.65403765
0.097926865
-0.66487396
0.095955476
-0.6727572
0.087003859
-0.67707091
0.075388266
-0.67991048
0.067070543
-0.68282201
0.061851937
-0.68642891
0.057845292
-0.69004514
0.053018491
-0.69450599
0.049897616
-0.70161404
0.04894487
-0.71115689
0.045672666
-0.72409859
0.038964908
-0.73556633
0.020128034
-0.74986075
-0.00088138787
-0.76244948
-0.043649519
-0.75916577
-0.12875494
-0.69459066
-0.26700891
-0.65073437
-0.23999464
-0.62530399
-0.19332645
-0.61396272
-0.14618187
-0.60976316
-0.11206362
-0.60860983
-0.088094767
-0.60868416
-0.070723817
-0.60919204
-0.057658657
-0.60980281
-0.047440751
-0.61038442
-0.039161284
-0.6108895
-0.032238488
-0.61130626
-0.026286672
-0.61163706
-0.021039603
-0.61188908
-0.016305818
-0.61207022
-0.011942367
-0.61218723
-0.0078371433
-0.0038907407
-0.61276645
0.018729604
-0.61203618
0.019234898
-0.61128973
0.019812052
-0.61050024
0.02066398
-0.60964998
0.02182617
-0.60872691
0.023355785
-0.60772273
0.025321024
-0.60663679
0.027815325
-0.6054836
0.030965909
-0.60430257
0.034945806
-0.60318056
0.040009246
-0.60232601
0.046538277
-0.60215344
0.05491914
-0.60313625
0.065271542
-0.6060127
0.078379221
-0.61372654
0.096420248
-0.62752719
0.11172752
-0.6386899
0.10711818
-0.64545641
0.093770367
-0.64634408
0.076275942
-0.64573636
0.066462822
-0.64567328
0.061788854
-0.64728024
0.059452249
-0.6483118
0.05405005
-0.64944503
0.05103085
-0.65616989
0.05566973
-0.66607514
0.055577911
-0.68384062
0.05673039
-0.69888826
0.035175673
-0.72786023
0.028090583
-0.75027202
-0.02123773
-0.77323458
-0.10579238
-0.67715865
-0.36308483
-0.63076773
-0.28638556
-0.60622335
-0.21787083
-0.59992087
-0.15248435
-0.6002662
-0.11171829
-0.60224903
-0.086111936
-0.60437342
-0.068599425
-0.60623188
-0.0558002
-0.60775545
-0.045917176
-0.60897156
-0.037945177
-0.60992819
-0.031281857
-0.61067129
-0.025543569
-0.611239
-0.020471898
-0.61166107
-0.015883745
-0.61195982
-0.011643623
-0.61215113
-0.007645831
-0.0037969186
-0.5847796
0.017486153
-0.58351021
0.017965508
-0.58214158
0.018443416
-0.58066947
0.019191872
-0.57906767
0.020224367
-0.57730529
0.021593412
-0.57534572
0.023361453
-0.57314911
0.02561871
-0.57067786
0.028494662
-0.56790479
0.032172742
-0.56482862
0.036933071
-0.56155662
0.043266275
-0.55853279
0.051895317
-0.55652775
0.0632665
-0.55614874
0.078000214
-0.56153157
0.10180308
-0.58049244
0.13068839
-0.59265625
0.11928199
-0.59890969
0.10002381
-0.5940522
0.07141845
-0.58776381
0.060174433
-0.58244276
0.056467797
-0.58157554
0.058585033
-0.57952821
0.052002722
-0.57387622
0.045378854
-0.58519466
0.032529482
-0.59561964
0.037438938
-0.60467979
0.040313198
-0.60342486
0.020480291
-0.63525092
0.039878381
-0.71434572
0.019774527
-0.66918688
-0.054713836
-0.60685833
-0.22710715
-0.57379935
-0.31944454
-0.57150802
-0.22016216
-0.58113688
-0.1428555
-0.58945237
-0.1034028
-0.59561862
-0.079945682
-0.60008654
-0.064131512
-0.60336088
-0.052525858
-0.60579623
-0.04348182
-0.60762935
-0.036112064
-0.60901858
-0.029892623
-0.61007177
-0.024490381
-0.61086356
-0.019680109
-0.61144608
-0.015301223
-0.61185565
-0.011234049
-0.61211694
-0.0073845457
-0.0036689528
-0.52686993
0.015076166
-0.5243732
0.015468774
-0.52172087
0.015791088
-0.51887073
0.016341737
-0.51576852
0.017122157
-0.51234643
0.018171318
-0.50851877
0.019533793
-0.5041804
0.021280343
-0.49920711
0.023521367
-0.49346097
0.026426602
-0.48679889
0.030270989
-0.47911634
0.03558373
-0.47060931
0.043388289
-0.46224582
0.054903011
-0.45437878
0.070133166
-0.44762978
0.095054084
-0.47080988
0.15386848
-0.47005112
0.11852323
-0.46091543
0.090888121
-0.42709568
0.037598701
-0.39543668
0.028515439
-0.36804266
0.029073771
-0.3034899
0.020770649
-0.16300005
0.013454896
-0.041147283
0.0077710299
0
0
0
0
0
0
0
0
0
0
0
0
0
0
-0.21954732
0.015304036