/*--------------------------------*- C++ -*----------------------------------*\
| =========                 |                                                 |
| \\      /  F ield         | foam-extend: Open Source CFD                    |
|  \\    /   O peration     | Version:     4.1                                |
|   \\  /    A nd           | Web:         http://www.foam-extend.org         |
|    \\/     M anipulation  |                                                 |
\*---------------------------------------------------------------------------*/
FoamFile
{
    version     2.0;
    format      ascii;
    class       volScalarField;
    location    "1.2";
    object      rAU;
}
// * * * * * * * * * * * * * * * * * * * * * * * * * * * * * * * * * * * * * //

dimensions      [0 0 1 0 0 0 0];

internalField   nonuniform List<scalar> 
4393
(
0.00022766125
0.00022728903
0.00022692456
0.00022655224
0.00022616997
0.00022577633
0.00022536892
0.00022494654
0.0002245083
0.00022405397
0.00022358408
0.0002231001
0.00022260444
0.00022210059
0.00022159286
0.00022108735
0.00022058981
0.00022010724
0.0002196473
0.0002192176
0.00021882597
0.00021848016
0.0002181878
0.00021795615
0.00021779198
0.0002177013
0.00021768884
0.00021768884
0.00021775793
0.00021790973
0.00021814244
0.00021845107
0.0002188274
0.0002192604
0.00021973676
0.00022024192
0.00022076101
0.00022127981
0.00022178546
0.00022226692
0.00022271517
0.00022312326
0.00022348608
0.00022380017
0.00022406341
0.00022427479
0.00022443436
0.00022454264
0.00022458497
0.00022452954
0.00022421059
0.00022390657
0.00022359352
0.00022326867
0.00022293037
0.00022257637
0.00022220579
0.00022181816
0.00022141381
0.00022099394
0.00022056076
0.00022011758
0.00021966881
0.00021921969
0.00021877722
0.00021834797
0.00021793956
0.00021756012
0.00021721757
0.00021691985
0.00021667477
0.00021648984
0.00021637218
0.00021632821
0.00021636341
0.000216453
0.00021642564
0.0002164661
0.00021659055
0.00021680052
0.00021709449
0.00021746731
0.00021791021
0.00021841119
0.00021895594
0.00021952895
0.00022011466
0.00022069847
0.00022126741
0.00022181055
0.00022231916
0.00022278661
0.00022320813
0.00022358046
0.00022390143
0.00022417016
0.00022438811
0.0002245425
0.00022402614
0.00022371891
0.00022342022
0.00022311003
0.00022278558
0.00022244537
0.00022208735
0.00022171093
0.00022131603
0.0002209035
0.00022047516
0.00022003398
0.00021958415
0.00021913103
0.00021868089
0.00021824172
0.000217821
0.0002174271
0.00021706871
0.00021675411
0.00021649145
0.00021628862
0.00021615314
0.00021609205
0.00021611162
0.00021621697
0.00021631501
0.00021619261
0.00021615124
0.000216198
0.00021633783
0.00021657245
0.00021689932
0.00021731127
0.00021779673
0.00021834079
0.00021892644
0.00021953616
0.00022015315
0.00022076227
0.00022135066
0.00022190791
0.00022242607
0.00022289938
0.00022332383
0.00022369675
0.00022401705
0.0002242848
0.0002244803
0.00022367273
0.00022337081
0.000223072
0.00022275865
0.00022242828
0.00022207956
0.00022171062
0.00022132107
0.00022091119
0.00022048222
0.0002200366
0.00021957802
0.00021911154
0.00021864357
0.00021818151
0.0002177345
0.0002173111
0.00021692063
0.00021657249
0.00021627549
0.00021603811
0.00021586846
0.00021577424
0.00021576261
0.00021583994
0.00021601134
0.00021610985
0.00021590101
0.00021577492
0.00021574222
0.00021581167
0.00021598853
0.00021627295
0.00021665919
0.00021713569
0.00021768629
0.00021829192
0.00021893252
0.00021958871
0.00022024298
0.00022088042
0.00022148903
0.00022205966
0.00022258569
0.0002230626
0.00022348754
0.00022385929
0.00022417683
0.00022442201
0.00022331284
0.000223015
0.00022271647
0.00022240028
0.00022206413
0.00022170682
0.00022132659
0.00022092322
0.00022049722
0.00022005024
0.00021958522
0.00021910655
0.00021862018
0.00021813361
0.00021765547
0.00021719618
0.00021676557
0.000216374
0.0002160317
0.00021574804
0.00021553188
0.00021539157
0.00021533504
0.00021536977
0.00021550247
0.00021573858
0.00021584852
0.00021554876
0.00021533395
0.00021521877
0.0002152164
0.0002153362
0.00021558132
0.00021594729
0.00021642207
0.00021698755
0.00021762176
0.00021830147
0.0002190042
0.00021970976
0.00022040115
0.00022106479
0.00022169045
0.00022227089
0.00022280127
0.00022327873
0.00022370195
0.00022406973
0.00022436621
0.0002229372
0.00022264397
0.00022234676
0.0002220287
0.00022168757
0.00022132221
0.00022093093
0.0002205136
0.00022007089
0.00021960474
0.00021911854
0.00021861734
0.00021810798
0.00021759909
0.00021710068
0.00021662462
0.00021618218
0.00021578495
0.00021544408
0.00021516953
0.00021497051
0.00021485565
0.00021483317
0.00021491099
0.00021509646
0.0002153958
0.00021553254
0.00021513595
0.00021482674
0.00021462425
0.00021454694
0.00021460911
0.00021481741
0.00021516863
0.0002156496
0.0002162393
0.00021691189
0.00021764005
0.00021839759
0.00021916133
0.00021991202
0.00022063458
0.00022131795
0.00022195445
0.00022253925
0.0002230697
0.00022354468
0.00022396343
0.00022431187
0.00022254629
0.00022225834
0.00022196348
0.00022164453
0.00022129927
0.0002209265
0.00022052446
0.00022009305
0.000219633
0.00021914643
0.0002186371
0.00021811065
0.00021757483
0.00021703946
0.00021651607
0.00021601826
0.00021555898
0.00021515125
0.00021480722
0.00021453746
0.00021435149
0.00021425814
0.00021426594
0.00021438342
0.00021461886
0.00021497976
0.00021516392
0.00021466317
0.00021425201
0.00021395531
0.00021379798
0.00021380056
0.00021397403
0.00021431641
0.00021481266
0.00021543756
0.00021616005
0.0002169476
0.00021776958
0.00021859937
0.0002194154
0.00022020122
0.0002209451
0.00022163928
0.0002222792
0.00022286269
0.00022338919
0.00022385875
0.00022425873
0.0002221421
0.00022186076
0.00022156941
0.00022125062
0.00022090208
0.00022052249
0.00022010997
0.00021966429
0.00021918615
0.00021867773
0.00021814302
0.00021758821
0.00021702189
0.00021645521
0.00021590142
0.00021537615
0.00021489437
0.0002144708
0.00021411872
0.00021384926
0.0002136721
0.00021359614
0.00021363018
0.00021378346
0.00021406555
0.00021448581
0.00021474424
0.00021413029
0.00021360744
0.00021320707
0.00021296219
0.00021290144
0.00021304141
0.00021338149
0.00021390363
0.0002145767
0.00021536263
0.0002162223
0.00021711968
0.00021802434
0.00021891231
0.00021976595
0.00022057322
0.00022132664
0.00022202225
0.0002226587
0.00022323627
0.00022375608
0.00022420675
0.00022172627
0.0002214524
0.00022116565
0.00022084807
0.0002204972
0.00022011149
0.00021968886
0.00021922883
0.00021873191
0.00021820017
0.00021763773
0.00021705117
0.00021644993
0.00021584653
0.00021525622
0.00021469707
0.00021418656
0.00021374145
0.00021337626
0.00021310258
0.00021293001
0.00021286726
0.00021292328
0.00021310803
0.00021343274
0.00021390935
0.00021427641
0.00021353838
0.00021289153
0.00021237491
0.00021203182
0.00021190172
0.00021200889
0.00021235422
0.0002129151
0.00021365207
0.00021451768
0.00021546436
0.00021644969
0.00021743898
0.00021840592
0.00021933202
0.00022020534
0.00022101916
0.00022177058
0.00022245938
0.00022308707
0.000223656
0.00022415608
0.00022130082
0.00022103627
0.00022075553
0.00022044037
0.00022008818
0.00021969715
0.00021926486
0.00021879044
0.00021827404
0.00021771745
0.0002171247
0.00021650261
0.00021586138
0.000215215
0.00021458101
0.00021398051
0.00021343412
0.00021296114
0.00021257751
0.00021229503
0.00021212283
0.00021206903
0.0002121424
0.00021235364
0.00021271595
0.00021324463
0.0002137638
0.00021288882
0.00021210264
0.00021145329
0.0002109972
0.00021078871
0.0002108629
0.00021122257
0.00021183817
0.00021265844
0.00021362329
0.00021467452
0.00021576208
0.00021684669
0.00021789997
0.00021890306
0.00021984478
0.0002207197
0.00022152649
0.00022226653
0.00022294285
0.00022355923
0.00022410699
0.00022086824
0.00022061361
0.00022033997
0.0002200284
0.00021967601
0.00021928059
0.00021883926
0.00021835061
0.0002178142
0.00021723131
0.00021660564
0.00021594404
0.00021525731
0.00021456093
0.00021387513
0.00021322475
0.00021263451
0.00021212695
0.00021171956
0.00021142403
0.00021124837
0.00021119943
0.00021128535
0.00021151738
0.00021191099
0.00021248574
0.0002131942
0.0002121847
0.00021124035
0.00021043688
0.0002098475
0.00020954732
0.00020958728
0.00020997266
0.00021066334
0.00021159121
0.00021267917
0.00021385556
0.00021506147
0.00021625292
0.00021739997
0.00021848418
0.00021949594
0.00022043189
0.00022129287
0.0002220823
0.00022280507
0.00022346664
0.00022405985
0.0002204296
0.00022018742
0.00021992265
0.00021961621
0.00021926502
0.00021886646
0.00021841704
0.00021791465
0.00021735802
0.00021674762
0.00021608647
0.00021538115
0.00021464281
0.00021388835
0.00021314108
0.00021243062
0.0002117871
0.00021123735
0.00021080065
0.000210488
0.00021030527
0.00021025713
0.0002103504
0.0002105965
0.00021101336
0.00021162577
0.00021246312
0.00021143061
0.00021030548
0.00020932035
0.00020856986
0.0002081586
0.0002081615
0.00020858742
0.00020937979
0.00021044621
0.00021168656
0.00021301236
0.00021435464
0.00021566504
0.00021691298
0.00021808168
0.00021916417
0.00022016007
0.00022107306
0.00022190916
0.00022267543
0.00022337925
0.00022401514
0.00021999008
0.00021976042
0.00021950558
0.0002192056
0.00021885699
0.00021845658
0.00021800017
0.0002174847
0.00021690781
0.00021626878
0.00021556958
0.00021481607
0.00021401935
0.00021319757
0.00021237747
0.00021159482
0.00021088716
0.00021028715
0.00020981617
0.00020948356
0.00020929156
0.00020924124
0.00020933702
0.00020958991
0.00021002018
0.00021065889
0.00021154567
0.00021063457
0.00020930141
0.00020809937
0.00020714959
0.00020659882
0.00020655946
0.000207046
0.00020797561
0.00020922052
0.00021064937
0.00021215293
0.00021365142
0.000215093
0.00021644815
0.00021770338
0.00021885586
0.00021990926
0.00022087092
0.00022174991
0.00022255587
0.00022329824
0.00022397339
0.00021954832
0.00021933453
0.0002190918
0.00021880022
0.00021845617
0.00021805591
0.00021759439
0.00021706742
0.00021647122
0.00021580344
0.00021506444
0.0002142588
0.00021339694
0.00021249774
0.00021159161
0.0002107222
0.00020993738
0.000209278
0.00020876796
0.00020841344
0.00020821072
0.00020815535
0.00020824813
0.00020849875
0.00020892955
0.00020957874
0.00021049872
0.00020980819
0.00020823505
0.0002067715
0.00020556996
0.00020483748
0.00020474683
0.0002053223
0.0002064377
0.00020791331
0.00020957528
0.00021128948
0.00021296539
0.00021454979
0.00021601684
0.00021735871
0.0002185785
0.00021968523
0.00022069072
0.00022160764
0.00022244847
0.00022322489
0.0002239352
0.00021911496
0.00021891645
0.00021868683
0.00021840524
0.00021806756
0.00021766937
0.00021720461
0.00021666773
0.00021605316
0.00021535642
0.00021457556
0.00021371309
0.00021277796
0.00021178881
0.00021077963
0.00020980421
0.00020892525
0.00020819567
0.00020764259
0.0002072667
0.00020705485
0.00020699429
0.00020708061
0.00020732078
0.00020773805
0.00020837819
0.00020930906
0.00020896796
0.00020711853
0.00020533806
0.00020381271
0.00020283498
0.00020267726
0.00020338325
0.00020475214
0.00020652744
0.00020847756
0.00021043986
0.00021231487
0.00021405197
0.00021563289
0.00021705867
0.00021834055
0.00021949432
0.00022053711
0.00022148565
0.00022235547
0.00022316057
0.00022390124
0.00021868148
0.00021850229
0.00021828824
0.00021801888
0.00021769006
0.00021729675
0.00021683182
0.00021628814
0.00021565803
0.00021493428
0.00021411181
0.00021319008
0.00021217537
0.00021108451
0.00020995404
0.00020885047
0.00020785815
0.00020704804
0.00020645133
0.00020605924
0.00020584337
0.0002057788
0.00020585418
0.00020607238
0.00020645585
0.00020705811
0.00020796608
0.00020813945
0.00020597221
0.00020380726
0.00020185977
0.00020053949
0.00020028625
0.00020118642
0.00020290503
0.00020507207
0.00020737773
0.00020962953
0.00021172413
0.00021362019
0.00021531278
0.00021681583
0.00021815132
0.00021934329
0.00022041492
0.00022138732
0.00022227915
0.0002231067
0.00022387217
0.00021827055
0.00021810935
0.00021791189
0.0002176568
0.00021733949
0.00021695419
0.00021649256
0.00021594567
0.0002153033
0.00021455478
0.00021369079
0.00021270635
0.00021160354
0.00021039492
0.00020911689
0.00020785129
0.00020671477
0.00020580668
0.0002051639
0.00020476228
0.00020454971
0.0002044842
0.00020454668
0.00020473493
0.00020506707
0.00020560229
0.00020644911
0.00020732833
0.00020482543
0.00020219945
0.00019969799
0.00019788386
0.00019748094
0.00019867706
0.00020088459
0.00020356704
0.00020630946
0.00020889411
0.00021122461
0.00021327963
0.0002150755
0.00021664402
0.00021802068
0.00021923907
0.00022032898
0.00022131597
0.00022222171
0.00022306464
0.00022384866
0.00021786134
0.00021772255
0.00021754416
0.00021730567
0.00021700271
0.00021662888
0.00021617464
0.00021562916
0.00021497944
0.00021421081
0.00021330855
0.0002122617
0.00021106641
0.00020972777
0.00020827653
0.00020681101
0.00020549684
0.0002044792
0.0002038024
0.00020341681
0.00020323176
0.00020317992
0.00020323395
0.0002033855
0.00020364136
0.00020406156
0.00020478029
0.00020598498
0.00020373818
0.0002005623
0.00019733214
0.00019478688
0.000194125
0.00019578565
0.00019868576
0.00020205016
0.00020532425
0.00020828264
0.00021085624
0.00021306012
0.0002149422
0.00021655781
0.00021795848
0.00021918833
0.00022028379
0.00022127462
0.00022218517
0.00022303565
0.00022383135
0.00021751215
0.0002173937
0.00021723557
0.00021701651
0.00021673197
0.00021637493
0.00021593467
0.00021539842
0.00021475014
0.00021397047
0.0002130377
0.00021193227
0.00021064183
0.00020915963
0.00020750022
0.00020577417
0.00020422197
0.00020306635
0.00020236078
0.00020201487
0.00020187563
0.0002018397
0.00020187616
0.00020197653
0.00020212835
0.0002023859
0.0002029131
0.00020395529
0.0002027773
0.00019898784
0.00019482506
0.00019117891
0.00019002249
0.00019242837
0.00019631894
0.00020058905
0.0002044998
0.00020786147
0.00021066844
0.0002129957
0.00021493531
0.00021657161
0.00021797395
0.00021919697
0.00022028318
0.00022126581
0.00022217122
0.00022302079
0.00022382077
0.00021724152
0.00021714831
0.00021701461
0.00021681968
0.00021655933
0.00021622599
0.00021580778
0.00021528991
0.00021465319
0.00021387322
0.00021292005
0.00021176276
0.00021037807
0.00020874458
0.0002068453
0.00020478652
0.00020292344
0.0002016175
0.00020092855
0.00020070181
0.00020068049
0.00020070869
0.00020076226
0.00020084651
0.00020090693
0.00020096766
0.00020121598
0.00020196094
0.00020231761
0.00019780354
0.00019242295
0.000187088
0.00018491538
0.00018852469
0.00019383649
0.00019930408
0.00020395274
0.00020771868
0.00021072024
0.00021312322
0.00021507692
0.00021669839
0.00021807465
0.00021926947
0.00022032989
0.00022129129
0.00022218101
0.00022302084
0.00022381736
0.0002172967
0.00021723099
0.00021712747
0.00021696426
0.00021673748
0.00021643929
0.00021605717
0.00021557501
0.00021497113
0.00021421678
0.00021327338
0.00021209509
0.00021064243
0.00020887647
0.00020672597
0.00020424252
0.00020194722
0.00020046841
0.00019985163
0.00019984839
0.00020002414
0.00020014414
0.00020020659
0.00020026804
0.00020019467
0.00019994564
0.00019975537
0.00019999322
0.00020113194
0.00019737459
0.00019062644
0.00018287554
0.00017856539
0.00018410832
0.0001914154
0.000198406
0.00020385445
0.000207967
0.00021107809
0.0002134791
0.00021538603
0.00021694774
0.00021826532
0.00021940818
0.00022042514
0.00022135179
0.00022221505
0.00022303619
0.00022382137
0.00021804062
0.00021801004
0.00021795174
0.00021783886
0.00021766755
0.0002174299
0.00021711324
0.00021670063
0.00021616825
0.00021548294
0.00021459655
0.00021344287
0.00021195577
0.00021007807
0.00020767015
0.00020462234
0.00020167131
0.00020002595
0.00019963051
0.00020011539
0.00020070745
0.00020104918
0.00020118704
0.00020134774
0.0002012798
0.00020076637
0.00020017512
0.00019974492
0.00020071444
0.00019972902
0.00019125917
0.00017997971
0.00017089672
0.00017959422
0.00018941972
0.00019822031
0.00020444447
0.00020874282
0.00021180952
0.00021409345
0.00021587463
0.00021732354
0.00021854657
0.00021961258
0.00022056824
0.00022144677
0.00022227306
0.00022306675
0.00022383284
0.00022066812
0.00022071439
0.0002207441
0.00022072557
0.00022065672
0.00022053041
0.00022033511
0.0002200547
0.0002196653
0.00021913233
0.00021840276
0.00021739258
0.00021600049
0.00021415191
0.00021165545
0.00020802335
0.00020410358
0.00020252551
0.00020276236
0.0002043529
0.00020581737
0.00020667423
0.00020705225
0.00020764911
0.00020801485
0.00020714388
0.0002060427
0.00020421109
0.00020487786
0.00020344452
0.000196468
0.00018114857
0.0001621729
0.00017623609
0.00018863187
0.00019944176
0.00020610266
0.00021020713
0.00021297065
0.0002149806
0.00021654234
0.00021782132
0.00021891357
0.0002198787
0.00022075627
0.00022157429
0.00022235387
0.00022311198
0.00022385159
0.00022636332
0.00022650403
0.00022666619
0.00022679626
0.00022689161
0.00022694702
0.00022695484
0.00022690373
0.00022677488
0.00022653854
0.00022614464
0.0002254964
0.00022443214
0.00022279968
0.00022038712
0.00021603375
0.00020981465
0.00020841499
0.00020952727
0.00021312885
0.00021613727
0.00021800272
0.00021862199
0.00021994287
0.00022171531
9.2895269e-05
9.5421522e-05
9.7680179e-05
9.9874533e-05
0.00010288948
9.446375e-05
8.6188947e-05
0.00010659719
0.00017926069
0.00019336562
0.00020407078
0.00020940725
0.00021249488
0.00021457182
0.00021612328
0.00021737012
0.00021842585
0.00021935526
0.00022019883
0.00022098404
0.00022173099
0.00022245547
0.00022317078
0.00022387722
0.00023901688
0.00023945824
0.00023995498
0.00024044131
0.00024092538
0.00024141025
0.00024189932
0.00024239471
0.00024289343
0.00024338308
0.00024383073
0.00024414484
0.00024410394
0.00024338592
0.00024185854
0.00023814067
0.00022682423
0.00022905009
0.00023505479
0.00024840776
0.0002599937
0.00026888238
0.00012729468
0.00016659477
0.00032128467
0.00046098503
0.00049956686
0.00049956686
0.00049956686
0.00049956686
0.00049956686
0.00045030524
0.00033646893
6.8071887e-05
0.00021290646
0.00021340431
0.00021433202
0.00021545508
0.00021650309
0.00021745262
0.00021831545
0.00021911042
0.00021985451
0.00022056185
0.00022124432
0.00022191224
0.00022257503
0.00022324159
0.00022390906
0.00026378998
0.00026477122
0.00026590516
0.00026709147
0.00026834861
0.00026969875
0.00027117271
0.00027280954
0.00027465764
0.00027677878
0.00027925382
0.00028217564
0.00028562835
0.0002896442
0.00029423572
0.00030194271
0.0002727548
0.0003021814
0.0003529432
0.00037412631
0.0002789866
0.00032092308
0.00049956686
0.00049956686
0.00049956686
0.00049956686
0.00049956686
0.00049956686
0.00049956686
0.00049956686
0.00041268605
0.00041834912
0.00010206508
0.00026646981
0.0002310665
0.0002220413
0.00021922985
0.00021849668
0.00021852178
0.00021885393
0.00021931752
0.00021983993
0.00022038986
0.00022095417
0.00022152837
0.00022211247
0.00022270909
0.00022332248
0.00022394627
0.00030147488
0.00030358829
0.0003057164
0.00030793377
0.0003103116
0.0003129174
0.00031583078
0.00031915756
0.00032304865
0.00032773801
0.00033361236
0.00034124396
0.00035117981
0.00036406008
0.00038390542
0.00040306322
0.00025028795
0.00025870028
0.00026008543
0.000493963
0.00047787954
0.00048722689
0.00047870936
0.00047373358
0.00047747201
0.00045867492
0.00045173954
0.00045353655
0.00044096501
0.00043655973
0.00010696161
0.00010771148
0.00021990042
0.00025237966
0.00023688866
0.00022736054
0.00022307349
0.00022118289
0.0002204183
0.00022021786
0.00022031499
0.0002205779
0.00022093864
0.00022136126
0.00022182674
0.00022232554
0.0002228538
0.00022341121
0.00022398784
0.00028990115
0.00029047486
0.00029071209
0.00029091955
0.00029109973
0.00029128509
0.00029150439
0.00029179867
0.000292226
0.00029286947
0.00029385409
0.00029486249
0.00029573862
0.00029649733
0.00029398065
0.0001037218
0.00037727489
0.00047222319
0.00047188874
0.00049379771
0.00048612163
0.00048244331
0.00012426045
0.00012132256
0.00010080428
0.00010008919
0.00010066481
0.00010201046
0.0001029654
0.00010455976
0.00020128854
0.00020776335
0.00021817863
0.00023911702
0.0002395793
0.00023071686
0.00022591913
0.00022338336
0.00022207902
0.00022146725
0.00022125806
0.00022129217
0.00022147978
0.00022176913
0.00022213007
0.00022254523
0.00022300516
0.00022350541
0.00022403267
0.00022361637
0.00022341864
0.00022308701
0.00022276283
0.00022245629
0.00022218617
0.0002219694
0.00022182962
0.00022179872
0.00022192013
0.00022225534
0.00022211571
0.00022120788
0.00021950195
0.00021689923
0.0002136351
9.6110393e-05
9.9247975e-05
9.9908657e-05
9.9813519e-05
0.00010018712
0.00010021298
0.00021261064
0.00021088098
0.00020899554
0.00020560979
0.00020450056
0.00020394374
0.00020217412
0.00020219383
0.00020337503
0.00020908954
0.00021832163
0.0002322619
0.00023803678
0.00023244378
0.00022782289
0.00022505869
0.00022344889
0.00022255521
0.00022211169
0.00022195778
0.00022199575
0.00022216551
0.00022242983
0.00022276569
0.00022315927
0.00022360269
0.00022407963
0.00021916854
0.00021924706
0.00021937873
0.00021952093
0.00021968401
0.00021987917
0.00022011792
0.00022041504
0.00022078841
0.00022125916
0.00022183682
0.00022159575
0.00022085784
0.00021965405
0.00021796386
0.00021526344
0.00021274568
0.00021420233
0.00021600648
0.00021427627
0.00021244589
0.00021127891
0.00021012297
0.00020839937
0.00020736342
0.00020574527
0.00020483875
0.00020426467
0.0002035404
0.0002040111
0.00020599775
0.00021095961
0.00021862433
0.00022818315
0.00023390108
0.00023314901
0.00022899006
0.00022625823
0.00022452338
0.00022346264
0.00022285594
0.00022255786
0.00022247339
0.00022254051
0.00022271873
0.00022298168
0.00022331253
0.0002237008
0.00022412759
0.00021775544
0.00021784237
0.00021797763
0.00021812666
0.00021829155
0.00021847903
0.00021869676
0.00021895496
0.00021926521
0.0002196402
0.00022000283
0.00021951868
0.00021877832
0.0002177359
0.0002163717
0.00021459643
0.00021345371
0.00021426692
0.00021534161
0.0002135386
0.00021195245
0.00021073644
0.00020958231
0.00020836763
0.00020741219
0.00020635305
0.00020570287
0.00020534305
0.00020527022
0.00020614785
0.00020839399
0.00021268677
0.00021882819
0.00022568245
0.00023036353
0.00023232548
0.00022960084
0.00022705663
0.00022532495
0.00022418988
0.00022348324
0.00022308314
0.00022290407
0.00022288688
0.00022299102
0.00022318884
0.00022346181
0.00022379766
0.00022417552
0.00021706785
0.00021719585
0.00021734509
0.00021750645
0.00021768493
0.00021788608
0.0002181153
0.0002183793
0.00021868433
0.00021903505
0.00021924478
0.00021881052
0.00021817535
0.0002173131
0.00021620772
0.0002149829
0.00021435312
0.00021483502
0.000215053
0.00021344317
0.0002120553
0.00021090879
0.00020985471
0.00020887478
0.00020805537
0.00020732039
0.00020690247
0.00020678864
0.0002070861
0.00020818069
0.00021039489
0.00021405426
0.00021893357
0.00022407083
0.00022792074
0.0002302712
0.00022982354
0.00022753764
0.00022589051
0.00022474989
0.00022399528
0.00022353057
0.00022328317
0.00022319992
0.00022324253
0.00022338374
0.00022360449
0.00022389151
0.00022422249
0.00021678267
0.00021686426
0.0002169891
0.00021713324
0.00021729429
0.00021747518
0.00021767909
0.00021791033
0.00021817225
0.00021846596
0.0002185546
0.0002181742
0.000217657
0.00021699329
0.00021619448
0.00021542211
0.00021510904
0.00021548445
0.00021500072
0.00021361701
0.0002124026
0.00021136304
0.00021043407
0.0002096163
0.00020894354
0.00020842655
0.00020818678
0.00020826083
0.00020876578
0.00020994264
0.00021200937
0.00021510831
0.00021900888
0.0002229998
0.00022619241
0.00022835272
0.0002293112
0.00022777504
0.00022626053
0.00022516211
0.00022439978
0.00022390176
0.00022360944
0.00022347721
0.00022347058
0.00022356391
0.00022373854
0.00022398089
0.00022426771
0.00021664251
0.00021676277
0.00021689649
0.00021704072
0.00021719887
0.00021737347
0.00021756567
0.00021777687
0.0002180067
0.0002182518
0.00021828267
0.00021794273
0.00021750389
0.00021697154
0.0002163832
0.0002158882
0.00021574752
0.00021600762
0.00021504859
0.00021387538
0.00021282333
0.00021190494
0.00021110093
0.00021041953
0.00020988427
0.00020952822
0.00020942695
0.00020963324
0.00021024854
0.00021142886
0.00021331008
0.00021593644
0.00021909588
0.00022228522
0.00022495711
0.00022690188
0.00022813105
0.00022783438
0.00022647452
0.00022544865
0.00022470793
0.00022420151
0.00022388412
0.00022371818
0.0002236738
0.00022372777
0.00022386251
0.00022406466
0.00022431055
0.00021657661
0.00021665437
0.00021676834
0.00021689912
0.00021704395
0.00021720357
0.00021737778
0.00021756645
0.00021776743
0.0002179752
0.00021800163
0.00021772469
0.00021738042
0.0002169818
0.00021657464
0.00021627808
0.0002162536
0.00021615993
0.00021513785
0.00021415145
0.00021325105
0.00021245723
0.00021177325
0.00021121302
0.00021079981
0.00021056957
0.00021057701
0.00021087491
0.00021154341
0.00021268418
0.00021437519
0.00021660992
0.00021920679
0.00022181242
0.00022406898
0.00022580242
0.00022698742
0.00022751463
0.00022656675
0.00022563125
0.00022493238
0.00022443652
0.00022411023
0.00022392372
0.00022385193
0.00022387451
0.00022397544
0.00022414203
0.0002243505
0.00021652859
0.00021662678
0.00021674061
0.00021686381
0.00021699763
0.00021714269
0.0002172978
0.00021746152
0.00021763034
0.00021779753
0.00021782957
0.00021759924
0.00021732682
0.00021703075
0.00021675664
0.00021659459
0.00021662357
0.00021608927
0.00021524993
0.00021442648
0.00021366571
0.00021299304
0.00021242277
0.00021197268
0.00021166664
0.00021153818
0.00021163047
0.00021198994
0.0002126768
0.00021375621
0.00021526761
0.00021718032
0.00021934519
0.00022151167
0.00022343426
0.00022497281
0.00022608765
0.00022680899
0.00022656724
0.00022573017
0.00022508599
0.00022461441
0.00022429192
0.00022409574
0.00022400553
0.00022400399
0.00022407687
0.00022421247
0.00022438726
0.00021650307
0.00021657639
0.0002166779
0.0002167917
0.00021691543
0.00021704855
0.00021718897
0.00021733431
0.00021748016
0.00021761911
0.00021767909
0.00021749799
0.00021729266
0.00021708363
0.00021691207
0.00021684538
0.00021670971
0.00021607055
0.00021538174
0.00021469973
0.00021406578
0.00021350689
0.00021304242
0.0002126922
0.00021247983
0.00021243512
0.00021259318
0.00021299226
0.00021367599
0.00021468458
0.00021603313
0.00021768146
0.0002195096
0.0002213368
0.00022298814
0.00022435203
0.00022538538
0.00022609796
0.00022638726
0.00022576297
0.00022518091
0.00022474304
0.0002244339
0.00022423683
0.00022413582
0.00022411656
0.00022416673
0.00022427575
0.0002244206
0.00021648492
0.00021656337
0.00021665994
0.0002167646
0.00021687679
0.00021699597
0.00021711964
0.00021724502
0.0002173674
0.00021747951
0.00021755504
0.00021742647
0.00021727611
0.00021713583
0.00021704077
0.00021696669
0.00021661614
0.00021609404
0.00021553132
0.00021497232
0.00021445261
0.0002139986
0.00021363131
0.00021337112
0.00021324041
0.00021326512
0.00021347391
0.00021389695
0.00021456481
0.00021550069
0.000216705
0.00021813584
0.00021969747
0.00022125688
0.00022268568
0.00022389521
0.00022484406
0.00022553058
0.0002259792
0.00022574487
0.0002252282
0.00022483
0.00022454114
0.00022435
0.00022424447
0.000224213
0.00022424524
0.00022433185
0.00022445045
0.0002164799
0.00021654593
0.00021663437
0.00021673121
0.00021683438
0.00021694277
0.00021705352
0.00021716355
0.00021726811
0.00021736029
0.0002174305
0.00021737154
0.00021726748
0.00021718185
0.00021711709
0.00021693465
0.00021657677
0.00021615233
0.00021569675
0.00021524511
0.00021482776
0.00021446927
0.00021419045
0.00021401103
0.00021395153
0.00021403417
0.0002142821
0.00021471834
0.00021536346
0.0002162292
0.00021730759
0.0002185588
0.00021990644
0.00022125068
0.00022249504
0.00022356891
0.00022443476
0.00022508498
0.00022553338
0.00022567053
0.00022523761
0.0002248824
0.00022461852
0.00022443845
0.0002243334
0.00022429439
0.0002243129
0.00022438091
0.00022447683
0.00021648178
0.00021654598
0.00021662854
0.00021671734
0.00021681092
0.00021690816
0.00021700611
0.00021710172
0.00021719045
0.00021726606
0.00021732028
0.00021731858
0.00021726248
0.00021719669
0.00021709438
0.00021687132
0.0002165795
0.00021623836
0.00021587503
0.0002155176
0.00021519178
0.00021491977
0.00021472105
0.00021461394
0.00021461673
0.00021474813
0.00021502652
0.0002154689
0.00021608833
0.00021688893
0.00021785834
0.00021896041
0.00022013393
0.00022130259
0.0002223925
0.00022334722
0.00022413384
0.00022474202
0.00022517883
0.00022546249
0.00022521748
0.00022490668
0.00022467072
0.00022450539
0.00022440471
0.00022436196
0.00022437038
0.00022442324
0.00022449982
0.00021649209
0.00021654966
0.00021662616
0.0002167082
0.00021679386
0.00021688188
0.00021696929
0.00021705319
0.0002171294
0.00021719247
0.00021723547
0.00021725011
0.00021722427
0.00021715667
0.00021703107
0.00021684854
0.00021661507
0.00021634616
0.0002160632
0.00021578891
0.00021554502
0.00021535111
0.0002152248
0.00021518255
0.00021524019
0.00021541318
0.00021571577
0.00021616002
0.00021675343
0.00021749514
0.00021837079
0.00021934839
0.00022037855
0.00022140199
0.00022236126
0.00022321108
0.00022392317
0.00022448644
0.00022490379
0.00022518787
0.00022517517
0.00022490863
0.00022470213
0.000224554
0.00022446056
0.00022441709
0.00022441845
0.00022445921
0.00022451957
0.00021650815
0.00021656223
0.00021663355
0.00021670914
0.00021678726
0.00021686671
0.00021694465
0.00021701842
0.00021708433
0.00021713775
0.00021717304
0.0002171837
0.00021716277
0.00021710364
0.00021700153
0.00021685689
0.00021667551
0.0002164701
0.00021625789
0.00021605746
0.00021588712
0.00021576383
0.00021570309
0.00021571924
0.00021582565
0.00021603476
0.00021635724
0.00021680114
0.00021736985
0.0002180593
0.00021885459
0.00021972771
0.00022063852
0.00022154032
0.00022238794
0.00022314493
0.00022378739
0.00022430459
0.00022469707
0.00022497365
0.00022510273
0.00022489322
0.00022471669
0.00022458722
0.00022450306
0.00022446119
0.00022445796
0.00022448925
0.00022453624
0.00021652945
0.00021657941
0.00021664608
0.00021671613
0.00021678777
0.0002168599
0.00021692983
0.00021699524
0.00021705299
0.00021709927
0.00021712966
0.00021713925
0.0002171231
0.00021707695
0.00021699826
0.00021688892
0.00021675441
0.00021660542
0.00021645611
0.00021632177
0.00021621778
0.00021615861
0.00021615755
0.00021622674
0.00021637713
0.00021661837
0.00021695805
0.00021740093
0.00021794736
0.00021859124
0.00021931788
0.00022010288
0.00022091334
0.00022171209
0.00022246326
0.00022313752
0.00022371497
0.00022418592
0.00022454972
0.0002248127
0.00022498584