/*--------------------------------*- C++ -*----------------------------------*\
| =========                 |                                                 |
| \\      /  F ield         | foam-extend: Open Source CFD                    |
|  \\    /   O peration     | Version:     4.1                                |
|   \\  /    A nd           | Web:         http://www.foam-extend.org         |
|    \\/     M anipulation  |                                                 |
\*---------------------------------------------------------------------------*/
FoamFile
{
    version     2.0;
    format      ascii;
    class       volVectorField;
    location    "1.2";
    object      U;
}
// * * * * * * * * * * * * * * * * * * * * * * * * * * * * * * * * * * * * * //

dimensions      [0 1 -1 0 0 0 0];

internalField   nonuniform List<vector> 
4393
(
(146.0489 -0.156503 0)
(146.5975 -0.16293697 0)
(147.0118 -0.16595109 0)
(147.45302 -0.16960182 0)
(147.90407 -0.17400969 0)
(148.36986 -0.17926015 0)
(148.8526 -0.18527504 0)
(149.35444 -0.19190811 0)
(149.87699 -0.19895369 0)
(150.42114 -0.20614876 0)
(150.98694 -0.21317311 0)
(151.57338 -0.21965256 0)
(152.17825 -0.22516776 0)
(152.79805 -0.22927002 0)
(153.42788 -0.23150441 0)
(154.06149 -0.23143764 0)
(154.69139 -0.22868565 0)
(155.30905 -0.2229351 0)
(155.90508 -0.21395435 0)
(156.46956 -0.20159372 0)
(156.99221 -0.18577847 0)
(157.46262 -0.16650104 0)
(157.87046 -0.14381873 0)
(158.20564 -0.11786202 0)
(158.4586 -0.08885712 0)
(158.62065 -0.057159589 0)
(158.68448 -0.023276084 0)
(158.64488 0.012126559 0)
(158.49853 0.047973232 0)
(158.24628 0.082848769 0)
(157.89311 0.11530703 0)
(157.44835 0.14393708 0)
(156.92537 0.16751054 0)
(156.3408 0.18513467 0)
(155.71333 0.19635097 0)
(155.0623 0.20115493 0)
(154.40646 0.1999421 0)
(153.76286 0.19340542 0)
(153.14622 0.1824142 0)
(152.56855 0.16790047 0)
(152.03911 0.15076883 0)
(151.56467 0.13183514 0)
(151.14978 0.1117934 0)
(150.79719 0.091217231 0)
(150.50827 0.070610792 0)
(150.28348 0.050432476 0)
(150.12222 0.030837471 0)
(150.02092 0.011723077 0)
(149.97389 -0.0031700214 0)
(149.47194 -0.39491475 0)
(149.94134 -0.40586634 0)
(150.28758 -0.41396606 0)
(150.65757 -0.42450815 0)
(151.03721 -0.43760789 0)
(151.43148 -0.45330111 0)
(151.84274 -0.47131765 0)
(152.27326 -0.49121207 0)
(152.72471 -0.51237199 0)
(153.19807 -0.53401641 0)
(153.69348 -0.55519355 0)
(154.20999 -0.57478884 0)
(154.74548 -0.59154964 0)
(155.29645 -0.60413166 0)
(155.85801 -0.61116766 0)
(156.42389 -0.61135164 0)
(156.98653 -0.60352313 0)
(157.53727 -0.58673323 0)
(158.06664 -0.56027899 0)
(158.56461 -0.5237045 0)
(159.02077 -0.47678032 0)
(159.42465 -0.41948058 0)
(159.76578 -0.35197794 0)
(160.03397 -0.27467255 0)
(160.2195 -0.188266 0)
(160.31345 -0.093877225 0)
(160.3083 0.0068449875 0)
(160.19843 0.11165833 0)
(159.98172 0.21748518 0)
(159.65888 0.32051334 0)
(159.23466 0.41654777 0)
(158.71823 0.50139295 0)
(158.12299 0.57135837 0)
(157.46573 0.62373677 0)
(156.76535 0.65710934 0)
(156.04147 0.67140891 0)
(155.31302 0.66776016 0)
(154.59716 0.64817295 0)
(153.90862 0.61518107 0)
(153.25934 0.57150307 0)
(152.6585 0.51977212 0)
(152.11272 0.46235046 0)
(151.62645 0.40122601 0)
(151.20242 0.33800174 0)
(150.84201 0.27399616 0)
(150.54554 0.21026767 0)
(150.31218 0.1471053 0)
(150.14086 0.084344869 0)
(150.03531 0.028580562 0)
(149.73739 -0.62939365 0)
(150.19159 -0.63857058 0)
(150.52687 -0.6507203 0)
(150.88501 -0.6677111 0)
(151.25284 -0.68939174 0)
(151.63542 -0.71554002 0)
(152.03526 -0.74564633 0)
(152.45473 -0.77895193 0)
(152.89563 -0.81443466 0)
(153.35911 -0.85079303 0)
(153.84544 -0.8864372 0)
(154.35385 -0.91949892 0)
(154.88235 -0.94787081 0)
(155.42757 -0.96928373 0)
(155.98467 -0.98142424 0)
(156.54738 -0.98208091 0)
(157.10806 -0.96929261 0)
(157.65797 -0.94146412 0)
(158.18754 -0.89742417 0)
(158.68661 -0.83642219 0)
(159.14472 -0.75808538 0)
(159.55126 -0.66237115 0)
(159.89571 -0.54955195 0)
(160.16766 -0.42026161 0)
(160.35713 -0.27562248 0)
(160.45481 -0.1174567 0)
(160.45263 0.051463161 0)
(160.34438 0.22725292 0)
(160.1264 0.40485494 0)
(159.79877 0.57802906 0)
(159.36598 0.739676 0)
(158.83741 0.88259885 0)
(158.22711 1.0004399 0)
(157.55291 1.088546 0)
(156.83491 1.1445114 0)
(156.09388 1.16828 0)
(155.34967 1.1618477 0)
(154.6201 1.1287114 0)
(153.9202 1.073232 0)
(153.26196 1.0000463 0)
(152.6544 0.91360628 0)
(152.10385 0.81786973 0)
(151.61442 0.71613373 0)
(151.18849 0.61100875 0)
(150.82718 0.50451246 0)
(150.53034 0.3980729 0)
(150.29671 0.29220456 0)
(150.12702 0.18720532 0)
(150.02928 0.087413783 0)
(149.82993 -0.85840963 0)
(150.2762 -0.86818676 0)
(150.60689 -0.88443531 0)
(150.96021 -0.90797671 0)
(151.32346 -0.93842255 0)
(151.70181 -0.97532222 0)
(152.09796 -1.0179329 0)
(152.51447 -1.0651978 0)
(152.95336 -1.1157037 0)
(153.41601 -1.1676449 0)
(153.90293 -1.2188015 0)
(154.41357 -1.2665465 0)
(154.94611 -1.3078959 0)
(155.49728 -1.3396155 0)
(156.06222 -1.3583909 0)
(156.63452 -1.3610454 0)
(157.20631 -1.3447651 0)
(157.76854 -1.307274 0)
(158.31127 -1.2469184 0)
(158.82403 -1.1626522 0)
(159.29606 -1.0539581 0)
(159.71652 -0.92076073 0)
(160.07456 -0.76338806 0)
(160.35947 -0.58262782 0)
(160.56077 -0.37990585 0)
(160.66846 -0.15759513 0)
(160.67364 0.080594022 0)
(160.56908 0.32929721 0)
(160.35013 0.58129826 0)
(160.01601 0.82757868 0)
(159.57083 1.0577952 0)
(159.02428 1.2613673 0)
(158.39144 1.4289111 0)
(157.69177 1.5535892 0)
(156.94728 1.6319472 0)
(156.18053 1.6640467 0)
(155.41286 1.6529779 0)
(154.66304 1.603996 0)
(153.94658 1.5235519 0)
(153.2755 1.4184203 0)
(152.65854 1.2950354 0)
(152.10159 1.1590618 0)
(151.60818 1.0151826 0)
(151.1802 0.86707318 0)
(150.81825 0.7174926 0)
(150.52164 0.5683229 0)
(150.28881 0.42059245 0)
(150.12121 0.27534752 0)
(150.02715 0.13502559 0)
(149.93892 -1.0819502 0)
(150.37711 -1.0932723 0)
(150.70246 -1.1137396 0)
(151.05041 -1.1439484 0)
(151.40865 -1.183339 0)
(151.78247 -1.2312719 0)
(152.17479 -1.2867841 0)
(152.58842 -1.348531 0)
(153.02568 -1.4147158 0)
(153.48825 -1.4830292 0)
(153.97695 -1.5506108 0)
(154.49154 -1.6140468 0)
(155.03044 -1.6694265 0)
(155.59049 -1.7124783 0)
(156.16684 -1.7387979 0)
(156.75286 -1.7441535 0)
(157.34035 -1.7248089 0)
(157.91977 -1.6777758 0)
(158.48071 -1.6009274 0)
(159.01225 -1.4929609 0)
(159.50327 -1.3532606 0)
(159.94259 -1.1817477 0)
(160.31906 -0.97880089 0)
(160.62154 -0.74531344 0)
(160.83897 -0.48292653 0)
(160.96048 -0.19445203 0)
(160.97602 0.11557309 0)
(160.87701 0.44040856 0)
(160.65725 0.77075449 0)
(160.31472 1.0946355 0)
(159.85287 1.3980362 0)
(159.28173 1.6664149 0)
(158.61786 1.8868023 0)
(157.88307 2.0498081 0)
(157.10209 2.1508396 0)
(156.3001 2.1902456 0)
(155.50046 2.1725459 0)
(154.72327 2.1051453 0)
(153.98459 1.9969416 0)
(153.29645 1.8571163 0)
(152.66714 1.6942488 0)
(152.10183 1.515773 0)
(151.60332 1.3277344 0)
(151.17272 1.1347785 0)
(150.80995 0.94026457 0)
(150.51371 0.74638684 0)
(150.28219 0.55444178 0)
(150.11706 0.36561717 0)
(150.02586 0.18119234 0)
(150.07649 -1.3029509 0)
(150.50472 -1.3163099 0)
(150.82324 -1.3411829 0)
(151.16438 -1.3782814 0)
(151.51625 -1.4269412 0)
(151.88433 -1.4863906 0)
(152.27176 -1.5554854 0)
(152.68167 -1.632627 0)
(153.11673 -1.7156631 0)
(153.57904 -1.8017986 0)
(154.06983 -1.8875313 0)
(154.58925 -1.9686339 0)
(155.13607 -2.0402085 0)
(155.70733 -2.0968475 0)
(156.29815 -2.1329273 0)
(156.90166 -2.1430235 0)
(157.50916 -2.1223634 0)
(158.1105 -2.0671832 0)
(158.69463 -1.9748784 0)
(159.25004 -1.8439244 0)
(159.76515 -1.6736484 0)
(160.22843 -1.4639799 0)
(160.62838 -1.2153028 0)
(160.95342 -0.92849905 0)
(161.19179 -0.60524008 0)
(161.33155 -0.24854916 0)
(161.36114 0.13642444 0)
(161.27019 0.54165198 0)
(161.05039 0.9556617 0)
(160.69784 1.3632365 0)
(160.21494 1.7460856 0)
(159.61207 2.0848711 0)
(158.90778 2.3622193 0)
(158.12713 2.5656596 0)
(157.29869 2.6893647 0)
(156.45115 2.7342646 0)
(155.61059 2.706843 0)
(154.79877 2.6172585 0)
(154.0324 2.4774018 0)
(153.32335 2.299282 0)
(152.67921 2.0939004 0)
(152.10416 1.8706089 0)
(151.59994 1.6368631 0)
(151.16662 1.3982522 0)
(150.80317 1.1586723 0)
(150.50754 0.92055156 0)
(150.27748 0.68523074 0)
(150.11443 0.45353924 0)
(150.02513 0.22567277 0)
(150.24333 -1.5149127 0)
(150.66 -1.530604 0)
(150.97019 -1.5601506 0)
(151.30294 -1.6044733 0)
(151.64694 -1.662834 0)
(152.00783 -1.7343726 0)
(152.38907 -1.8178031 0)
(152.79415 -1.9113112 0)
(153.22619 -2.0124229 0)
(153.68776 -2.1178792 0)
(154.18067 -2.2235385 0)
(154.70559 -2.3243302 0)
(155.26171 -2.4142975 0)
(155.84638 -2.486775 0)
(156.45474 -2.5347543 0)
(157.07958 -2.5514387 0)
(157.71159 -2.5308755 0)
(158.33976 -2.4684618 0)
(158.9522 -2.3611431 0)
(159.53666 -2.2072661 0)
(160.08103 -2.0062065 0)
(160.57343 -1.7579682 0)
(161.00204 -1.4629277 0)
(161.35486 -1.1218404 0)
(161.61936 -0.73618863 0)
(161.78236 -0.30890688 0)
(161.83045 0.15456187 0)
(161.7509 0.64516075 0)
(161.53252 1.1493539 0)
(161.16872 1.6483678 0)
(160.66021 2.1188352 0)
(160.01761 2.535431 0)
(159.26211 2.875174 0)
(158.42322 3.1217393 0)
(157.5347 3.2679341 0)
(156.62999 3.315698 0)
(155.73869 3.2742241 0)
(154.88454 3.157232 0)
(154.08491 2.9802985 0)
(153.35126 2.7587568 0)
(152.69013 2.5063247 0)
(152.10436 2.2343981 0)
(151.59425 1.951849 0)
(151.15854 1.6651487 0)
(150.79505 1.3786523 0)
(150.50078 1.0949561 0)
(150.27284 0.81535758 0)
(150.11214 0.54028887 0)
(150.02456 0.26916633 0)
(150.43875 -1.7254231 0)
(150.84135 -1.7434637 0)
(151.14158 -1.7777055 0)
(151.46428 -1.82936 0)
(151.79881 -1.8976653 0)
(152.15099 -1.9817283 0)
(152.52461 -2.0801783 0)
(152.92361 -2.1910439 0)
(153.35163 -2.3115833 0)
(153.81186 -2.4381159 0)
(154.30676 -2.5658761 0)
(154.8377 -2.6889264 0)
(155.40448 -2.8001694 0)
(156.00486 -2.8915282 0)
(156.63403 -2.9543849 0)
(157.28442 -2.9803146 0)
(157.94584 -2.9619707 0)
(158.60621 -2.8938103 0)
(159.25248 -2.7723628 0)
(159.87151 -2.5959734 0)
(160.45059 -2.3642114 0)
(160.9775 -2.077244 0)
(161.44023 -1.7354195 0)
(161.82644 -1.3392088 0)
(162.12287 -0.88960233 0)
(162.31495 -0.38902808 0)
(162.38701 0.15723876 0)
(162.32337 0.73946615 0)
(162.10896 1.3421774 0)
(161.73338 1.94273 0)
(161.19461 2.5116547 0)
(160.50329 3.0159745 0)
(159.68399 3.4253635 0)
(158.77235 3.718554 0)
(157.80919 3.886876 0)
(156.83422 3.9339775 0)
(155.88146 3.872872 0)
(154.977 3.7219815 0)
(154.1387 3.5015021 0)
(153.3772 3.2307237 0)
(152.6975 2.926424 0)
(152.10061 2.6021563 0)
(151.58495 2.2681656 0)
(151.14761 1.9316698 0)
(150.78497 1.5973063 0)
(150.49295 1.2676449 0)
(150.26784 0.94373497 0)
(150.10983 0.62551192 0)
(150.02402 0.31173439 0)
(150.66219 -1.9210449 0)
(151.0492 -1.9416728 0)
(151.33789 -1.9810148 0)
(151.64881 -2.0405626 0)
(151.97212 -2.1195445 0)
(152.31385 -2.2170818 0)
(152.67819 -2.3317781 0)
(153.06956 -2.461571 0)
(153.49221 -2.603517 0)
(153.95009 -2.7535665 0)
(154.44648 -2.9063555 0)
(154.98362 -3.055057 0)
(155.56213 -3.19134 0)
(156.18036 -3.3055241 0)
(156.83368 -3.387085 0)
(157.51403 -3.4256157 0)
(158.21014 -3.4120779 0)
(158.90842 -3.3398601 0)
(159.59436 -3.2051561 0)
(160.25367 -3.0065368 0)
(160.87299 -2.7440214 0)
(161.43989 -2.4181165 0)
(161.94234 -2.0291684 0)
(162.36787 -1.5771968 0)
(162.70264 -1.0623268 0)
(162.93057 -0.48592847 0)
(163.03337 0.14753794 0)
(162.99172 0.82826972 0)
(162.78538 1.5392588 0)
(162.3985 2.2537516 0)
(161.82486 2.9348978 0)
(161.07447 3.5397206 0)
(160.17633 4.0279843 0)
(159.17447 4.3718914 0)
(158.11936 4.5612109 0)
(157.05902 4.6023798 0)
(156.03299 4.5138334 0)
(155.06991 4.3202486 0)
(154.18778 4.047635 0)
(153.39583 3.719994 0)
(152.69681 3.3575291 0)
(152.08924 2.9760378 0)
(151.56919 2.5870518 0)
(151.13168 2.1983643 0)
(150.77141 1.814698 0)
(150.483 1.4383938 0)
(150.2618 1.0700618 0)
(150.10717 0.70902268 0)
(150.02341 0.35333296 0)
(150.91341 -2.118567 0)
(151.2815 -2.1416591 0)
(151.55679 -2.1859504 0)
(151.85405 -2.2533014 0)
(152.16426 -2.3429941 0)
(152.49367 -2.4542315 0)
(152.84687 -2.5856732 0)
(153.22882 -2.735259 0)
(153.6445 -2.8999419 0)
(154.09873 -3.0753932 0)
(154.59582 -3.255711 0)
(155.1391 -3.4331868 0)
(155.7303 -3.5981775 0)
(156.36861 -3.7391901 0)
(157.04972 -3.8434235 0)
(157.76503 -3.8980126 0)
(158.50183 -3.89181 0)
(159.24453 -3.8169628 0)
(159.97659 -3.6694668 0)
(160.6823 -3.4484701 0)
(161.34765 -3.1548224 0)
(161.96015 -2.7896238 0)
(162.50808 -2.3532615 0)
(162.97923 -1.8450908 0)
(163.35941 -1.2638768 0)
(163.63114 -0.60918525 0)
(163.77308 0.1162436 0)
(163.76152 0.90344719 0)
(163.56949 1.734545 0)
(163.17346 2.5786429 0)
(162.56057 3.3900016 0)
(161.7391 4.1123542 0)
(160.74374 4.6917326 0)
(159.63022 5.0914932 0)
(158.46231 5.2998944 0)
(157.29902 5.3278901 0)
(156.18666 5.2016865 0)
(155.15645 4.9543375 0)
(154.22587 4.6191802 0)
(153.40177 4.2257861 0)
(152.6837 3.7981197 0)
(152.0669 3.354208 0)
(151.54448 2.9066631 0)
(151.10898 2.4635703 0)
(150.75314 2.0294458 0)
(150.47013 1.6061361 0)
(150.25423 1.1935962 0)
(150.1039 0.79039416 0)
(150.02268 0.39378361 0)
(151.1905 -2.2909254 0)
(151.53868 -2.3166123 0)
(151.79896 -2.3662398 0)
(152.08069 -2.4419997 0)
(152.37584 -2.5432438 0)
(152.69088 -2.6693222 0)
(153.03085 -2.819042 0)
(153.40129 -2.9904562 0)
(153.80799 -3.1805372 0)
(154.25679 -3.384794 0)
(154.75325 -3.5968735 0)
(155.30209 -3.8082101 0)
(155.90646 -4.0077694 0)
(156.56681 -4.1819905 0)
(157.27939 -4.3152928 0)
(158.03505 -4.3916524 0)
(158.81916 -4.3971618 0)
(159.61335 -4.3224344 0)
(160.3984 -4.1634589 0)
(161.15678 -3.9204878 0)
(161.87379 -3.5957802 0)
(162.53728 -3.1914324 0)
(163.13633 -2.7080055 0)
(163.65952 -2.1440063 0)
(164.09284 -1.4962811 0)
(164.41756 -0.76166054 0)
(164.60906 0.060037836 0)
(164.63843 0.96206346 0)
(164.46999 1.9268336 0)
(164.06949 2.9196715 0)
(163.4137 3.8843447 0)
(162.50705 4.7466739 0)
(161.39152 5.4331242 0)
(160.13942 5.894723 0)
(158.83316 6.1185695 0)
(157.54627 6.122899 0)
(156.33318 5.9451395 0)
(155.22741 5.629598 0)
(154.2447 5.2188177 0)
(153.3881 4.7488734 0)
(152.6527 4.2477388 0)
(152.02945 3.7355107 0)
(151.50782 3.2255295 0)
(151.07742 2.7257668 0)
(150.72878 2.2401494 0)
(150.45347 1.7697005 0)
(150.24464 1.3134615 0)
(150.09983 0.86906763 0)
(150.02177 0.43282098 0)
(151.49499 -2.4738442 0)
(151.8188 -2.5022052 0)
(152.06188 -2.5571295 0)
(152.32587 -2.6412521 0)
(152.60371 -2.7540725 0)
(152.902 -2.8951692 0)
(153.22623 -3.0636017 0)
(153.58258 -3.2576681 0)
(153.97773 -3.4745134 0)
(154.41872 -3.7096443 0)
(154.91258 -3.9563918 0)
(155.46579 -4.2054083 0)
(156.08337 -4.4442341 0)
(156.76757 -4.6569944 0)
(157.51568 -4.8247291 0)
(158.31801 -4.9273183 0)
(159.15738 -4.9471872 0)
(160.01158 -4.8730541 0)
(160.85764 -4.7013048 0)
(161.67564 -4.4342186 0)
(162.45029 -4.0764237 0)
(163.1702 -3.6316525 0)
(163.826 -3.1008598 0)
(164.4079 -2.4814864 0)
(164.90281 -1.7677145 0)
(165.29123 -0.95232385 0)
(165.54522 -0.030500234 0)
(165.62896 0.99512943 0)
(165.49755 2.109012 0)
(165.10114 3.2741385 0)
(164.40039 4.4222931 0)
(163.39186 5.4549442 0)
(162.12684 6.2698966 0)
(160.70163 6.8004568 0)
(159.22515 7.0336193 0)
(157.79023 6.9993782 0)
(156.46075 6.7514857 0)
(155.27147 6.3493657 0)
(154.23446 5.8470195 0)
(153.3469 5.2879316 0)
(152.59774 4.7041219 0)
(151.97246 4.117345 0)
(151.4561 3.5410953 0)
(151.0349 2.9826597 0)
(150.69697 2.4448818 0)
(150.4322 1.9275672 0)
(150.23259 1.4285522 0)
(150.09477 0.94433474 0)
(150.02066 0.47010137 0)
(151.82145 -2.6141359 0)
(152.12076 -2.6447313 0)
(152.34508 -2.7047731 0)
(152.58941 -2.7972801 0)
(152.84782 -2.9219227 0)
(153.12706 -3.078602 0)
(153.43304 -3.2667714 0)
(153.77259 -3.4851595 0)
(154.15337 -3.7313102 0)
(154.58378 -4.0009791 0)
(155.07259 -4.2874186 0)
(155.6284 -4.5806747 0)
(156.2587 -4.8669243 0)
(156.96827 -5.1277843 0)
(157.75619 -5.3401898 0)
(158.61235 -5.4785756 0)
(159.51622 -5.5202418 0)
(160.44011 -5.4513102 0)
(161.35574 -5.269015 0)
(162.24005 -4.9788744 0)
(163.07734 -4.5890955 0)
(163.85785 -4.1057433 0)
(164.57482 -3.5303352 0)
(165.22129 -2.8590046 0)
(165.78633 -2.0824854 0)
(166.25048 -1.1879849 0)
(166.5826 -0.1639673 0)
(166.73938 0.99331249 0)
(166.66426 2.2730458 0)
(166.28652 3.6388195 0)
(165.54188 5.0097653 0)
(164.4117 6.2542106 0)
(162.95882 7.2267846 0)
(161.31518 7.8343646 0)
(159.62819 8.0664526 0)
(158.01629 7.9721063 0)
(156.55374 7.6289863 0)
(155.27431 7.1167439 0)
(154.18321 6.5034096 0)
(153.26889 5.8405801 0)
(152.51197 5.1639753 0)
(151.89108 4.4962167 0)
(151.38601 3.8500821 0)
(150.97926 3.2313973 0)
(150.65637 2.6413018 0)
(150.40553 2.0779205 0)
(150.21767 1.5375578 0)
(150.08855 1.0153537 0)
(150.01929 0.50521345 0)
(152.17465 -2.7815889 0)
(152.44372 -2.8153279 0)
(152.64675 -2.8812263 0)
(152.86888 -2.9828161 0)
(153.10516 -3.1200348 0)
(153.36236 -3.2932091 0)
(153.64674 -3.5023208 0)
(153.96578 -3.7467033 0)
(154.32815 -4.0245185 0)
(154.74375 -4.3320254 0)
(155.22343 -4.6626455 0)
(155.77836 -5.0059995 0)
(156.41922 -5.346972 0)
(157.15439 -5.6644741 0)
(157.98596 -5.9304065 0)
(158.90397 -6.1117724 0)
(159.88344 -6.1784388 0)
(160.88888 -6.1128382 0)
(161.88436 -5.9139519 0)
(162.84261 -5.5927971 0)
(163.74793 -5.1634867 0)
(164.59333 -4.6359253 0)
(165.37601 -4.0129144 0)
(166.09332 -3.2894695 0)
(166.73807 -2.4522424 0)
(167.29224 -1.4808999 0)
(167.72185 -0.35406288 0)
(167.97575 0.94198156 0)
(167.98399 2.4052831 0)
(167.64862 4.0054587 0)
(166.86701 5.6507765 0)
(165.592 7.1649924 0)
(163.89973 8.3359315 0)
(161.97666 9.029235 0)
(160.02752 9.2430071 0)
(158.20443 9.0573624 0)
(156.59184 8.5851877 0)
(155.21816 7.9329408 0)
(154.07683 7.185356 0)
(153.14355 6.4023154 0)
(152.38796 5.6222383 0)
(151.78027 4.8672724 0)
(151.29428 4.1482215 0)
(150.90845 3.4684359 0)
(150.60573 2.8266004 0)
(150.37276 2.2186361 0)
(150.19952 1.6389694 0)
(150.08103 1.0811618 0)
(150.01763 0.53768752 0)
(152.54178 -2.8798037 0)
(152.7815 -2.9149406 0)
(152.96176 -2.985074 0)
(153.15971 -3.0941246 0)
(153.3716 -3.2422883 0)
(153.60416 -3.4304017 0)
(153.86397 -3.6591345 0)
(154.15911 -3.9286686 0)
(154.49926 -4.2381298 0)
(154.896 -4.5847368 0)
(155.36254 -4.9626013 0)
(155.91315 -5.361424 0)
(156.56248 -5.7652589 0)
(157.32392 -6.1505969 0)
(158.20449 -6.4836759 0)
(159.19542 -6.7216543 0)
(160.26586 -6.823648 0)
(161.3687 -6.7667877 0)
(162.45662 -6.5532377 0)
(163.49646 -6.2028066 0)
(164.47319 -5.7384171 0)
(165.38455 -5.1748594 0)
(166.23364 -4.5158109 0)
(167.02423 -3.7542721 0)
(167.75556 -2.8713362 0)
(168.4135 -1.8362751 0)
(168.96247 -0.61392314 0)
(169.34329 0.82335758 0)
(169.472 2.4868585 0)
(169.21629 4.3601536 0)
(168.41528 6.3472032 0)
(166.96902 8.2137636 0)
(164.96627 9.6418761 0)
(162.6795 10.429065 0)
(160.40122 10.595947 0)
(158.32696 10.273422 0)
(156.54861 9.6265366 0)
(155.08116 8.7966262 0)
(153.89884 7.8873997 0)
(152.95927 6.9661161 0)
(152.21794 6.0718567 0)
(151.63504 5.2241941 0)
(151.17781 4.4302246 0)
(150.82062 3.689549 0)
(150.54402 2.9975264 0)
(150.33333 2.3473115 0)
(150.17788 1.731108 0)
(150.07212 1.1406983 0)
(150.01568 0.56700792 0)
(152.93699 -3.0310641 0)
(153.14049 -3.0701501 0)
(153.29541 -3.146861 0)
(153.46664 -3.2656854 0)
(153.65135 -3.4272507 0)
(153.85598 -3.6331078 0)
(154.08726 -3.884869 0)
(154.3537 -4.1838775 0)
(154.66593 -4.5306121 0)
(155.03721 -4.9237324 0)
(155.4834 -5.3585671 0)
(156.02239 -5.8253335 0)
(156.67363 -6.3075823 0)
(157.4574 -6.7795937 0)
(158.38868 -7.2009824 0)
(159.46226 -7.5149758 0)
(160.63985 -7.6635599 0)
(161.85728 -7.6146636 0)
(163.05022 -7.3750431 0)
(164.17755 -6.9781608 0)
(165.22681 -6.4605439 0)
(166.20376 -5.8441844 0)
(167.12002 -5.1345167 0)
(167.98793 -4.3239741 0)
(168.81607 -3.3897506 0)
(169.59719 -2.2900791 0)
(170.29528 -0.97231033 0)
(170.84295 0.61051013 0)
(171.14351 2.490081 0)
(171.02502 4.6786392 0)
(170.24136 7.0944232 0)
(168.5961 9.4336092 0)
(166.18203 11.207698 0)
(163.41157 12.09352 0)
(160.7165 12.166131 0)
(158.34554 11.639647 0)
(156.38986 10.756603 0)
(154.83682 9.7022159 0)
(153.63054 8.599974 0)
(152.7037 7.5216339 0)
(151.99418 6.5033438 0)
(151.4508 5.5590042 0)
(151.034 4.6897284 0)
(150.71437 3.8898443 0)
(150.4705 3.1504319 0)
(150.2869 2.4613165 0)
(150.1526 1.8121684 0)
(150.06175 1.1928357 0)
(150.01342 0.5926295 0)
(153.33168 -3.0768175 0)
(153.50077 -3.1160426 0)
(153.62882 -3.1954246 0)
(153.77115 -3.3198144 0)
(153.926 -3.490147 0)
(154.09947 -3.708633 0)
(154.29829 -3.9778258 0)
(154.53128 -4.3003128 0)
(154.80995 -4.6781537 0)
(155.1493 -5.1119198 0)
(155.56817 -5.5989002 0)
(156.0887 -6.1307006 0)
(156.73613 -6.6913592 0)
(157.53982 -7.2544056 0)
(158.52746 -7.7735958 0)
(159.70195 -8.1744121 0)
(161.0159 -8.3732967 0)
(162.37902 -8.324493 0)
(163.70036 -8.0441561 0)
(164.92693 -7.5894214 0)
(166.05132 -7.0193927 0)
(167.09189 -6.366252 0)
(168.07141 -5.6359793 0)
(169.01247 -4.8188936 0)
(169.93708 -3.886413 0)
(170.85099 -2.7790478 0)
(171.72208 -1.414905 0)
(172.4772 0.28402283 0)
(173.01214 2.3776536 0)
(173.11575 4.9213707 0)
(172.42032 7.8764324 0)
(170.55375 10.866633 0)
(167.5816 13.127292 0)
(164.15062 14.105418 0)
(160.92371 14.004724 0)
(158.20685 13.174882 0)
(156.07174 11.973507 0)
(154.4537 10.637667 0)
(153.25146 9.3079472 0)
(152.36449 8.0544013 0)
(151.70971 6.9044397 0)
(151.22387 5.8619841 0)
(150.86106 4.9193398 0)
(150.58892 4.0638547 0)
(150.38491 3.2813686 0)
(150.23339 2.5578763 0)
(150.12367 1.8802829 0)
(150.04994 1.2364227 0)
(150.01084 0.61399924 0)
(153.75569 -3.2105222 0)
(153.88268 -3.2554256 0)
(153.98163 -3.3424549 0)
(154.09299 -3.4770438 0)
(154.2157 -3.6606988 0)
(154.35515 -3.8966839 0)
(154.51781 -4.189028 0)
(154.71249 -4.5422738 0)
(154.95118 -4.9609973 0)
(155.25029 -5.4489306 0)
(155.63165 -6.0069182 0)
(156.12193 -6.6295722 0)
(156.75262 -7.3027596 0)
(157.56418 -8.0010863 0)
(158.60366 -8.6739736 0)
(159.89074 -9.223017 0)
(161.368 -9.5216876 0)
(162.90495 -9.4972048 0)
(164.36898 -9.1778306 0)
(165.69041 -8.6551981 0)
(166.87323 -8.0208354 0)
(167.9584 -7.3169012 0)
(168.98529 -6.5442447 0)
(169.9892 -5.6890006 0)
(171.01177 -4.7215356 0)
(172.08125 -3.5675702 0)
(173.17389 -2.1154444 0)
(174.20834 -0.25761751 0)
(175.06621 2.0891929 0)
(175.52436 5.0320932 0)
(175.04923 8.6560122 0)
(172.96252 12.558855 0)
(169.21551 15.541401 0)
(164.85469 16.579558 0)
(160.94683 16.174545 0)
(157.83669 14.8937 0)
(155.53883 13.26554 0)
(153.89572 11.581255 0)
(152.74048 9.9887708 0)
(151.93042 8.5449902 0)
(151.35922 7.2598642 0)
(150.95215 6.1217173 0)
(150.65849 5.1107882 0)
(150.44443 4.2057097 0)
(150.28758 3.3862392 0)
(150.17313 2.6341904 0)
(150.0913 1.933607 0)
(150.03677 1.2703395 0)
(150.00798 0.63058297 0)
(154.13603 -3.1946796 0)
(154.22231 -3.2378804 0)
(154.29033 -3.3244941 0)
(154.36798 -3.4608637 0)
(154.45497 -3.6490462 0)
(154.55571 -3.8932513 0)
(154.67605 -4.1987674 0)
(154.82445 -4.5717865 0)
(155.01294 -5.0190321 0)
(155.25899 -5.5471156 0)
(155.5875 -6.1605198 0)
(156.03057 -6.8572042 0)
(156.62672 -7.6250484 0)
(157.4296 -8.4414967 0)
(158.5156 -9.2566599 0)
(159.93815 -9.9451358 0)
(161.63227 -10.313356 0)
(163.40427 -10.243879 0)
(165.05397 -9.7924575 0)
(166.48647 -9.1123527 0)
(167.72732 -8.3536497 0)
(168.85533 -7.5750387 0)
(169.93072 -6.7696716 0)
(170.99656 -5.922708 0)
(172.11532 -5.0183389 0)
(173.3477 -3.97022 0)
(174.68409 -2.6195444 0)
(176.03287 -0.79605095 0)
(177.28228 1.6461371 0)
(178.24498 4.9155034 0)
(178.21501 9.3274168 0)
(175.983 14.535079 0)
(171.15292 18.674787 0)
(165.44356 19.685659 0)
(160.66921 18.753508 0)
(157.13224 16.799794 0)
(154.72272 14.604311 0)
(153.12358 12.497234 0)
(152.07795 10.610404 0)
(151.39325 8.9683381 0)
(150.94036 7.5513286 0)
(150.63596 6.3253579 0)
(150.42752 5.2552417 0)
(150.28222 4.3094132 0)
(150.1796 3.461014 0)
(150.10684 2.6875896 0)
(150.05591 1.9704257 0)
(150.02242 1.2935626 0)
(150.00486 0.64189692 0)
(154.44917 -3.3022387 0)
(154.48551 -3.3566723 0)
(154.51865 -3.4545542 0)
(154.55834 -3.6033084 0)
(154.60487 -3.8054388 0)
(154.66136 -4.0662379 0)
(154.73285 -4.392566 0)
(154.82708 -4.7929244 0)
(154.95558 -5.2773987 0)
(155.13606 -5.8576212 0)
(155.39586 -6.5454566 0)
(155.77243 -7.3477135 0)
(156.3106 -8.2600615 0)
(157.07565 -9.2697693 0)
(158.18316 -10.34153 0)
(159.74876 -11.327796 0)
(161.7094 -11.924424 0)
(163.76891 -11.919021 0)
(165.61625 -11.407363 0)
(167.11991 -10.628217 0)
(168.3471 -9.8215937 0)
(169.4433 -9.0578419 0)
(170.49719 -8.2998304 0)
(171.55037 -7.5092786 0)
(172.69262 -6.6866684 0)
(174.0481 -5.7210607 0)
(175.64977 -4.3714351 0)
(177.40807 -2.3761619 0)
(179.22605 0.47500089 0)
(181.00097 4.3266751 0)
(181.86788 9.7701148 0)
(179.76964 16.835905 0)
(173.45905 22.958852 0)
(165.74647 23.683951 0)
(159.90419 21.828254 0)
(155.95016 18.869609 0)
(153.54168 15.933064 0)
(152.09817 13.33005 0)
(151.24923 11.129255 0)
(150.75032 9.2935252 0)
(150.45538 7.7579978 0)
(150.27891 6.4592289 0)
(150.17159 5.3438309 0)
(150.10503 4.3692427 0)
(150.06289 3.502013 0)
(150.03575 2.7157268 0)
(150.01815 1.9892767 0)
(150.00717 1.305239 0)
(150.00155 0.64754237 0)
(154.38531 -3.2264125 0)
(154.36103 -3.2763479 0)
(154.35208 -3.3656568 0)
(154.34548 -3.5056645 0)
(154.34209 -3.7001652 0)
(154.34314 -3.9560685 0)
(154.35202 -4.2822213 0)
(154.37465 -4.6898353 0)
(154.4205 -5.1926674 0)
(154.50529 -5.8074403 0)
(154.65648 -6.5534346 0)
(154.91617 -7.4463663 0)
(155.33501 -8.4870495 0)
(155.98634 -9.6663844 0)
(157.0363 -10.969698 0)
(158.7181 -12.239148 0)
(161.00761 -12.990445 0)
(163.44219 -12.819352 0)
(165.52458 -11.932103 0)
(167.06703 -10.721727 0)
(168.2104 -9.6087549 0)
(169.22024 -8.6682249 0)
(170.23033 -7.7968938 0)
(171.25942 -6.899526 0)
(172.42045 -6.0540451 0)
(173.93751 -5.196052 0)
(175.90351 -4.0102302 0)
(178.21013 -2.1967335 0)
(180.68137 0.51389242 0)
(183.37351 4.0150882 0)
(185.59558 9.8510452 0)
(184.21843 19.141194 0)
(175.9947 28.862684 0)
(165.32564 28.72118 0)
(158.34142 25.418853 0)
(154.09604 21.018279 0)
(151.90623 17.149384 0)
(150.78834 13.997868 0)
(150.25051 11.488967 0)
(150.00811 9.4845543 0)
(149.913 7.8576923 0)
(149.88886 6.5098702 0)
(149.8968 5.3684181 0)
(149.91719 4.3802707 0)
(149.94031 3.5062464 0)
(149.96157 2.7167924 0)
(149.97892 1.9890831 0)
(149.99135 1.3047623 0)
(149.99812 0.64724101 0)
(153.47561 -3.2561414 0)
(153.37705 -3.329864 0)
(153.30978 -3.4386777 0)
(153.23682 -3.598793 0)
(153.16066 -3.8142983 0)
(153.08018 -4.0930023 0)
(152.99648 -4.4446988 0)
(152.91279 -4.8820146 0)
(152.83543 -5.4208817 0)
(152.77658 -6.0815754 0)
(152.76201 -6.8904641 0)
(152.83887 -7.8764376 0)
(153.06516 -9.0553839 0)
(153.51259 -10.434101 0)
(154.39402 -12.057066 0)
(156.14055 -13.846327 0)
(158.8497 -15.094565 0)
(161.75874 -14.978291 0)
(164.04123 -13.95229 0)
(165.43468 -12.558994 0)
(166.22819 -11.491843 0)
(166.92114 -10.755768 0)
(167.71744 -10.149323 0)
(168.53755 -9.4729444 0)
(169.45585 -9.0181408 0)
(170.86712 -8.8483554 0)
(172.96929 -8.2920832 0)
(175.65779 -7.0428945 0)
(178.57217 -4.4765431 0)
(182.42927 -0.72728543 0)
(187.15839 7.2307663 0)
(188.24556 20.228468 0)
(177.92812 36.68103 0)
(163.24699 34.969197 0)
(155.5947 29.536038 0)
(151.35119 23.102782 0)
(149.73668 18.092288 0)
(149.1848 14.388259 0)
(149.09723 11.621624 0)
(149.18648 9.5029444 0)
(149.33031 7.8291585 0)
(149.47858 6.4656288 0)
(149.61204 5.3226117 0)
(149.72459 4.3389853 0)
(149.81557 3.4717863 0)
(149.88647 2.6897355 0)
(149.93934 1.9692823 0)
(149.97543 1.291844 0)
(149.99467 0.64086763 0)
(150.27861 -3.1552675 0)
(150.03197 -3.2213435 0)
(149.86063 -3.3060059 0)
(149.67254 -3.4358295 0)
(149.47246 -3.616031 0)
(149.25557 -3.8554384 0)
(149.01942 -4.1649129 0)
(148.7626 -4.5592254 0)
(148.48548 -5.0584071 0)
(148.19175 -5.6900266 0)
(147.89692 -6.4944202 0)
(147.64242 -7.5277671 0)
(147.48317 -8.8431705 0)
(147.45914 -10.471258 0)
(147.78384 -12.507505 0)
(149.20302 -15.035363 0)
(152.18258 -17.053632 0)
(155.43125 -16.589299 0)
(157.5861 -14.746135 0)
(158.33639 -12.183464 0)
(158.23481 -10.348647 0)
(158.16906 -9.1901425 0)
(158.40397 -8.4350487 0)
(158.60252 -7.5247591 0)
(158.71873 -7.0237661 0)
(159.66765 -7.0176182 0)
(161.78113 -5.9947871 0)
(164.94962 -4.8735826 0)
(168.68335 -1.956762 0)
(175.06207 4.1667694 0)
(184.04686 12.175431 0)
(189.65396 24.095432 0)
(176.92314 49.629304 0)
(157.54553 45.387775 0)
(150.91436 34.317508 0)
(147.40324 24.793056 0)
(146.95732 18.491099 0)
(147.31608 14.349941 0)
(147.83444 11.452162 0)
(148.32309 9.3129416 0)
(148.73401 7.6556661 0)
(149.06588 6.3187893 0)
(149.32881 5.2029577 0)
(149.53445 4.2439438 0)
(149.69303 3.3981257 0)
(149.81295 2.634462 0)
(149.90068 1.9299355 0)
(149.95989 1.2665721 0)
(149.99131 0.62847591 0)
(143.5099 -2.9198264 0)
(143.10987 -3.0121918 0)
(142.7997 -3.113718 0)
(142.45147 -3.2633166 0)
(142.07688 -3.4659032 0)
(141.66672 -3.731616 0)
(141.21292 -4.0727754 0)
(140.70609 -4.5065463 0)
(140.13586 -5.0566966 0)
(139.49026 -5.7559308 0)
(138.76264 -6.6519257 0)
(137.97551 -7.8156722 0)
(137.18232 -9.3207444 0)
(136.39285 -11.178067 0)
(135.76004 -13.4443 0)
(136.50386 -16.540641 0)
(140.14376 -19.65662 0)
(144.25781 -18.174225 0)
(146.43866 -15.44663 0)
(146.26447 -11.967188 0)
(144.63857 -10.768966 0)
(143.25527 -10.90076 0)
(142.63852 -11.370383 0)
(142.04304 -10.884925 0)
(141.16564 -10.369117 0)
(141.99173 -10.532129 9.2157706e-18)
(143.27225 -11.921803 -2.0396617e-19)
(145.57726 -13.589595 0)
(146.66477 -7.4755456 1.0016067e-17)
(144.0282 -14.51005 -7.4990623e-18)
(161.53017 -10.135072 4.4273293e-18)
(180.41243 5.4383807 -9.8916345e-18)
(167.93166 72.289496 6.3471827e-18)
(142.12824 58.029222 0)
(140.66652 37.126153 0)
(141.63428 24.706924 0)
(143.57067 17.830774 0)
(145.29833 13.692641 0)
(146.55469 10.912849 0)
(147.47727 8.8913063 0)
(148.16032 7.3301407 0)
(148.67269 6.0680697 0)
(149.06042 5.0101303 0)
(149.35481 4.0963444 0)
(149.57745 3.286457 0)
(149.74366 2.5519731 0)
(149.86425 1.8717969 0)
(149.94526 1.2294452 0)
(149.98814 0.61031303 0)
(129.54799 -2.869314 0)
(128.76409 -2.9446573 0)
(128.16038 -3.0084926 0)
(127.4861 -3.1100024 0)
(126.76119 -3.25111 0)
(125.96659 -3.4389889 0)
(125.08413 -3.6816052 0)