/*--------------------------------*- C++ -*----------------------------------*\
| =========                 |                                                 |
| \\      /  F ield         | foam-extend: Open Source CFD                    |
|  \\    /   O peration     | Version:     4.1                                |
|   \\  /    A nd           | Web:         http://www.foam-extend.org         |
|    \\/     M anipulation  |                                                 |
\*---------------------------------------------------------------------------*/
FoamFile
{
    version     2.0;
    format      ascii;
    class       volVectorField;
    location    "1.2";
    object      U;
}
// * * * * * * * * * * * * * * * * * * * * * * * * * * * * * * * * * * * * * //

dimensions      [0 1 -1 0 0 0 0];

internalField   nonuniform List<vector> 
4393
(
(146.02915 -0.15586879 0)
(146.57523 -0.16231237 0)
(146.98771 -0.16532789 0)
(147.42703 -0.16897517 0)
(147.87618 -0.17337822 0)
(148.34006 -0.17862581 0)
(148.82088 -0.18464349 0)
(149.32082 -0.191289 0)
(149.84152 -0.19836086 0)
(150.38393 -0.20560022 0)
(150.94815 -0.2126907 0)
(151.53324 -0.21926128 0)
(152.13708 -0.22489451 0)
(152.75623 -0.22914188 0)
(153.38589 -0.23154626 0)
(154.01988 -0.23166941 0)
(154.65076 -0.22911961 0)
(155.27 -0.22357351 0)
(155.86824 -0.21478816 0)
(156.43548 -0.20260244 0)
(156.96138 -0.18693138 0)
(157.43543 -0.16775954 0)
(157.84715 -0.14513946 0)
(158.18633 -0.11920032 0)
(158.44329 -0.09017021 0)
(158.60919 -0.0584093 0)
(158.67662 -0.024431777 0)
(158.64028 0.011084914 0)
(158.49681 0.047066716 0)
(158.247 0.082092601 0)
(157.89582 0.11470416 0)
(157.4526 0.14348334 0)
(156.93074 0.1671963 0)
(156.34689 0.18494631 0)
(155.71979 0.19627231 0)
(155.06883 0.20116845 0)
(154.41282 0.20003011 0)
(153.76886 0.19355087 0)
(153.15171 0.18260124 0)
(152.57342 0.16811481 0)
(152.04331 0.15099782 0)
(151.56817 0.13206774 0)
(151.15259 0.11202001 0)
(150.79933 0.091429488 0)
(150.50981 0.070801374 0)
(150.28448 0.050594915 0)
(150.12279 0.030964346 0)
(150.02116 0.011811871 0)
(149.97394 -0.0031238831 0)
(149.45271 -0.39299338 0)
(149.9196 -0.4039629 0)
(150.26402 -0.41206737 0)
(150.6321 -0.42260138 0)
(151.00982 -0.43568898 0)
(151.40215 -0.45137542 0)
(151.81148 -0.46940142 0)
(152.24007 -0.48933344 0)
(152.68964 -0.51057161 0)
(153.16123 -0.53234741 0)
(153.65501 -0.55372075 0)
(154.17014 -0.57358669 0)
(154.70454 -0.59069874 0)
(155.25482 -0.60371352 0)
(155.81617 -0.61125767 0)
(156.3824 -0.61201081 0)
(156.94598 -0.60478966 0)
(157.4983 -0.5886154 0)
(158.02988 -0.56275085 0)
(158.53063 -0.52670533 0)
(158.99009 -0.48021808 0)
(159.39764 -0.42323888 0)
(159.74272 -0.35592535 0)
(160.01496 -0.27867299 0)
(160.20453 -0.1921884 0)
(160.30237 -0.097603625 0)
(160.30084 0.003412 0)
(160.19426 0.10859017 0)
(159.9804 0.21483254 0)
(159.65997 0.31830651 0)
(159.23769 0.4147925 0)
(158.72276 0.50007586 0)
(158.12859 0.57045066 0)
(157.47201 0.6231983 0)
(156.77196 0.65689255 0)
(156.04813 0.67146252 0)
(155.31947 0.66803233 0)
(154.60323 0.64861373 0)
(153.91416 0.61574405 0)
(153.26425 0.57214631 0)
(152.66273 0.52045843 0)
(152.11624 0.46304726 0)
(151.62928 0.40190486 0)
(151.20458 0.33863779 0)
(150.84355 0.27456753 0)
(150.54654 0.21075493 0)
(150.31275 0.14748612 0)
(150.1411 0.084611527 0)
(150.03536 0.028719198 0)
(149.71762 -0.62622047 0)
(150.16942 -0.63542071 0)
(150.50297 -0.64757359 0)
(150.85927 -0.66454644 0)
(151.22524 -0.68620193 0)
(151.60593 -0.7123336 0)
(152.00387 -0.7424501 0)
(152.42144 -0.77581266 0)
(152.86048 -0.81142019 0)
(153.32218 -0.84799238 0)
(153.80688 -0.88395931 0)
(154.31387 -0.91746944 0)
(154.84126 -0.9464264 0)
(155.38575 -0.96856321 0)
(155.94262 -0.98155675 0)
(156.50564 -0.98317169 0)
(157.06726 -0.97140827 0)
(157.61877 -0.94462022 0)
(158.15057 -0.90157755 0)
(158.65249 -0.84147004 0)
(159.11395 -0.7638712 0)
(159.52426 -0.66869678 0)
(159.87272 -0.55619376 0)
(160.14882 -0.42698832 0)
(160.34241 -0.28221177 0)
(160.44404 -0.12370876 0)
(160.44553 0.045714876 0)
(160.34059 0.22213185 0)
(160.1255 0.40044296 0)
(159.80029 0.57436797 0)
(159.36945 0.73677315 0)
(158.84235 0.88043034 0)
(158.2331 0.99895637 0)
(157.55954 1.087679 0)
(156.84184 1.1441802 0)
(156.1008 1.1683979 0)
(155.35635 1.1623274 0)
(154.62635 1.129469 0)
(153.92588 1.0741899 0)
(153.26699 1.0011344 0)
(152.65872 0.91476295 0)
(152.10744 0.81904099 0)
(151.61729 0.71727265 0)
(151.19068 0.61207435 0)
(150.82874 0.50546871 0)
(150.53136 0.3988878 0)
(150.29728 0.2928412 0)
(150.12726 0.18765097 0)
(150.02933 0.087645457 0)
(149.80958 -0.85405449 0)
(150.25353 -0.8638605 0)
(150.58251 -0.88010184 0)
(150.93404 -0.90360531 0)
(151.29545 -0.93400238 0)
(151.67193 -0.97086467 0)
(152.06618 -1.0134749 0)
(152.48076 -1.0608043 0)
(152.91776 -1.1114695 0)
(153.37857 -1.1636948 0)
(153.86379 -1.2152894 0)
(154.37294 -1.2636511 0)
(154.90428 -1.3058127 0)
(155.45463 -1.3385451 0)
(156.01926 -1.3585217 0)
(156.59183 -1.3625328 0)
(157.16455 -1.3477096 0)
(157.7284 -1.3117022 0)
(158.27344 -1.2527716 0)
(158.78917 -1.1697842 0)
(159.26472 -1.0621447 0)
(159.68912 -0.92971672 0)
(160.05138 -0.77279176 0)
(160.34063 -0.59214714 0)
(160.54622 -0.38922283 0)
(160.65803 -0.16642571 0)
(160.66701 0.072485163 0)
(160.56586 0.32208556 0)
(160.34985 0.57510009 0)
(160.01818 0.82245297 0)
(159.57495 1.0537494 0)
(159.02986 1.2583644 0)
(158.39802 1.426878 0)
(157.69894 1.5524261 0)
(156.95467 1.6315374 0)
(156.18785 1.6642656 0)
(155.41987 1.6537005 0)
(154.66956 1.6051031 0)
(153.95247 1.5249337 0)
(153.28069 1.4199785 0)
(152.66298 1.2966835 0)
(152.10526 1.1607247 0)
(151.61111 1.0167953 0)
(151.18243 0.8685789 0)
(150.81984 0.71884163 0)
(150.52268 0.5694711 0)
(150.28939 0.42148875 0)
(150.12145 0.27597448 0)
(150.0272 0.13535137 0)
(149.91783 -1.0764264 0)
(150.35378 -1.0877802 0)
(150.67749 -1.108228 0)
(151.02368 -1.1383746 0)
(151.38011 -1.1776865 0)
(151.75207 -1.2255532 0)
(152.14247 -1.2810449 0)
(152.55415 -1.3428537 0)
(152.98946 -1.4092219 0)
(153.45011 -1.4778806 0)
(153.93702 -1.5460083 0)
(154.45 -1.6102254 0)
(154.98757 -1.6666466 0)
(155.5467 -1.7110093 0)
(156.12263 -1.7388959 0)
(156.70885 -1.7460331 0)
(157.29724 -1.7286118 0)
(157.87832 -1.683544 0)
(158.44169 -1.6085863 0)
(158.97637 -1.5023166 0)
(159.47113 -1.3640122 0)
(159.91465 -1.1935119 0)
(160.29562 -0.99114566 0)
(160.60272 -0.75779392 0)
(160.82469 -0.49511908 0)
(160.95054 -0.20598097 0)
(160.97005 0.10501612 0)
(160.87457 0.43104844 0)
(160.65784 0.76273924 0)
(160.3178 1.0880376 0)
(159.85789 1.39286 0)
(159.28817 1.6626065 0)
(158.62524 1.8842609 0)
(157.89095 2.0483982 0)
(157.11011 2.1504043 0)
(156.30795 2.1906186 0)
(155.50791 2.173562 0)
(154.73014 2.1066479 0)
(153.99077 1.9987876 0)
(153.30186 1.8591786 0)
(152.67173 1.6964164 0)
(152.10562 1.5179501 0)
(151.60633 1.3298383 0)
(151.175 1.1367376 0)
(150.81157 0.94201617 0)
(150.51477 0.74787532 0)
(150.28278 0.55560255 0)
(150.11731 0.36642839 0)
(150.02591 0.18161363 0)
(150.05451 -1.29632 0)
(150.48059 -1.3097036 0)
(150.79754 -1.3345341 0)
(151.13696 -1.3715338 0)
(151.48707 -1.4200709 0)
(151.85329 -1.4794097 0)
(152.23879 -1.5484468 0)
(152.64671 -1.6256296 0)
(153.07975 -1.7088549 0)
(153.54005 -1.7953788 0)
(154.02892 -1.8817498 0)
(154.54659 -1.9637865 0)
(155.09192 -2.0366267 0)
(155.66209 -2.0948793 0)
(156.25235 -2.132909 0)
(156.85596 -2.1452413 0)
(157.46433 -2.1270118 0)
(158.06739 -2.0743272 0)
(158.65407 -1.9844292 0)
(159.21284 -1.855636 0)
(159.73198 -1.6871336 0)
(160.19981 -1.478744 0)
(160.60462 -1.2307882 0)
(160.93463 -0.94413411 0)
(161.17787 -0.62048388 0)
(161.32224 -0.2629262 0)
(161.35603 0.12330069 0)
(161.26877 0.5300611 0)
(161.05209 0.94578281 0)
(160.70207 1.3551523 0)
(160.2211 1.7397931 0)
(159.6196 2.0802942 0)
(158.91617 2.3592235 0)
(158.13592 2.5640679 0)
(157.30749 2.6889742 0)
(156.45966 2.7348626 0)
(155.61859 2.70822 0)
(154.80608 2.6192178 0)
(154.03892 2.4797657 0)
(153.32902 2.3018939 0)
(152.684 2.0966248 0)
(152.10809 1.8733299 0)
(151.60305 1.6394814 0)
(151.16897 1.4006822 0)
(150.80484 1.1608393 0)
(150.50862 0.92238931 0)
(150.27808 0.68666203 0)
(150.11469 0.45453836 0)
(150.02519 0.22619128 0)
(150.22028 -1.5072323 0)
(150.63495 -1.5229373 0)
(150.94363 -1.5524121 0)
(151.27473 -1.5965897 0)
(151.617 -1.6547709 0)
(151.97606 -1.7261387 0)
(152.35535 -1.8094565 0)
(152.75839 -1.9029653 0)
(153.18833 -2.0042509 0)
(153.64778 -2.1101181 0)
(154.13861 -2.2164892 0)
(154.66159 -2.3183542 0)
(155.21602 -2.4098058 0)
(155.79939 -2.4842064 0)
(156.407 -2.5345404 0)
(157.03181 -2.5539547 0)
(157.66463 -2.5363837 0)
(158.29457 -2.4770597 0)
(158.90973 -2.3727296 0)
(159.49782 -2.2215353 0)
(160.0466 -2.0226705 0)
(160.54397 -1.7760017 0)
(160.9779 -1.4818266 0)
(161.33614 -1.1408865 0)
(161.60592 -0.75470812 0)
(161.77388 -0.32631438 0)
(161.82643 0.13873616 0)
(161.75077 0.63124929 0)
(161.53562 1.137565 0)
(161.17439 1.63879 0)
(160.6678 2.1114523 0)
(160.0265 2.5301385 0)
(159.27173 2.8717965 0)
(158.43311 3.1200508 0)
(157.54446 3.2676787 0)
(156.63931 3.3166104 0)
(155.74734 3.2760458 0)
(154.89237 3.1597234 0)
(154.09184 2.9832453 0)
(153.35723 2.7619726 0)
(152.69514 2.5096502 0)
(152.10845 2.237698 0)
(151.59747 1.9550085 0)
(151.16097 1.6680697 0)
(150.79676 1.3812493 0)
(150.50189 1.0971533 0)
(150.27346 0.81706629 0)
(150.1124 0.54148004 0)
(150.02462 0.26978398 0)
(150.41447 -1.7167599 0)
(150.81522 -1.7347916 0)
(151.11404 -1.7689181 0)
(151.43518 -1.8203647 0)
(151.76803 -1.8884148 0)
(152.1184 -1.9722257 0)
(152.49007 -2.0704846 0)
(152.88698 -2.181285 0)
(153.3128 -2.301957 0)
(153.77076 -2.4288966 0)
(154.2634 -2.5574182 0)
(154.79217 -2.6816621 0)
(155.357 -2.7945989 0)
(155.95581 -2.888196 0)
(156.58398 -2.9538382 0)
(157.23414 -2.9830405 0)
(157.8963 -2.968321 0)
(158.55847 -2.903929 0)
(159.20766 -2.786139 0)
(159.83067 -2.6130328 0)
(160.41461 -2.3839467 0)
(160.94704 -2.0988745 0)
(161.41566 -1.7580679 0)
(161.80784 -1.3619846 0)
(162.11005 -0.91167855 0)
(162.3075 -0.40969685 0)
(162.38434 0.13853637 0)
(162.32482 0.72311942 0)
(162.11378 1.3284202 0)
(161.7408 1.9316498 0)
(161.20392 2.5032148 0)
(160.51381 3.0100334 0)
(159.69511 3.4216963 0)
(158.78356 3.7168759 0)
(157.82007 3.8868689 0)
(156.84447 3.9353154 0)
(155.89087 3.8752417 0)
(154.98543 3.7250968 0)
(154.14608 3.5051104 0)
(153.38351 3.2346086 0)
(152.70277 2.9304027 0)
(152.10488 2.6060759 0)
(151.58829 2.2718976 0)
(151.15011 1.9351048 0)
(150.78674 1.6003498 0)
(150.49409 1.2702131 0)
(150.26847 0.94572866 0)
(150.1101 0.62689965 0)
(150.02408 0.31245327 0)
(150.63652 -1.9115041 0)
(151.02187 -1.9320955 0)
(151.30926 -1.9712701 0)
(151.61872 -2.0305331 0)
(151.94042 -2.1091657 0)
(152.28038 -2.2063465 0)
(152.64276 -2.320746 0)
(153.03198 -2.4503771 0)
(153.45232 -2.5923803 0)
(153.90777 -2.7427978 0)
(154.40167 -2.8963632 0)
(154.93636 -3.0463489 0)
(155.5126 -3.1845156 0)
(156.12892 -3.3012518 0)
(156.78092 -3.3860533 0)
(157.46079 -3.4284547 0)
(158.15749 -3.4192578 0)
(158.85763 -3.3515915 0)
(159.54672 -3.2213228 0)
(160.21042 -3.026684 0)
(160.83518 -2.7673977 0)
(161.40826 -2.4437531 0)
(161.9173 -2.0559792 0)
(162.34947 -1.6040864 0)
(162.69062 -1.0882899 0)
(162.92443 -0.51012098 0)
(163.03238 0.12576667 0)
(162.9951 0.80936575 0)
(162.79226 1.5234775 0)
(162.40804 2.2411706 0)
(161.83622 2.9254508 0)
(161.08692 3.53322 0)
(160.1892 4.0241446 0)
(159.18721 4.3703574 0)
(158.13155 4.561591 0)
(157.07035 4.6042778 0)
(156.04326 4.5168745 0)
(155.07901 4.3240957 0)
(154.19567 4.051996 0)
(153.40252 3.7246223 0)
(152.70235 3.3622202 0)
(152.0937 2.9806227 0)
(151.57266 2.5913903 0)
(151.13426 2.2023382 0)
(150.77323 1.8182056 0)
(150.48417 1.4413449 0)
(150.26244 1.0723483 0)
(150.10744 0.71061159 0)
(150.02347 0.35415518 0)
(150.88619 -2.1082338 0)
(151.25285 -2.1312431 0)
(151.52699 -2.1752927 0)
(151.82291 -2.2422573 0)
(152.1316 -2.3314789 0)
(152.45927 -2.4422252 0)
(152.8105 -2.5732314 0)
(153.19025 -2.7225228 0)
(153.60351 -2.8871493 0)
(154.05512 -3.0628898 0)
(154.54945 -3.2439606 0)
(155.08996 -3.4227774 0)
(155.67849 -3.58982 0)
(156.31446 -3.7336982 0)
(156.99382 -3.8416598 0)
(157.70831 -3.9007906 0)
(158.44551 -3.8997586 0)
(159.19008 -3.8303866 0)
(159.92556 -3.6882498 0)
(160.63618 -3.4720597 0)
(161.30764 -3.1822894 0)
(161.92714 -2.8197685 0)
(162.48252 -2.3847435 0)
(162.96114 -1.8765677 0)
(163.34842 -1.2941333 0)
(163.6266 -0.63722534 0)
(163.77413 0.091164452 0)
(163.76724 0.88183954 0)
(163.57885 1.7166803 0)
(163.18549 2.5645703 0)
(162.57435 3.3796142 0)
(161.7538 4.1054069 0)
(160.75864 4.6878666 0)
(159.64472 5.0902685 0)
(158.47599 5.3008311 0)
(157.31156 5.3305101 0)
(156.19788 5.2055453 0)
(155.16628 4.9590427 0)
(154.23432 4.6243986 0)
(153.40886 4.2312421 0)
(152.68953 3.8035888 0)
(152.07156 3.359508 0)
(151.54808 2.911645 0)
(151.11164 2.4681096 0)
(150.75501 2.0334358 0)
(150.47133 1.6094823 0)
(150.25489 1.1961833 0)
(150.10418 0.79218873 0)
(150.02274 0.3947112 0)
(151.16171 -2.2799477 0)
(151.50872 -2.3055054 0)
(151.76801 -2.3548118 0)
(152.04855 -2.4300723 0)
(152.34229 -2.5307054 0)
(152.65566 -2.6561337 0)
(152.99366 -2.805248 0)
(153.36184 -2.9761973 0)
(153.76599 -3.1660633 0)
(154.21197 -3.3704798 0)
(154.70539 -3.5832338 0)
(155.25106 -3.7959138 0)
(155.8523 -3.9976474 0)
(156.50976 -4.1750239 0)
(157.22006 -4.3125574 0)
(157.97442 -4.3941985 0)
(158.75865 -4.4058329 0)
(159.5547 -4.3376692 0)
(160.34349 -4.1851519 0)
(161.10738 -3.9479674 0)
(161.83137 -3.6278962 0)
(162.50285 -3.226701 0)
(163.11039 -2.7447744 0)
(163.64204 -2.1806332 0)
(164.08332 -1.5313014 0)
(164.41515 -0.79390322 0)
(164.61274 0.031416352 0)
(164.64695 0.93762593 0)
(164.48229 1.9068381 0)
(164.08446 2.9041347 0)
(163.43031 3.8731081 0)
(162.52437 4.7394235 0)
(161.40876 5.4294139 0)
(160.15594 5.8940101 0)
(158.84849 6.1202676 0)
(157.56014 6.1264334 0)
(156.34545 5.9499865 0)
(155.23803 5.6353056 0)
(154.25372 5.2250111 0)
(153.3956 4.7552497 0)
(152.65881 4.2540568 0)
(152.0343 3.7415786 0)
(151.51155 3.2311928 0)
(151.08017 2.730898 0)
(150.73069 2.2446399 0)
(150.45469 1.7734536 0)
(150.24531 1.3163566 0)
(150.10012 0.87107195 0)
(150.02184 0.43385572 0)
(151.46443 -2.4623735 0)
(151.78739 -2.4905251 0)
(152.02968 -2.5450089 0)
(152.29266 -2.6284744 0)
(152.56921 -2.740496 0)
(152.86591 -2.8807319 0)
(153.1882 -3.0483339 0)
(153.54224 -3.2417058 0)
(153.9347 -3.4581147 0)
(154.37264 -3.6932092 0)
(154.86313 -3.9404848 0)
(155.41272 -4.1907815 0)
(156.0266 -4.4318502 0)
(156.70724 -4.6480315 0)
(157.45235 -4.8205293 0)
(158.25274 -4.9292431 0)
(159.09181 -4.9563747 0)
(159.94781 -4.8901357 0)
(160.79797 -4.7261982 0)
(161.62222 -4.4660975 0)
(162.40489 -4.1138529 0)
(163.13401 -3.6727889 0)
(163.79958 -3.1436613 0)
(164.39114 -2.5239375 0)
(164.89503 -1.8080477 0)
(165.29134 -0.989165 0)
(165.55196 -0.062900444 0)
(165.6408 0.96774464 0)
(165.51331 2.0868485 0)
(165.11953 3.2571839 0)
(164.42028 4.4103263 0)
(163.4122 5.4475707 0)
(162.14675 6.2665671 0)
(160.72041 6.8005035 0)
(159.24233 7.0363259 0)
(157.80555 7.0040548 0)
(156.47412 6.7575185 0)
(155.2829 6.3562393 0)
(154.24406 5.8543181 0)
(153.35481 5.2953284 0)
(152.60412 4.7113637 0)
(151.97749 4.1242349 0)
(151.45994 3.5474782 0)
(151.03771 2.988409 0)
(150.69892 2.4498897 0)
(150.43344 1.9317377 0)
(150.23327 1.4317616 0)
(150.09506 0.94655217 0)
(150.02072 0.47124468 0)
(151.78893 -2.6022862 0)
(152.08777 -2.6326047 0)
(152.31152 -2.6920983 0)
(152.55504 -2.7837978 0)
(152.81231 -2.9074548 0)
(153.09005 -3.0630567 0)
(153.39412 -3.2501561 0)
(153.73131 -3.4675953 0)
(154.10927 -3.713051 0)
(154.53637 -3.9824365 0)
(155.02143 -4.2691921 0)
(155.57311 -4.5635875 0)
(156.19901 -4.852067 0)
(156.90419 -5.116549 0)
(157.68818 -5.3342366 0)
(158.54154 -5.4796648 0)
(159.44451 -5.529909 0)
(160.37005 -5.4704597 0)
(161.29018 -5.2976061 0)
(162.18166 -5.015879 0)
(163.02826 -4.6327137 0)
(163.81949 -4.153688 0)
(164.54779 -3.580089 0)
(165.20537 -2.9080951 0)
(165.78058 -2.128783 0)
(166.25352 -1.2298952 0)
(166.59283 -0.20044812 0)
(166.75515 0.96281459 0)
(166.68405 2.2486853 0)
(166.30889 3.6205181 0)
(165.56554 4.9972211 0)
(164.4355 6.2469372 0)
(162.98175 7.2241131 0)
(161.33648 7.8354739 0)
(159.64739 8.0704645 0)
(158.03316 7.9781927 0)
(156.56825 7.6364316 0)
(155.28657 7.1249661 0)
(154.19339 6.5119547 0)
(153.27719 5.8491033 0)
(152.51861 5.1722176 0)
(151.89626 4.5039829 0)
(151.38994 3.8572214 0)
(150.98213 3.2377886 0)
(150.65835 2.6468421 0)
(150.40678 2.082517 0)
(150.21835 1.5410863 0)
(150.08884 1.0177865 0)
(150.01935 0.50646616 0)
(152.14003 -2.7697575 0)
(152.40901 -2.8030924 0)
(152.61175 -2.8682592 0)
(152.83331 -2.9688036 0)
(153.06864 -3.1047542 0)
(153.32447 -3.2765311 0)
(153.607 -3.4842227 0)
(153.92366 -3.7272834 0)
(154.28308 -4.0040177 0)
(154.69514 -4.3108576 0)
(155.17068 -4.6414366 0)
(155.72092 -4.9856377 0)
(156.3566 -5.3286797 0)
(157.08636 -5.6498907 0)
(157.91283 -5.9215962 0)
(158.82689 -6.1110379 0)
(159.80461 -6.1878876 0)
(160.81144 -6.1337909 0)
(161.81189 -5.9464534 0)
(162.77845 -5.635547 0)
(163.69466 -5.2141946 0)
(164.55264 -4.6917341 0)
(165.34857 -4.0707024 0)
(166.07875 -3.3461735 0)
(166.73509 -2.5052726 0)
(167.29903 -1.528418 0)
(167.73644 -0.39496743 0)
(167.99617 0.90821479 0)
(168.00849 2.3787214 0)
(167.6756 3.9859144 0)
(166.89501 5.6378477 0)
(165.61973 7.158093 0)
(163.92607 8.3342586 0)
(162.00076 9.031778 0)
(160.0489 9.2486814 0)
(158.22292 9.0651723 0)
(156.60752 8.5943031 0)
(155.23123 7.9427125 0)
(154.08755 7.1952982 0)
(153.1522 6.4120739 0)
(152.39482 5.6315574 0)
(151.78558 4.8759663 0)
(151.29828 4.1561506 0)
(150.91135 3.4754897 0)
(150.60772 2.8326847 0)
(150.37401 2.2236645 0)
(150.20021 1.6428195 0)
(150.08132 1.0838108 0)
(150.0177 0.53904971 0)
(152.50499 -2.8677512 0)
(152.74517 -2.9023855 0)
(152.92545 -2.9716493 0)
(153.12311 -3.0794703 0)
(153.33428 -3.2261405 0)
(153.56563 -3.4125951 0)
(153.82367 -3.6396142 0)
(154.11642 -3.9075036 0)
(154.45351 -4.2155349 0)
(154.84646 -4.561108 0)
(155.30844 -4.9385647 0)
(155.85371 -5.3378993 0)
(156.49693 -5.7435652 0)
(157.25172 -6.1326107 0)
(158.12565 -6.4719198 0)
(159.11104 -6.71911 0)
(160.17848 -6.8331792 0)
(161.28226 -6.7902838 0)
(162.3757 -6.5908454 0)
(163.42527 -6.2528068 0)
(164.41492 -5.7978364 0)
(165.34116 -5.2401318 0)
(166.20587 -4.5830989 0)
(167.0115 -3.8197979 0)
(167.75611 -2.9319583 0)
(168.42493 -1.8899208 0)
(168.9823 -0.65951005 0)
(169.36919 0.78623755 0)
(169.50198 2.4581405 0)
(169.24855 4.3395157 0)
(168.44824 6.3341277 0)
(167.00124 8.2075689 0)
(164.99645 9.6416195 0)
(162.70668 10.433499 0)
(160.42492 10.603714 0)
(158.34712 10.283321 0)
(156.56543 9.6376116 0)
(155.09498 8.8081646 0)
(153.91004 7.8988951 0)
(152.9682 6.9772181 0)
(152.22495 6.0823249 0)
(151.64043 5.2338618 0)
(151.18184 4.4389712 0)
(150.82353 3.6972804 0)
(150.546 3.0041618 0)
(150.33458 2.3527741 0)
(150.17856 1.7352798 0)
(150.0724 1.1435624 0)
(150.01574 0.56847875 0)
(152.89801 -3.0200553 0)
(153.10243 -3.0584693 0)
(153.25771 -3.1340538 0)
(153.42896 -3.2513094 0)
(153.6132 -3.410972 0)
(153.81682 -3.6146985 0)
(154.04645 -3.8642172 0)
(154.31053 -4.160998 0)
(154.61963 -4.5056667 0)
(154.98691 -4.8970696 0)
(155.42815 -5.3307806 0)
(155.96116 -5.7973377 0)
(156.60531 -6.2807545 0)
(157.38096 -6.756046 0)
(158.30368 -7.1838065 0)
(159.36962 -7.5081002 0)
(160.54249 -7.6709854 0)
(161.76015 -7.6392227 0)
(162.95929 -7.4171656 0)
(164.09822 -7.0355922 0)
(165.16291 -6.5293945 0)
(166.15754 -5.9200188 0)
(167.09229 -5.2126214 0)
(167.97785 -4.3996012 0)
(168.82121 -3.4589518 0)
(169.61437 -2.3504698 0)
(170.32138 -1.0228906 0)
(170.87526 0.56994745 0)
(171.17979 2.4592849 0)
(171.0633 4.6571052 0)
(170.27996 7.0814834 0)
(168.63341 9.42851 0)
(166.21653 11.20937 0)
(163.44211 12.100413 0)
(160.74262 12.176513 0)
(158.36734 11.652061 0)
(156.40774 10.769958 0)
(154.85128 9.7157503 0)
(153.6421 8.6131791 0)
(152.71282 7.5341816 0)
(152.00127 6.5150247 0)
(151.4562 5.5696828 0)
(151.03801 4.699312 0)
(150.71724 3.8982616 0)
(150.47246 3.1576196 0)
(150.28812 2.4672108 0)
(150.15326 1.8166582 0)
(150.06202 1.1959117 0)
(150.01348 0.59420703 0)
(153.2906 -3.0652608 0)
(153.46143 -3.1036341 0)
(153.59029 -3.1816863 0)
(153.73304 -3.30427 0)
(153.88776 -3.4724348 0)
(154.06047 -3.6885016 0)
(154.25781 -3.9551399 0)
(154.48853 -4.2750578 0)
(154.76404 -4.6504499 0)
(155.0992 -5.082063 0)
(155.51275 -5.5674311 0)
(156.02665 -6.0984864 0)
(156.66588 -6.6597585 0)
(157.45967 -7.2256928 0)
(158.43621 -7.7514783 0)
(159.60011 -8.1640137 0)
(160.90674 -8.3801248 0)
(162.26884 -8.3526456 0)
(163.59713 -8.0943596 0)
(164.83774 -7.6583833 0)
(165.98078 -7.1016717 0)
(167.04253 -6.4562341 0)
(168.04416 -5.7279354 0)
(169.00623 -4.9069001 0)
(169.94849 -3.9655176 0)
(170.87567 -2.8466959 0)
(171.75608 -1.470528 0)
(172.51737 0.24018875 0)
(173.05569 2.3450479 0)
(173.16089 4.8992155 0)
(172.46529 7.8639595 0)
(170.59685 10.863082 0)
(167.62097 13.131522 0)
(164.18482 14.115486 0)
(160.9523 14.018355 0)
(158.23021 13.190301 0)
(156.09053 11.989493 0)
(154.46864 10.653431 0)
(153.26323 9.3230105 0)
(152.37366 8.068484 0)
(151.71677 6.9173831 0)
(151.2292 5.8736981 0)
(150.865 4.9297688 0)
(150.59172 4.0729569 0)
(150.38681 3.2891027 0)
(150.23458 2.5641945 0)
(150.12431 1.8850834 0)
(150.0502 1.2397047 0)
(150.0109 0.61568022 0)
(153.71301 -3.2021458 0)
(153.84219 -3.2460634 0)
(153.94234 -3.33149 0)
(154.05449 -3.4638691 0)
(154.17738 -3.6448349 0)
(154.31631 -3.8777674 0)
(154.47765 -4.1668146 0)
(154.67016 -4.5166366 0)
(154.90569 -4.9319308 0)
(155.2005 -5.4165858 0)
(155.57623 -5.971681 0)
(156.0593 -6.5921426 0)
(156.68074 -7.2643029 0)
(157.48044 -7.9638456 0)
(158.50571 -8.6422718 0)
(159.7783 -9.2035897 0)
(161.24465 -9.522284 0)
(162.7788 -9.5240344 0)
(164.2509 -9.2325416 0)
(165.58988 -8.7332853 0)
(166.79564 -8.1148154 0)
(167.90618 -7.4200694 0)
(168.95948 -6.650026 0)
(169.98843 -5.7900232 0)
(171.0314 -4.8111499 0)
(172.11514 -3.6428023 0)
(173.21706 -2.1763123 0)
(174.2573 -0.30473091 0)
(175.11788 2.0550079 0)
(175.57712 5.0096527 0)
(175.10135 8.6443699 0)
(173.01219 12.557328 0)
(169.26041 15.548937 0)
(164.89282 16.59372 0)
(160.97783 16.192209 0)
(157.86138 14.912683 0)
(155.55827 13.284523 0)
(153.9109 11.599474 0)
(152.75226 10.005822 0)
(151.93949 8.5606758 0)
(151.36613 7.2740999 0)
(150.95733 6.1344737 0)
(150.66229 5.122057 0)
(150.44712 4.2154847 0)
(150.2894 3.3945053 0)
(150.17426 2.6409183 0)
(150.09191 1.9387063 0)
(150.03702 1.2738188 0)
(150.00803 0.63236275 0)
(154.09113 -3.1842727 0)
(154.18081 -3.2260378 0)
(154.25065 -3.310605 0)
(154.32966 -3.4443229 0)
(154.41729 -3.6293952 0)
(154.51788 -3.8701605 0)
(154.63721 -4.1720292 0)
(154.78366 -4.5412988 0)
(154.96911 -4.9847785 0)
(155.21084 -5.5091824 0)
(155.53353 -6.1191833 0)
(155.96894 -6.8130115 0)
(156.55484 -7.5788913 0)
(157.34365 -8.3953928 0)
(158.41138 -9.2155378 0)
(159.81387 -9.9179449 0)
(161.49156 -10.311038 0)
(163.25752 -10.275585 0)
(164.91628 -9.8611694 0)
(166.37099 -9.2110619 0)
(167.64013 -8.4705526 0)
(168.79833 -7.7015308 0)
(169.90527 -6.8980064 0)
(171.00158 -6.0435179 0)
(172.1445 -5.1222157 0)
(173.39219 -4.053959 0)
(174.73753 -2.6851771 0)
(176.09147 -0.8453223 0)
(177.34322 1.6113458 0)
(178.30613 4.8933028 0)
(178.27492 9.3168827 0)
(176.04001 14.535993 0)
(171.2041 18.686566 0)
(165.48591 19.705168 0)
(160.70244 18.776191 0)
(157.1579 16.822971 0)
(154.74242 14.626662 0)
(153.13867 12.518107 0)
(152.08948 10.629537 0)
(151.40202 8.9856614 0)
(150.94697 7.5668584 0)
(150.64088 6.3391416 0)
(150.4311 5.2673276 0)
(150.28474 4.3198361 0)
(150.18129 3.4697879 0)
(150.10789 2.694706 0)
(150.05647 1.9758069 0)
(150.02266 1.2972274 0)
(150.00491 0.64376931 0)
(154.405 -3.2990102 0)
(154.44511 -3.3521667 0)
(154.48045 -3.4479907 0)
(154.52185 -3.5938956 0)
(154.56927 -3.7925331 0)
(154.62582 -4.0493144 0)
(154.69643 -4.3712113 0)
(154.7888 -4.7668141 0)
(154.91435 -5.2462584 0)
(155.09056 -5.8212136 0)
(155.34447 -6.5036739 0)
(155.7132 -7.3006613 0)
(156.24052 -8.207921 0)
(156.98945 -9.2135622 0)
(158.07387 -10.28608 0)
(159.61208 -11.284707 0)
(161.54875 -11.909208 0)
(163.59762 -11.945159 0)
(165.45581 -11.480981 0)
(166.9895 -10.739454 0)
(168.25305 -9.951787 0)
(169.3853 -9.1978719 0)
(170.47672 -8.4427332 0)
(171.56717 -7.6448128 0)
(172.73794 -6.8009843 0)
(174.10821 -5.8100252 0)
(175.7164 -4.4407683 0)
(177.47788 -2.4282001 0)
(179.29644 0.43850555 0)
(181.07029 4.3045465 0)
(181.9355 9.7611177 0)
(179.83442 16.839923 0)
(173.51723 22.976157 0)
(165.79316 23.710518 0)
(159.93916 21.857174 0)
(155.97616 18.897644 0)
(153.56112 15.959116 0)
(152.11274 13.353718 0)
(151.26019 11.15051 0)
(150.75856 9.3124749 0)
(150.46153 7.7747883 0)
(150.28346 6.4739985 0)
(150.17488 5.3566916 0)
(150.10734 4.380274 0)
(150.06444 3.5112603 0)
(150.0367 2.7232029 0)
(150.01866 1.9949179 0)
(150.00738 1.3090743 0)
(150.00159 0.64949961 0)
(154.34213 -3.2180385 0)
(154.32326 -3.2654685 0)
(154.31728 -3.3514971 0)
(154.31307 -3.4874519 0)
(154.31119 -3.6773407 0)
(154.31284 -3.9282411 0)
(154.32136 -4.249151 0)
(154.34263 -4.6513881 0)
(154.38603 -5.1487278 0)
(154.46706 -5.7578166 0)
(154.61282 -6.4979115 0)
(154.86516 -7.3848242 0)
(155.27353 -8.4190155 0)
(155.90753 -9.5914276 0)
(156.92894 -10.89199 0)
(158.57327 -12.174532 0)
(160.82776 -12.962309 0)
(163.24394 -12.847047 0)
(165.33847 -12.026888 0)
(166.92244 -10.869801 0)
(168.11252 -9.7762753 0)
(169.16279 -8.8461979 0)
(170.21509 -7.9782259 0)
(171.28958 -7.07192 0)
(172.48531 -6.1936097 0)
(174.01501 -5.2954039 0)
(175.98308 -4.084585 0)
(178.2908 -2.2494868 0)
(180.76104 0.48027127 0)
(183.4505 3.9972027 0)
(185.66979 9.845189 0)
(184.29003 19.147832 0)
(176.05965 28.885475 0)
(165.37612 28.756472 0)
(158.37717 25.455366 0)
(154.12144 21.05181 0)
(151.92465 17.179376 0)
(150.80185 14.024373 0)
(150.26052 11.512302 0)
(150.01555 9.5050592 0)
(149.91853 7.8756669 0)
(149.89292 6.5255537 0)
(149.89972 5.38199 0)
(149.91923 4.391856 0)
(149.94168 3.5159218 0)
(149.96241 2.724592 0)
(149.97937 1.9949572 0)
(149.99154 1.3087496 0)
(149.99816 0.64927376 0)
(153.4449 -3.2607105 0)
(153.35224 -3.332849 0)
(153.28821 -3.4393139 0)
(153.21779 -3.5961856 0)
(153.14311 -3.8077351 0)
(153.06307 -4.0818842 0)
(152.97881 -4.4285203 0)
(152.8936 -4.860312 0)
(152.81385 -5.3931224 0)
(152.75156 -6.0469851 0)
(152.73214 -6.8480222 0)
(152.80267 -7.8251391 0)
(153.02016 -8.9934654 0)
(153.45071 -10.358188 0)
(154.29759 -11.967688 0)
(155.9925 -13.762871 0)
(158.65121 -15.051395 0)
(161.53085 -15.000004 0)
(163.82675 -14.059204 0)
(165.28151 -12.74077 0)
(166.1378 -11.682006 0)
(166.87419 -10.949758 0)
(167.71677 -10.341925 0)
(168.59372 -9.6595497 0)
(169.55653 -9.1626072 0)
(170.97257 -8.935316 0)
(173.0651 -8.358789 0)
(175.7498 -7.0914699 0)
(178.65849 -4.5088261 0)
(182.50857 -0.74723044 0)
(187.23192 7.2221353 0)
(188.31845 20.232775 0)
(177.99766 36.707722 0)
(163.29963 35.016009 0)
(155.62983 29.582133 0)
(151.37465 23.14247 0)
(149.75314 18.126304 0)
(149.19662 14.417494 0)
(149.10589 11.646887 0)
(149.19287 9.5248596 0)
(149.33503 7.8481919 0)
(149.48204 6.4821218 0)
(149.61452 5.3368089 0)
(149.72632 4.3510548 0)
(149.81671 3.4818339 0)
(149.88717 2.697815 0)
(149.93972 1.9753573 0)
(149.97559 1.295962 0)
(149.9947 0.64296508 0)
(150.26603 -3.1515359 0)
(150.02684 -3.2129954 0)
(149.85915 -3.2922461 0)
(149.67394 -3.4156367 0)
(149.47562 -3.5887089 0)
(149.25956 -3.8205068 0)
(149.02343 -4.1221058 0)
(148.76605 -4.5084393 0)
(148.48804 -4.9995643 0)
(148.19311 -5.6227611 0)
(147.89637 -6.4178231 0)
(147.63948 -7.4407101 0)
(147.47743 -8.7432647 0)
(147.44331 -10.351376 0)
(147.73204 -12.35969 0)
(149.08408 -14.881573 0)
(151.99633 -16.953946 0)
(155.20328 -16.581645 0)
(157.36921 -14.864697 0)
(158.21541 -12.437607 0)
(158.20405 -10.574975 0)
(158.17651 -9.4113424 0)
(158.44853 -8.6633348 0)
(158.70665 -7.7738698 0)
(158.87555 -7.2195695 0)
(159.80305 -7.1092714 0)
(161.8784 -6.0679499 0)
(165.03445 -4.9276695 0)
(168.75458 -1.9887691 0)
(175.12057 4.1546871 0)
(184.10234 12.1801 0)
(189.71735 24.116487 0)
(176.99406 49.675646 0)
(157.59525 45.453818 0)
(150.9457 34.375379 0)
(147.42249 24.838993 0)
(146.97054 18.528784 0)
(147.3255 14.381536 0)
(147.84133 11.479055 0)
(148.32818 9.3360382 0)
(148.73777 7.6755827 0)
(149.06863 6.3359555 0)
(149.33078 5.2176736 0)
(149.53582 4.2564136 0)
(149.69394 3.4084798 0)
(149.8135 2.6427712 0)
(149.90097 1.9361749 0)
(149.96001 1.2707968 0)
(149.99133 0.63062589 0)
(143.56478 -2.9333716 0)
(143.17488 -3.0227745 0)
(142.86896 -3.1215223 0)
(142.52373 -3.2676948 0)
(142.15042 -3.4665094 0)
(141.74022 -3.7282541 0)
(141.28544 -4.0654005 0)
(140.77721 -4.4951775 0)
(140.20583 -5.0412355 0)
(139.55984 -5.7356986 0)
(138.83247 -6.6250422 0)
(138.04702 -7.7794487 0)
(137.25958 -9.2711797 0)
(136.4741 -11.102964 0)
(135.80876 -13.319632 0)
(136.45638 -16.387253 0)
(139.99229 -19.592077 0)
(144.03986 -18.237481 0)
(146.21253 -15.629028 0)
(146.20867 -12.348676 0)
(144.72491 -11.009955 0)
(143.33273 -11.176133 0)
(142.70976 -11.679692 0)
(142.1809 -11.163939 0)
(141.39635 -10.578504 0)
(142.15568 -10.520649 9.2412379e-18)
(143.376 -11.96421 -2.0377115e-19)
(145.64775 -13.619145 0)
(146.69314 -7.4828014 1.0041589e-17)
(144.01071 -14.50726 -7.5150753e-18)
(161.52014 -10.133843 4.4345743e-18)
(180.42941 5.4360351 -9.8953247e-18)
(167.99729 72.36834 6.3994363e-18)
(142.15404 58.113494 0)
(140.68636 37.192101 0)
(141.64596 24.756793 0)
(143.57929 17.87088 0)
(145.30472 13.725876 0)
(146.55949 10.940919 0)
(147.48087 8.9152763 0)
(148.16299 7.3507201 0)
(148.67465 6.0857457 0)
(149.06183 5.0252405 0)
(149.35578 4.1091189 0)
(149.57809 3.297044 0)
(149.74406 2.5604561 0)
(149.86447 1.8781605 0)
(149.94534 1.2337502 0)
(149.98815 0.61250228 0)
(129.76336 -2.8780833 0)
(128.99551 -2.9443219 0)
(128.39905 -2.9990579 0)
(127.73014 -3.0902896 0)
(127.00819 -3.2204629 0)
(126.21526 -3.3970141 0)
(125.33429 -3.6281917 0)