/*--------------------------------*- C++ -*----------------------------------*\
| =========                 |                                                 |
| \\      /  F ield         | foam-extend: Open Source CFD                    |
|  \\    /   O peration     | Version:     4.1                                |
|   \\  /    A nd           | Web:         http://www.foam-extend.org         |
|    \\/     M anipulation  |                                                 |
\*---------------------------------------------------------------------------*/
FoamFile
{
    version     2.0;
    format      ascii;
    class       volScalarField;
    location    "0.2";
    object      p;
}
// * * * * * * * * * * * * * * * * * * * * * * * * * * * * * * * * * * * * * //

dimensions      [0 2 -2 0 0 0 0];

internalField   nonuniform List<scalar> 
4393
(
-46.623725
-92.876081
-146.43776
-201.02429
-257.82199
-317.13745
-379.35001
-444.76321
-513.5925
-585.93588
-661.74525
-740.79794
-822.67153
-906.72586
-992.09667
-1077.7039
-1162.2752
-1244.3813
-1322.4776
-1394.9459
-1460.1314
-1516.3759
-1562.0492
-1595.5845
-1615.5266
-1620.6012
-1609.815
-1582.5946
-1538.8577
-1479.1124
-1404.5641
-1317.0957
-1219.166
-1113.6307
-1003.5212
-891.82209
-781.28518
-674.30005
-572.82672
-478.38267
-392.0708
-314.63336
-246.51678
-187.93666
-138.94755
-99.516307
-69.418465
-47.734485
-33.627784
-45.367668
-92.286931
-145.72188
-200.15769
-256.78723
-315.94956
-378.03787
-443.36802
-512.16754
-584.54666
-660.46894
-739.7217
-821.88914
-906.3328
-992.18394
-1078.3519
-1163.5488
-1246.3276
-1325.1256
-1398.3087
-1464.2082
-1521.153
-1567.4981
-1601.6576
-1622.1497
-1627.6695
-1617.19
-1590.0582
-1546.1321
-1485.9168
-1410.62
-1322.1577
-1223.0531
-1116.2461
-1004.8568
-891.94855
-780.33239
-672.43405
-570.22769
-475.22736
-388.52044
-310.82679
-242.57049
-183.95458
-135.02541
-95.689693
-65.671688
-44.820509
-34.3202
-44.557643
-91.389652
-144.46363
-198.53945
-254.81972
-313.67375
-375.51731
-440.68902
-509.43999
-581.90449
-658.06906
-737.7404
-820.51528
-905.75748
-992.58781
-1079.8924
-1166.3502
-1250.4766
-1330.6723
-1405.2708
-1472.5768
-1530.8942
-1578.5504
-1613.9208
-1635.4674
-1641.8098
-1631.8383
-1604.8171
-1560.5113
-1499.3529
-1422.5434
-1332.0661
-1230.5777
-1121.1938
-1007.2178
-891.87375
-778.09113
-668.365
-564.69313
-468.577
-381.06667
-302.83087
-234.24042
-175.45533
-126.47901
-87.12466
-57.077808
-36.772172
-28.088065
-43.761435
-90.088742
-142.55456
-196.05262
-251.79109
-310.16851
-371.63018
-436.54741
-505.20682
-577.77977
-654.28895
-734.57224
-818.24745
-904.68354
-992.98635
-1082.0064
-1170.3715
-1256.5383
-1338.8512
-1415.5961
-1485.0389
-1545.4504
-1595.12
-1632.3698
-1655.5803
-1663.255
-1654.145
-1627.3654
-1582.5331
-1519.9726
-1440.87
-1347.3113
-1242.1655
-1128.8284
-1010.8949
-891.84218
-774.78306
-662.31673
-556.47302
-458.72962
-370.07587
-291.10057
-222.09168
-163.13491
-114.1595
-74.889783
-45.007596
-25.171118
-17.126216
-42.933949
-88.467424
-140.07923
-192.77324
-247.76594
-305.4875
-366.4196
-430.97605
-499.4911
-572.1869
-649.1365
-730.22223
-815.09295
-903.12664
-993.40917
-1084.7409
-1175.676
-1264.5878
-1349.7421
-1429.3602
-1501.66
-1564.8733
-1617.2467
-1657.0378
-1682.5239
-1692.0554
-1684.1912
-1657.8273
-1612.3556
-1547.9316
-1465.7049
-1367.9011
-1257.6954
-1138.8903
-1015.5011
-891.36366
-769.84359
-653.67659
-544.92595
-445.02561
-354.8724
-274.93961
-205.39754
-146.22397
-97.247712
-58.111855
-28.506686
-9.1445223
-1.4883391
-41.92086
-86.410385
-136.92074
-188.57919
-242.61181
-299.48486
-359.72394
-423.79593
-492.0961
-564.91304
-642.38712
-724.46176
-810.83046
-900.88686
-993.69245
-1087.9802
-1182.2035
-1274.6213
-1363.3944
-1446.6623
-1522.5875
-1589.3625
-1645.1917
-1688.2632
-1716.7312
-1728.7528
-1722.6306
-1696.9604
-1650.8132
-1584.088
-1497.8581
-1394.5288
-1277.6982
-1151.7378
-1021.2444
-890.53892
-763.31703
-642.47989
-530.11588
-427.58313
-335.64239
-254.60509
-184.47949
-125.09432
-76.14582
-37.178935
-7.8542065
11.152575
18.590045
-40.774917
-83.992174
-133.14698
-183.5221
-236.35782
-292.16262
-351.51395
-414.94295
-482.92049
-555.81933
-633.86724
-717.08951
-805.24271
-897.74684
-993.63574
-1091.5541
-1189.8196
-1286.5375
-1379.7306
-1467.4386
-1547.7654
-1618.8721
-1678.9324
-1726.0698
-1758.3033
-1773.557
-1769.8033
-1745.2374
-1698.48
-1629.0448
-1537.8586
-1427.5458
-1302.2809
-1167.2176
-1027.7424
-888.81672
-754.55147
-628.0356
-511.3601
-405.75948
-311.80135
-229.57951
-158.89052
-99.372847
-50.560968
-11.880088
17.08203
35.741112
43.005855
-39.357909
-81.056752
-128.5934
-177.43216
-228.82619
-283.3315
-341.5853
-404.19461
-471.72182
-544.64414
-623.30065
-707.82467
-798.06078
-893.47216
-993.06364
-1095.3659
-1198.5138
-1300.4063
-1398.8857
-1491.8717
-1577.412
-1653.6553
-1718.77
-1770.8336
-1807.7284
-1827.1083
-1826.5323
-1803.6737
-1756.5307
-1684.0413
-1586.8656
-1467.8836
-1332.0509
-1185.5967
-1034.9725
-885.97284
-743.2161
-609.98746
-488.33434
-379.29533
-283.16705
-199.75458
-128.58347
-69.0564
-20.515414
17.7562
46.272422
64.562481
71.66361
-37.818319
-77.767651
-123.41251
-170.43777
-220.11293
-273.04728
-329.94557
-391.50282
-458.39048
-531.21365
-610.45175
-696.37964
-788.96475
-887.74027
-991.68588
-1099.1865
-1208.1317
-1316.1406
-1420.8198
-1519.9455
-1611.5201
-1693.7149
-1764.7369
-1822.6566
-1865.2338
-1889.821
-1893.4714
-1873.1885
-1826.1196
-1750.3463
-1646.0571
-1516.4123
-1367.4332
-1206.8366
-1042.5126
-881.33087
-728.51347
-587.52629
-460.29302
-347.55138
-249.22382
-164.73839
-93.280542
-33.96691
14.086753
51.763399
79.701196
97.55428
104.47254
-35.89923
-73.816766
-117.27342
-162.19543
-209.8604
-260.93384
-316.19459
-376.43764
-442.46239
-515.02856
-594.79047
-682.20662
-777.41454
-880.05889
-989.10617
-1102.7561
-1218.5641
-1333.7653
-1445.6524
-1551.8311
-1650.2811
-1739.2525
-1817.0632
-1881.8436
-1931.2696
-1962.3748
-1971.6082
-1955.1305
-1908.9397
-1829.8489
-1717.2307
-1574.5166
-1409.1989
-1231.0799
-1050.0023
-874.21443
-709.63209
-559.84429
-426.51903
-309.94313
-209.52912
-124.22005
-52.782814
6.0047144
53.285963
90.130938
117.31681
134.63008
141.32862
-33.939361
-69.597482
-110.57673
-153.09001
-198.42576
-247.30856
-300.59654
-359.19571
-424.05299
-496.11265
-576.24473
-665.14391
-763.18228
-870.18047
-985.12115
-1105.9728
-1229.8331
-1353.4037
-1473.5547
-1587.6921
-1693.8154
-1790.341
-1875.8053
-1948.5036
-2006.0995
-2045.3104
-2061.8827
-2050.9343
-2006.9368
-1924.8338
-1802.6035
-1643.8629
-1458.1669
-1258.2953
-1056.7605
-863.56881
-685.39301
-525.8169
-386.04491
-265.70207
-163.51479
-77.810874
-6.8508512
50.98038
97.115866
132.82827
159.04131
175.67836
182.1058
-31.43502
-64.495475
-102.65312
-142.4168
-185.06689
-231.38468
-282.31027
-338.87077
-402.1812
-473.40461
-553.67564
-643.99058
-745.0434
-856.93017
-978.70987
-1108.068
-1241.4658
-1374.8457
-1504.4946
-1627.5794
-1742.1873
-1847.0273
-1941.0068
-2022.7421
-2090.0063
-2139.2417
-2165.4151
-2162.3799
-2122.6312
-2038.3849
-1905.2511
-1726.7738
-1515.4563
-1288.4283
-1061.8821
-848.0443
-654.34165
-484.10783
-337.76519
-213.98592
-110.58662
-25.127255
44.731779
101.05009
145.57446
179.788
204.76092
220.55488
226.64755
-29.039934
-59.299664
-94.346228
-131.03888
-170.65251
-214.02285
-262.17144
-316.25252
-377.56721
-447.53254
-527.60177
-619.14856
-723.29978
-840.57424
-970.2193
-1109.5857
-1254.2389
-1399.0216
-1539.4039
-1672.2798
-1795.9487
-1909.6097
-2012.7615
-2104.5699
-2183.1095
-2244.6369
-2283.3003
-2291.4371
-2259.0621
-2174.481
-2029.2961
-1826.345
-1582.4275
-1321.213
-1063.9978
-825.77303
-614.57229
-433.04628
-280.35817
-153.83337
-50.101249
34.218179
102.15867
156.26728
198.61738
230.89912
254.31985
269.07627
274.75985
-25.882794
-52.938129
-84.478792
-117.70329
-153.84586
-193.78443
-238.61566
-289.62287
-348.30962
-416.38598
-495.6885
-588.06024
-695.20637
-818.294
-956.97474
-1108.2437
-1266.3999
-1424.6644
-1577.3381
-1721.0054
-1854.3718
-1977.388
-2090.411
-2193.4445
-2285.1439
-2361.7431
-2416.5797
-2440.2926
-2419.9598
-2338.4006
-2180.4839
-1946.9012
-1660.8251
-1356.1021
-1061.124
-794.23873
-563.65447
-370.60832
-212.30446
-84.200621
18.59307
100.57961
165.57069
216.62638
256.1419
285.99598
307.51242
321.01351
326.20488
-23.046973
-46.743107
-74.505891
-103.93997
-136.24228
-172.32448
-213.34951
-260.72592
-316.16915
-381.71856
-459.6621
-552.40878
-662.40609
-791.78177
-940.96126
-1106.6172
-1281.2128
-1455.4975
-1622.0414
-1777.0953
-1920.1148
-2052.2156
-2174.9978
-2289.74
-2396.1598
-2490.7893
-2566.1908
-2611.2306
-2609.7679
-2537.1137
-2366.9227
-2094.5907
-1752.8375
-1392.0248
-1050.3314
-750.01478
-498.47871
-294.35467
-131.8834
-3.9869014
96.121606
174.24437
235.02799
282.0414
317.97146
344.84755
364.07563
376.08609
380.69579
-19.176628
-39.051607
-62.613251
-87.829673
-115.80116
-147.44362
-183.96149
-226.86825
-278.08386
-340.00368
-415.44065
-507.4755
-619.48149
-754.98925
-915.86887
-1098.7093
-1293.3456
-1486.7364
-1668.9008
-1835.8354
-1988.3813
-2129.4216
-2262.2124
-2389.744
-2513.3591
-2630.2643
-2732.2412
-2806.3912
-2833.6239
-2779.8172
-2600.3104
-2278.4794
-1861.2201
-1427.0506
-1027.2983
-688.45144
-415.10894
-201.40595
-37.213634
87.902284
183.02113
255.38209
310.47228
352.31978
383.83848
407.14657
423.68224
433.95745
437.89288
-15.91366
-31.903079
-51.037195
-71.727938
-94.982393
-121.70483
-153.12279
-190.83716
-236.96299
-294.2791
-366.21416
-456.63914
-570.01972
-711.84149
-886.53631
-1091.2285
-1311.8998
-1529.429
-1729.8487
-1909.0019
-2070.1256
-2218.6778
-2359.9634
-2499.1805
-2640.2959
-2782.1538
-2916.1833
-3028.1485
-3097.1705
-3078.5132
-2897.9523
-2512.5792
-1989.4019
-1457.8008
-985.6072
-603.2461
-308.61943
-88.450244
73.664367
192.45784
279.65567
343.98157
391.68351
427.1346
453.36748
472.49983
485.93564
494.23218
497.4017
-11.251287
-22.835545
-37.110674
-52.857414
-70.904619
-92.098747
-117.64259
-149.16708
-188.91495
-240.00781
-306.53695
-393.25032
-505.76903
-652.11351
-841.10703
-1071.9558
-1325.1126
-1571.601
-1791.3338
-1980.5467
-2146.9936
-2300.1952
-2448.0539
-2598.5145
-2759.6527
-2933.2644
-3110.3812
-3274.869
-3405.5724
-3448.7886
-3285.9023
-2819.35
-2141.2497
-1478.4262
-915.69088
-485.90736
-172.96808
48.164524
202.62761
310.41595
386.1015
439.773
478.23146
505.99635
526.05986
540.42088
550.36697
556.45558
558.7734
-7.4688505
-14.817346
-24.181893
-34.805924
-47.330168
-62.506591
-81.467262
-105.82041
-137.8726
-181.05399
-240.2281
-321.23463
-430.88733
-580.25339
-785.44068
-1051.2399
-1350.2809
-1636.8515
-1881.0165
-2080.2019
-2250.331
-2406.8958
-2560.2465
-2720.4113
-2901.0062
-3108.4839
-3333.5243
-3558.1378
-3766.7643
-3908.5196
-3802.0303
-3236.5369
-2321.4359
-1479.6926
-803.44394
-325.13834
-0.97577465
212.19122
351.19609
442.03982
502.00042
542.1391
569.42615
588.22773
601.28276
610.32661
616.43589
620.11636
621.50814
-1.9813208
-4.5671715
-8.5134948
-13.505603
-19.911489
-28.354882
-39.855925
-55.94049
-78.868523
-112.2185
-161.57606
-233.98281
-337.09627
-484.64736
-703.7357
-1012.0133
-1371.7563
-1707.9645
-1975.4057
-2174.5582
-2336.9172
-2486.9176
-2636.8428
-2797.1546
-2990.6931
-3233.9858
-3519.8762
-3830.3774
-4157.5514
-4472.0774
-4507.2396
-3837.8025
-2538.5524
-1446.2649
-627.31364
-105.92434
215.48835
406.99518
520.09519
586.82204
626.38468
650.0227
664.27424
672.94643
678.26521
681.53977
683.53576
684.65296
685.06175
3.2493337
4.7379648
5.8030233
6.1199949
5.6317174
3.8999052
0.11893679
-7.0076357
-19.463056
-40.626478
-76.585825
-135.89037
-226.98033
-365.0131
-592.7906
-956.54947
-1408.1546
-1818.2537
-2117.7187
-2311.4636
-2461.0314
-2603.8567
-2753.6368
-2916.4916
-3128.3248
-3423.073
-3792.1772
-4216.1376
-4667.8386
-5198.3779
-5485.8454
-4748.5777
-2781.207
-1338.4682
-352.35999
190.97942
484.62112
634.60519
708.59259
743.1063
757.4892
761.84576
761.45149
759.0619
756.10479
753.29887
751.00423
749.46395
748.85598
9.3112056
14.748427
21.334792
27.695198
34.122174
40.385629
45.951814
49.814321
50.346678
44.570877
26.05621
-15.900304
-90.953041
-211.82762
-437.83727
-871.02459
-1461.0818
-1969.4467
-2296.0007
-2451.5616
-2561.2878
-2678.7862
-2817.7306
-2963.9703
-3162.0933
-3487.414
-3915.083
-4446.1412
-4978.5877
-5853.3924
-6720.2069
-6205.967
-3011.1263
-1131.9761
58.564642
585.40656
812.27044
894.10087
913.59019
907.66398
892.58835
875.46525
859.30596
845.29375
833.7885
824.77727
818.13973
813.92248
812.2921
18.804193
26.942724
38.333978
49.833021
62.139528
75.18246
88.709987
102.06371
114.1303
122.87481
122.73713
101.73078
49.048091
-38.769173
-228.79425
-725.49868
-1528.6749
-2171.7495
-2536.8342
-2622.3927
-2682.3052
-2775.1942
-2916.11
-3037.4416
-3184.3577
-3587.0859
-4096.3821
-4825.9912
-5554.224
-7121.3801
-8761.7763
-8952.3086
-3505.9643
-996.72984
653.00117
1106.9962
1200.5387
1179.5864
1128.5815
1075.3272
1027.9255
988.20258
955.90888
930.21872
910.23013
895.11186
884.22364
877.39454
874.76773
24.380031
32.809466
48.485672
65.062601
83.560447
104.12705
127.02255
152.3002
179.8534
209.42727
238.0269
253.52295
239.78299
201.37724
85.91492
-462.12945
-1661.0994
-2504.128
-2930.0143
-2838.2431
-2786.9743
-2816.3279
-2951.2573
-3019.334
-3089.4241
-3699.8688
-4080.9268
-5024.0382
-6321.8824
-7728.0965
-9460.4122
-11967.544
-4718.9621
-43.106053
1730.6767
1812.8002
1639.3959
1475.6623
1342.3478
1238.8186
1158.8306
1096.9882
1049.168
1012.35
984.32443
963.44041
948.54726
939.25995
935.69557
39.411884
47.82327
68.190212
89.617423
113.78088
140.94068
171.71823
206.62168
246.05647
290.6865
339.45073
379.91709
385.49849
364.24768
343.23393
-135.34028
-1969.1171
-2907.6395
-3337.2913
-2871.3582
-2736.9631
-2798.5112
-2962.1759
-3066.4541
-3238.5379
0
0
0
0
0
0
0
0
6194.9657
3395.9986
2575.5353
2061.2889
1748.9374
1538.2419
1389.24
1280.1835
1198.6635
1137.0091
1090.246
1055.0141
1028.9448
1010.4413
998.9346
994.52304
38.935405
44.273537
66.525565
89.91732
116.42527
146.31586
180.50677
219.9629
265.74177
319.7898
384.81809
455.81916
511.25892
572.50503
785.24749
700.81501
-2148.4557
-3130.6625
-3922.287
-3040.0699
-2978.6284
-2924.2445
0
0
0
0
0
0
0
0
0
0
10080.811
6256.2567
4105.8143
2986.2815
2349.4509
1958.5632
1699.2316
1518.2883
1387.3986
1290.4416
1217.6072
1162.6347
1121.3615
1090.8951
1069.3053
1055.892
1050.7512
45.678733
55.317405
81.798195
108.27567
137.97247
171.42089
209.91479
254.92143
308.26861
373.33416
456.57172
560.32104
667.83498
772.24979
924.19452
648.45512
-3428.9986
-4061.7242
-3401.0397
0
0
0
0
0
0
0
0
0
0
0
1709.4446
3293.0854
5702.1772
5201.2259
3935.9787
3080.6752
2491.0481
2093.764
1818.082
1621.3962
1477.5393
1370.364
1289.5986
1228.5237
1182.6102
1148.6874
1124.6324
1109.682
1103.9509
20.372334
43.270896
67.554871
92.43109
119.73228
150.37526
185.49244
226.2706
273.99137
331.08479
401.8904
479.77633
532.69866
511.264
530.7597
870.94771
0
0
0
0
0
0
-1195.2191
-1165.0306
-1072.043
-978.27922
-851.42382
-557.56693
-158.6867
632.22327
1957.817
3295.9523
4700.5737
4452.1161
3685.5505
3035.266
2533.1321
2165.3135
1896.3696
1697.9001
1549.5626
1437.4691
1352.1852
1287.2632
1238.2255
1201.8701
1176.0285
1159.945
1153.7757
18.13747
49.043194
74.204882
100.06344
127.78459
158.24134
192.08535
229.71881
271.03347
315.23506
360.11825
399.86679
407.36489
325.97636
112.17487
-369.02897
-1415.1301
-1332.5996
-1233.8891
-1176.5799
-1120.495
-1086.9693
-1074.1757
-866.78736
-900.57692
-643.48265
-422.362
-265.3284
197.55422
842.54883
1899.6307
2991.6736
3908.4872
3812.8752
3372.588
2907.2699
2506.1755
2186.6133
1939.4035
1749.6799
1603.961
1491.711
1405.1277
1338.5577
1287.9076
1250.156
1223.2211
1206.4198
1199.9693
20.380821
46.52442
72.051271
97.746727
124.88274
154.26846
186.51596
221.9999
260.69818
301.68042
341.60655
373.23478
383.63068
350.90053
203.38649
-249.43249
-868.72309
-999.42602
-1037.3044
-1036.3789
-954.523
-906.47143
-879.46832
-751.77041
-679.77649
-475.33938
-236.42863
20.448917
453.28048
1038.4009
1838.9558
2667.8098
3288.1556
3317.2608
3072.4535
2748.8511
2438.9225
2172.3242
1954.3542
1780.1512
1642.3105
1533.7692
1448.6682
1382.4355
1331.5808
1293.4192
1266.061
1248.9467
1242.3682
14.11301
35.253282
57.599662
79.855601
102.56295
125.95589
150.01599
174.33497
197.94309
218.78814
232.42948
231.06949
204.57463
140.80201
-7.1824013
-321.8326
-671.20783
-801.55903
-852.80879
-860.1459
-816.76885
-765.41271
-702.44566
-596.89389
-481.97974
-295.4765
-68.175735
213.55675
612.58425
1132.1632
1769.0372
2400.0199
2844.1068
2927.4226
2800.7342
2583.2491
2350.0379
2134.4595
1948.2663
1793.2686
1666.7789
1564.8085
1483.4131
1419.1917
1369.3654
1331.6818
1304.5149
1287.463
1280.8996
23.705546
46.139558
69.597728
92.755754
116.31789
140.39302
164.78514
188.82427
211.12088
229.00647
237.6287
229.52563
195.24804
119.97434
-29.55462
-273.1115
-513.59501
-639.83975
-697.21395
-705.96972
-676.20082
-627.49711
-555.3624
-451.69075
-320.75439
-138.63398
84.005528
361.41956
722.85563
1170.4442
1683.8349
2173.1209
2513.0064
2619.1066
2564.7788
2424.0633
2252.7478
2082.4863
1927.3903
1792.9489
1679.7555
1586.2627
1510.2116
1449.3203
1401.5403
1365.0922
1338.6531
1321.9962
1315.5751
11.224148
28.589466
48.13189
67.54786
86.911351
106.08445
124.73404
142.14904
157.02189
167.02639
168.34354
155.55467
121.71551
54.523309
-66.540891
-240.56754
-407.0005
-510.99059
-562.98408
-571.88337
-546.43582
-496.96882
-421.97245
-318.24104
-183.51382
-7.3826172
208.09342
472.02718
797.23093
1180.956
1599.0081
1985.9451
2258.7625
2372.4156
2362.9287
2276.9649
2154.7082
2023.1362
1896.8001
1782.7141
1683.5859
1599.6592
1530.045
1473.4466
1428.501
1393.8997
1368.6336
1352.6518
1346.481
21.238526
39.971038
59.630072
78.535212
96.956372
114.60116
130.91925
144.96347
155.20836
159.26678
153.74723
134.5141
96.394653
31.048667
-71.03735
-201.57692
-323.28566
-405.87486
-448.47909
-454.66
-429.87505
-379.38347
-303.04363
-199.25163
-65.255085
103.84272
308.68453
554.31051
845.08155
1174.7288
1519.9364
1833.0822
2059.7203
2173.3597
2191.7751
2144.6301
2060.603
1961.3072
1860.4725
1765.5642
1680.4205
1606.4954
1543.9391
1492.2675
1450.7209
1418.4282
1394.6833
1379.6006
1373.7671
11.077552
26.407646
43.617258
60.462846
76.812974
92.288053
106.32716
118.03334
126.01478
128.19235
121.75983
103.35941
68.889061
12.820671
-68.399925
-165.60263
-255.20737
-318.32723
-350.42053
-351.95865
-325.68558
-274.19626
-197.60069
-94.884247
35.963029
197.32597
389.98447
615.96267
875.13709
1159.5267
1448.6758
1707.9322
1901.147
2011.2858
2047.0373
2027.4035
1972.7978
1900.0883
1821.3332
1743.9304
1672.1339
1608.1598
1552.8997
1506.5035
1468.7158
1439.0513
1417.0809
1403.0644
1397.6338
16.781073
32.102563
48.244907
63.491742
77.870374
90.971348
102.20702
110.71243
115.24846
114.11765
105.21241
86.13601
54.072389
5.9271002
-58.654933
-131.68024
-197.7988
-244.38049
-266.29135
-262.38454
-233.56987
-180.96866
-104.63102
-3.889687
122.4669
275.50651
455.42445
662.18902
893.27987
1140.2472
1385.9478
1605.0947
1773.1509
1878.3622
1924.7881
1924.6828
1892.5807
1841.5094
1781.5778
1719.7387
1660.3078
1605.8907
1557.8693
1516.8623
1483.0158
1456.1704
1436.1391
1423.3022
1418.32
11.211675
24.663627
39.434222
53.54287
66.795302
78.734863
88.772544
96.09236
99.588948
97.845041
89.213718
71.936774
44.181266
4.5316529
-45.8083
-100.27542
-148.37305
-181.1244
-193.73806
-184.30139
-152.62084
-98.95519
-23.22531
74.977071
196.22443
340.75791
508.09762
696.91322
903.50259
1119.7028
1331.4684
1520.1904
1668.7618
1768.6476
1821.5078
1835.2872
1820.3558
1786.7196
1742.6761
1694.4485
1646.2339
1600.7582
1559.7028
1524.0137
1494.143
1470.1963
1452.1899
1440.5976
1436.0902
13.112825
25.797505
39.250993
51.816407
63.394699
73.564547
81.793959
87.378922
89.414887
86.808969
78.365056
62.889653
39.325245
7.3136328
-31.339819
-71.393569
-105.37899
-126.67047
-131.06364
-116.39244
-81.865041
-27.252731
47.62343
142.97333
258.90762
395.1055
550.52719
723.07459
908.57369
1099.5359
1284.5713
1449.8103
1582.9846
1677.6638
1734.2535
1757.9194
1756.084
1736.4111
1705.6467
1669.1787
1630.9502
1593.667
1559.1556
1528.5736
1502.5957
1481.5347
1465.5715
1455.2465
1451.2247
10.599395
22.167615
34.644154
46.313937
56.991155
66.255483
73.613926
78.452624
80.031628
77.518407
70.072721
56.952804
37.691707
12.589005
-16.376236
-44.999065
-67.751511
-79.579538
-76.87352
-57.478687
-20.32292
35.075349
108.94094
201.3258
312.01482
440.30072
584.74853
742.85451
910.38021
1080.6564
1244.4658
1391.3083
1512.1383
1601.9731
1660.5657
1691.2724
1699.4257
1690.8928
1671.1296
1644.7259
1615.2679
1585.3661
1556.8816
1531.0962
1508.8373
1490.5747
1476.618
1467.5482
1464.0091
10.704335
21.419527
32.82394
43.381138
52.94973
61.15214
67.560344
71.665885
72.890529
70.628521
64.326669
53.588503
38.355304
19.290682
-1.6716943
-21.127449
-34.850053
-38.868673
-30.123805
-6.5950723
32.879337
88.888333
161.65775
251.11257
356.8098
477.78205
612.34803
757.83663
910.16765
1063.4975
1210.3403
1342.6055
1453.4453
1538.9074
1598.4146
1634.1332
1649.9097
1650.2419
1639.5315
1621.6589
1599.8156
1576.4641
1553.4358
1532.0691
1513.2894
1497.6807
1485.6501
1477.7964
1474.727
9.5540367
19.482081
30.099331
39.908511
48.753295
56.286651
62.139142
65.898365
67.128559
65.415228
60.438437
52.069856
40.53426
26.689262
12.342353
0.29206148
-6.1299366
-3.7277141
10.088077
37.150806
78.603923
135.05525
206.70105
293.36382
394.44306
508.80464
634.63623
769.24831
908.82681
1048.2887
1181.5067
1302.128
1404.8362
1486.4303
1546.177
1585.4527
1607.0428
1614.4068
1611.0969
1600.3849
1585.0788
1567.4574
1549.288
1531.9185
1516.33
1503.1875
1492.9699
1486.2736
1483.654
9.1460704
18.380245
28.225795
37.290241
45.439969
52.367356
57.761766
61.297994
62.661261
61.591162
57.947893
51.799204
43.553905
34.156307
25.262179
19.210468
18.703023
26.361177
44.386398
74.413381
117.51174
174.25814
244.80206
328.8833
425.79436
534.30227
652.54495
777.90122
906.86123
1035.0066
1157.2658
1268.5509
1364.6321
1442.8655
1502.4548
1544.248
1570.27
1583.1959
1585.9013
1581.1456
1571.3897
1558.7173
1544.8121
1530.9995
1518.2863
1507.3931
1498.8535
1493.2455
1491.053
8.5206148
17.176482
26.422929
34.928923
42.569756
49.073407
54.183539
57.652685
59.269169
58.89832
56.54097
52.408366
47.026872
41.368236
36.941259
35.738153
40.005111
51.933654
73.409803
105.87951
150.31532
207.23787
276.74299
358.50429
451.74343
555.17585
666.94225
784.53372
904.74129
1023.7065
1137.1728
1240.9783
1331.6759
1407.0377
1466.2535
1509.8151
1539.2012
1556.4961
1564.0429
1564.1783
1559.0623
1550.5896
1540.3509
1529.6353
1519.4541
1510.566
1503.5508
1498.9584
1497.1733
8.0818818
16.237481
24.960639
32.986657
40.204701
46.375906
51.291548
54.769584
56.681957
56.992535
55.808154
53.441466
50.490152
47.921291
47.113371
49.797019
57.883203
73.240236
97.50151
131.94525
177.44308
234.45096
303.01136
382.74564
472.83011
571.95989
678.30853
789.49485
902.58414
1014.1764
1120.6386
1218.4894
1304.8502
1377.8048
1436.5531
1481.3466
1513.2716
1533.971
1545.3738
1549.4752
1548.1821
1543.2204
1536.0863
1528.026
1520.0403
1512.9118
1507.2671
1503.6319
1502.2503
7.6738815
15.437429
23.757964
31.421398
38.326856
44.265125
49.068906
52.610866
54.830233
55.767418
55.608333
54.736008
53.789487
53.716628
55.787533
61.536164
72.627051
90.686373
117.14915
153.1521
199.47363
256.50673
324.24546
402.27092
489.73176
585.3216
687.26051
793.29167
900.71565
1006.4968
1107.4728
1200.6605
1283.5931
1354.5868
1412.8614
1458.5056
1492.3257
1515.6375
1530.0536
1537.2994
1539.0744
1536.9606
1532.3675
1526.4983
1520.3353
1514.674
1510.2062
1507.4719
1506.5159
7.290428
14.753398
22.764
30.153002
36.826013
42.599571
47.340492
50.964791
53.463376
54.933962
55.619417
55.950285
56.588406
58.458599
62.745561
70.83804
84.221673
104.34441
132.48997
169.68172
216.61901
273.63969
340.69709
417.3422
502.70755
595.49486
693.97243
795.9925
899.04593
1000.3763
1097.168
1186.7966
1267.0902
1336.5346
1394.3717
1440.5816
1475.7739
1501.028
1517.7218
1527.3754
1531.5264
1531.641
1529.0578
1524.9456
1520.2688
1515.8257
1512.3883
1510.5885
1510.196
6.9081365
14.222695
22.035088
29.24346
35.760605
41.427786
46.13983
49.846163
52.576079
54.468322
55.805079
57.047857
58.870067
62.175073
68.083377
77.879565
92.924883
114.54292
143.9082
181.9595
229.33496
286.32889
352.86328
428.46783
512.26651
602.97233
698.89574
797.97576
897.84657
995.95391
1089.7265
1176.788
1255.1695
1323.4758
1380.968
1427.5558
1463.7156
1490.363
1508.7096
1520.1273
1526.0344
1527.8102
1526.7385
1523.962
1520.4289
1516.9079
1514.2196
1513.2465
1513.6292
6.4003047
13.76409
21.481821
28.592214
35.017174
40.622799
45.325345
49.09726
51.992865
54.176855
55.955703
57.808801
60.414012
64.657995
71.619186
82.517432
98.639255
121.22893
151.38666
189.9948
237.64995
294.61662
360.79564
435.70315
518.45886
607.78541
702.0237
799.1722
896.96028
992.9647
1084.7697
1170.1548
1247.2792
1314.8231
1372.0616
1418.8623
1455.619
1483.1437
1502.5416
1515.0881
1522.1232
1524.9667
1524.8619
1522.9369
1520.133
1517.1641
1514.8458
1514.6613
1516.9516
5.1793241
13.424056
21.184904
28.280835
34.669096
40.247903
44.948054
48.75452
51.734328
54.065203
56.065754
58.224406
61.22166
65.93739
73.433652
84.903143
101.57855
124.65613
155.21016
194.09631
241.89063
298.84252
364.84201
439.39834
521.6292
610.26241
703.65472
799.8351
896.58109
991.53503
1082.3582
1166.9073
1243.4043
1310.5674
1367.6795
1414.5883
1451.6476
1479.6191
1499.5559
1512.6866
1520.3087
1523.7109
1524.1233
1522.6775
1520.3251
1517.7389
1515.7004
1516.4691
1522.4082
-2315.9888
-2627.2927
-2885.8941
-3103.3098
-3277.8369
-3391.8033
-3428.9986
-3372.6932
-3212.249
-2990.9847
-3400.2123
-3401.0397
-3404.4014
-3412.031
-3416.6255
-3419.8234
-3422.966
-3417.3834
-3428.1931
-3411.5772
-3263.3027
-3262.3449
-3257.4158
-3249.8
-3237.8448
-3225.1567
-3215.3053
-3213.7162
-3226.8565
-3200.5277
-3181.5136
-3180.0195
-3168.6594
-3151.2266
-3129.6588
-3109.8816
-3088.3624
-3102.5066
-3121.5711
-3119.1798
-3131.8891
-3129.1441
-3117.1421
-3100.2314
-3081.3962
-3070.7724
-3046.5465
-3057.3325
-3074.5686
-3103.968
-3079.2614
-3076.5054
-3067.3929
-3055.4377
-3041.9864
-3040.0699
-3028.4421
-3025.254
-3028.0689
-3050.3767
-3007.4763
-3007.2896
-3001.871
-2991.5187
-2975.4525
-2949.1364
-2967.8541
-2971.1328
-2964.7367
-2954.8799
-2975.4622
-2976.3653
-2978.197
-2978.6284
-2984.3458
-2956.2676
-2961.9187
-2963.5576
-2955.0905
-2936.599
-3769.0032
-3772.325
-3740.4249
-3697.9315
-3663.3299
-3634.4523
-3614.9426
-3602.4751
-3594.3124
-3596.5569
-2964.9169
-2963.6948
-2957.4553
-2944.8249
-2938.0967
-2949.9475
-2946.0542
-2936.1494
-2918.6613
-2889.1801
-2924.1864
-2924.2445
-2919.3888
-2907.0711
-2866.2034
-2892.5436
-2906.8408
-2913.0971
-2912.3075
-2909.1046
-2942.8577
-2946.4005
-2953.6763
-2976.6185
-2955.2892
-2942.3556
-2938.7836
-2936.2284
-2930.4088
-2924.6948
-2969.2744
-2969.837
-2969.4175
-2984.9407
-3004.8713
-2985.1513
-2965.0376
-2954.6835
-2949.3593
-2956.5395
-2927.7472
-2925.461
-2908.2854
-2873.7405
-2899.7488
-2919.2877
-2932.553
-2943.5486
-2952.1763
-2968.9858
-2973.9087
-2977.6233
-2987.9375
-2958.0532
-2955.2172
-2962.1759
-2968.8406
-2973.6043
-2973.5196
-2968.8223
-3062.2298
-3066.1479
-3087.8022
-3096.5542
-3070.4028
-3044.419
-3029.3447
-3023.4165
-3022.3237
-3032.669
-3005.258
-2996.3007
-2976.862
-2999.2002
-3016.6589
-3029.6829
-3041.1924
-3052.272
-3062.082
-3077.7932
-3088.6102
-3091.5916
-3060.532
-3066.4541
-3080.5817
-3094.7778
-3106.8029
-3116.6317
-3121.5201
-3121.7477
-3283.7492
-3301.8762
-3300.5026
-3271.5989
-3241.5262
-3220.8732
-3209.9875
-3207.4283
-3208.6502
-3219.9154
-3250.5731
-3246.7961
-3262.2259
-3265.1807
-3264.6436
-3265.2263
-3269.2595
-3277.2277
-3286.81
-3306.2818
-3258.6567
-3238.5379
-3254.3164
-3278.2489
-3304.1032
-3326.1642
-3344.5092
-3359.2872
-3369.2527
-3383.6115
-3528.6691
-3512.6512
-3500.3545
-3489.665
-3485.3987
-3482.3397
-3481.3462
-3481.1526
-3479.1446
-3478.5652
-2986.308
-2986.7005
-2990.0291
-2995.4292
-3016.8357
-3018.7806
-3000.8581
-2980.974
-2965.6222
-2966.3342
-3964.6092
-3974.201
-3982.8641
-4035.6845
-4102.1158
-4171.4829
-4210.2994
-4208.6927
-4141.0258
-3983.3294
-3580.8912
-3585.1046
-3596.5872
-3619.6925
-3640.3835
-3659.1717
-3670.7235
-3669.7654
-3665.3868
-3617.6239
-3441.2135
-3513.7997
-3591.3301
-3718.4244
-3855.4673
-3969.7761
-4025.7023
-4011.0895
-3900.2674
-3675.2154
-3923.1692
-3939.8323
-3963.8286
-4013.2019
-4061.7242
-4111.1061
-4140.3632
-4143.7726
-4104.1073
-3991.9591
-3766.7216
-3777.0401
-3797.8629
-3837.4341
-3874.4231
-3909.9312
-3931.0294
-3934.4423
-3919.5894
-3861.873
11270.358
10665.976
10080.811
9442.3181
8786.6021
8134.7745
7501.8777
6894.8195
6306.5909
5730.9166
8220.1632
8145.999
8027.1133
7769.3418
7435.1296
7048.1196
6629.6125
6197.4821
5761.9712
5307.9182
-3712.4255
-3731.4435
-3731.2913
-3717.8463
-3709.2162
-3699.8688
-3695.4759
-3693.1956
-3691.3664
-3693.3458
-3634.2683
-3641.7088
-3673.9544
-3700.2869
-3732.2977
-3754.6714
-3774.9493
-3789.3531
-3797.8213
-3802.8421
-3777.8011
-3775.3427
-3802.0931
-3822.2513
-3859.1176
-3885.4051
-3911.0093
-3929.2742
-3939.3438
-3939.1907
-4052.5636
-4042.4085
-4059.3317
-4057.6066
-4080.9268
-4091.8174
-4106.1294
-4114.8893
-4118.3431
-4120.7624
-4370.8705
-4354.1312
-4368.1365
-4347.0816
-4356.3389
-4346.4864
-4341.4184
-4329.2773
-4309.1386
-4284.2396
-4728.3719
-4702.2466
-4713.8824
-4672.7386
-4668.7348
-4637.237
-4610.9419
-4574.8348
-4527.4187
-4474.6426
-5113.3871
-5075.9308
-5086.2725
-5024.0382
-5008.0415
-4955.9953
-4910.2325
-4853.2831
-4783.69
-4705.3701
-5520.0449
-5468.8202
-5479.0928
-5394.088
-5366.137
-5293.1296
-5227.2947
-5150.5539
-5066.4732
-4990.2197
-5948.3599
-5879.9557
-5891.0409
-5780.6104
-5739.493
-5643.6378
-5553.4878
-5448.4967
-5328.5198
-5198.649
-6397.8875
-6308.397
-6321.8824
-6183.4519
-6128.1869
-6009.3277
-5894.9392
-5765.368
-5620.7009
-5464.3429
-6874.3671
-6757.741
-6774.4051
-6603.8851
-6531.4884
-6387.5057
-6245.0612
-6086.9684
-5913.0286
-5732.2084
-7376.4848
-7226.6954
-7249.559
-7043.9107
-6951.3625
-6780.5963
-6606.0706
-6413.8541
-6199.5254
-5966.9179
-7922.3262
-7728.0965
-7757.641