/*--------------------------------*- C++ -*----------------------------------*\
| =========                 |                                                 |
| \\      /  F ield         | foam-extend: Open Source CFD                    |
|  \\    /   O peration     | Version:     4.1                                |
|   \\  /    A nd           | Web:         http://www.foam-extend.org         |
|    \\/     M anipulation  |                                                 |
\*---------------------------------------------------------------------------*/
FoamFile
{
    version     2.0;
    format      ascii;
    class       surfaceScalarField;
    location    "0.2";
    object      phi;
}
// * * * * * * * * * * * * * * * * * * * * * * * * * * * * * * * * * * * * * //

dimensions      [0 3 -1 0 0 0 0];

internalField   nonuniform List<scalar> 
8438
(
-0.59818969
0.001696943
-0.59994993
0.0017602368
-0.60174303
0.001793105
-0.60357797
0.0018349367
-0.6054644
0.0018864326
-0.60741261
0.0019482116
-0.60943178
0.0020191693
-0.61152921
0.0020974295
-0.61370961
0.0021804002
-0.6159744
0.0022647906
-0.61832101
0.0023466135
-0.62074224
0.0024212298
-0.62322571
0.0024834646
-0.62575353
0.0025278178
-0.62830229
0.0025487636
-0.63084343
0.002541139
-0.63334389
0.0025004616
-0.63576712
0.0024232306
-0.63807416
0.0023070353
-0.64022466
0.0021505037
-0.64217783
0.0019531703
-0.64389315
0.0017153259
-0.64533111
0.0014379512
-0.64645391
0.0011228089
-0.64722667
0.00077275172
-0.64761891
0.00039224296
-0.64760662
-1.2290124e-05
-0.64717365
-0.00043296797
-0.64631603
-0.00085761587
-0.64504591
-0.0012701205
-0.64339223
-0.0016536798
-0.64140067
-0.0019915593
-0.63913158
-0.00226909
-0.63665602
-0.0024755616
-0.63405059
-0.0026054326
-0.63139201
-0.0026585775
-0.62875237
-0.002639641
-0.62619556
-0.0025568092
-0.6237752
-0.0024203596
-0.6215339
-0.0022412991
-0.61950362
-0.0020302807
-0.61770676
-0.0017968591
-0.6161577
-0.0015490642
-0.61486439
-0.0012933148
-0.6138295
-0.0010348903
-0.6130509
-0.00077859689
-0.61252449
-0.00052640577
-0.61225535
-0.00026914299
-1.0399984e-05
-0.61197707
0.0031857236
-0.61345747
0.0032406391
-0.61496304
0.0032986786
-0.61650698
0.0033788765
-0.61810165
0.003481096
-0.61975809
0.0036046581
-0.62148595
0.0037470282
-0.62329288
0.0039043595
-0.62518394
0.0040714555
-0.62716088
0.0042417308
-0.62922145
0.0044071912
-0.63135873
0.0045585071
-0.6335605
0.0046852385
-0.63580894
0.0047762541
-0.63808052
0.0048203453
-0.64034641
0.0048070255
-0.64257315
0.0047272041
-0.64472373
0.0045738106
-0.64675871
0.0043420164
-0.64863732
0.004029115
-0.65031837
0.0036342228
-0.65176099
0.0031579397
-0.65292523
0.0026021892
-0.65377281
0.0019703948
-0.65426814
0.0012680847
-0.65437982
0.00050391761
-0.65408303
-0.00030908241
-0.6533635
-0.0011524949
-0.65221899
-0.0020021295
-0.65066068
-0.0028284223
-0.64871664
-0.0035977213
-0.6464322
-0.0042760055
-0.64386801
-0.0048332775
-0.64109594
-0.0052476253
-0.63819361
-0.0055077692
-0.63523863
-0.0056135525
-0.63230372
-0.0055745575
-0.629453
-0.0054075237
-0.62674002
-0.0051333423
-0.62420705
-0.0047742678
-0.62188561
-0.004351722
-0.61979766
-0.0038848092
-0.61795722
-0.0033895009
-0.61637203
-0.0028785038
-0.61504502
-0.0023619065
-0.6139761
-0.0018475193
-0.61316436
-0.0013381413
-0.61260147
-0.00083203252
-0.00036707124
-0.61303089
0.0046233221
-0.61446465
0.0046744027
-0.61592131
0.0047553408
-0.61741583
0.0048733886
-0.61896142
0.0050266924
-0.62056977
0.0052130101
-0.62225101
0.0054282618
-0.62401329
0.005666642
-0.62586224
0.0059204069
-0.62780024
0.0061797334
-0.62982569
0.0064326431
-0.63193227
0.0066650807
-0.63410826
0.006861229
-0.63633614
0.007004133
-0.63859244
0.0070766489
-0.64084812
0.0070627055
-0.64306932
0.0069483992
-0.6452185
0.0067229913
-0.64725573
0.0063792494
-0.64913983
0.0059132175
-0.65082928
0.0053236754
-0.65228287
0.0046115311
-0.65346019
0.0037795069
-0.65432217
0.0028323711
-0.65483194
0.0017778606
-0.65495633
0.00062830805
-0.65466809
-0.00059732138
-0.6539486
-0.0018719921
-0.65279137
-0.0031593598
-0.65120584
-0.0044139486
-0.6492199
-0.0055836587
-0.64688055
-0.0066153571
-0.6442518
-0.0074620273
-0.64140998
-0.0080894441
-0.63843744
-0.0084803073
-0.63541606
-0.0086349363
-0.63242172
-0.0085688949
-0.62952051
-0.0083087379
-0.62676667
-0.0078871764
-0.62420225
-0.0073386885
-0.62185784
-0.0066961368
-0.6197541
-0.0059885495
-0.61790362
-0.0052399813
-0.61631275
-0.0044693731
-0.6149835
-0.0036911608
-0.61391569
-0.0029153228
-0.61310722
-0.0021466166
-0.61254949
-0.0013897556
-0.00067161604
-0.61339595
0.0060311991
-0.61480911
0.0060875648
-0.61624587
0.0061921033
-0.6177212
0.006348714
-0.61924881
0.0065543026
-0.6208411
0.0068052974
-0.62250897
0.0070961394
-0.62426146
0.0074191338
-0.62610511
0.007764054
-0.62804325
0.0081178673
-0.63007517
0.008464571
-0.63219533
0.0087852423
-0.63439252
0.0090584173
-0.6366493
0.009260915
-0.63894181
0.0093691581
-0.64124009
0.0093609856
-0.64350898
0.0092172886
-0.64570946
0.0089234725
-0.64780015
0.0084699362
-0.64973859
0.0078516609
-0.65148222
0.007067301
-0.65298886
0.0061181726
-0.65421703
0.005007678
-0.6551262
0.0037415412
-0.65567741
0.0023290678
-0.65583457
0.00078547123
-0.65556676
-0.00086513452
-0.65485138
-0.0025873714
-0.6536783
-0.0043324433
-0.65205436
-0.0060378829
-0.65000709
-0.0076309268
-0.64758601
-0.0090364415
-0.64486041
-0.010187628
-0.64191371
-0.011036138
-0.6388358
-0.011558223
-0.63571519
-0.011755542
-0.63263273
-0.011651357
-0.6296574
-0.011284069
-0.62684447
-0.01070011
-0.62423547
-0.0099476858
-0.62185949
-0.0090721134
-0.61973515
-0.0081128921
-0.6178728
-0.0071023355
-0.61627669
-0.0060654756
-0.61494717
-0.0050206888
-0.61388248
-0.003980011
-0.61307865
-0.0029504397
-0.61253025
-0.0019381607
-0.00095691531
-0.61383077
0.0074119213
-0.61522066
0.0074774563
-0.61663515
0.007606597
-0.61808943
0.0078029924
-0.61959773
0.0080626031
-0.62117325
0.0083808174
-0.62282787
0.0087507612
-0.62457173
0.0091629919
-0.62641259
0.0096049122
-0.62835506
0.010060337
-0.63039968
0.010509196
-0.63254196
0.010927519
-0.63477137
0.01128783
-0.63707062
0.011560163
-0.63941525
0.011713792
-0.641774
0.011719738
-0.64410983
0.011553118
-0.6463816
0.011195236
-0.64854588
0.010634222
-0.65055856
0.0098643366
-0.65237574
0.0088844869
-0.65395418
0.0076966098
-0.65525118
0.0063046735
-0.65622447
0.004714836
-0.65683247
0.0029370634
-0.65703527
0.0009882793
-0.65679699
-0.001103415
-0.65608938
-0.0032949872
-0.65489674
-0.0055250818
-0.65322187
-0.0077127542
-0.65109138
-0.0097614133
-0.64855819
-0.011569634
-0.64569914
-0.013046672
-0.64260793
-0.014127354
-0.63938523
-0.014780925
-0.63612899
-0.015011774
-0.63292688
-0.01485347
-0.6298517
-0.014359247
-0.62695984
-0.013591974
-0.62429186
-0.012615666
-0.62187453
-0.011489438
-0.61972349
-0.010263938
-0.61784595
-0.0089798789
-0.6162433
-0.007668119
-0.61491347
-0.0063505164
-0.61385259
-0.0050408941
-0.61305536
-0.0037476711
-0.61251783
-0.0024756901
-0.0012299472
-0.61438065
0.0087602473
-0.6157408
0.0088376087
-0.61712698
0.0089927806
-0.61855456
0.0092305724
-0.62003838
0.0095464179
-0.62159255
0.0099349901
-0.62323013
0.010388342
-0.62496264
0.010895501
-0.62679941
0.011441679
-0.62874672
0.012007646
-0.63080677
0.012569249
-0.63297651
0.013097263
-0.63524643
0.013557752
-0.6375995
0.013913224
-0.64001054
0.014124833
-0.64244654
0.014155741
-0.64486791
0.013974492
-0.64723063
0.013557949
-0.64948858
0.012892173
-0.6515955
0.011971255
-0.65350599
0.010794978
-0.65517565
0.0093662745
-0.65656056
0.0076895856
-0.65761655
0.005770823
-0.65829885
0.0036193599
-0.65856274
0.001252171
-0.6583658
-0.0013003489
-0.65767209
-0.0039886983
-0.65645802
-0.0067391561
-0.65472024
-0.0094505358
-0.6524835
-0.011998146
-0.64980501
-0.014248123
-0.64677201
-0.01607968
-0.64349243
-0.01740693
-0.64008191
-0.018191448
-0.63665115
-0.018442536
-0.6332967
-0.018207919
-0.63009604
-0.0175599
-0.62710653
-0.016581491
-0.62436695
-0.015355247
-0.62190063
-0.013955756
-0.61971898
-0.012445582
-0.61782494
-0.010873925
-0.61621596
-0.0092770978
-0.61488658
-0.0076798973
-0.61383011
-0.006097364
-0.61303962
-0.0045381629
-0.61251081
-0.0030045008
-0.0014958046
-0.61504882
0.010072454
-0.61637327
0.010162057
-0.61772472
0.01034423
-0.61911928
0.010625128
-0.6205726
0.010999737
-0.6220999
0.011462291
-0.62371561
0.01200406
-0.62543295
0.012612834
-0.62726317
0.0132719
-0.62921468
0.013959162
-0.63129185
0.014646416
-0.63349357
0.01529898
-0.63581174
0.015875927
-0.63822983
0.016331308
-0.64072184
0.016616842
-0.64325249
0.016686396
-0.64577879
0.016500791
-0.64825285
0.016032007
-0.65062505
0.015264376
-0.65284651
0.014192715
-0.6548702
0.012818669
-0.65665073
0.011146808
-0.65814318
0.0091820293
-0.65930151
0.0069291516
-0.66007743
0.0043952826
-0.6604204
0.001595147
-0.6602797
-0.0014410476
-0.65960912
-0.0046592858
-0.65837402
-0.0079742575
-0.65656189
-0.011262657
-0.65419395
-0.014366093
-0.6513325
-0.017109566
-0.6480788
-0.01933338
-0.64456036
-0.020925371
-0.64091306
-0.021838754
-0.63726443
-0.022091164
-0.63372227
-0.021750081
-0.63036941
-0.020912754
-0.62726365
-0.019687249
-0.62444082
-0.018178085
-0.6219193
-0.016477271
-0.61970485
-0.014660039
-0.61779478
-0.012783993
-0.61618155
-0.010890331
-0.6148554
-0.0090060409
-0.61380622
-0.007146543
-0.61302475
-0.0053196368
-0.61250493
-0.0035243177
-0.0017557888
-0.61582976
0.011339979
-0.61711117
0.011443469
-0.61842104
0.0116541
-0.61977592
0.011980013
-0.62119236
0.012416176
-0.62268681
0.012956733
-0.62427529
0.013592541
-0.62597299
0.014310538
-0.62779354
0.015092453
-0.629748
0.015913614
-0.63184345
0.016741874
-0.6340814
0.017536924
-0.63645573
0.018250261
-0.63895075
0.018826329
-0.64153959
0.019205679
-0.64418407
0.019330872
-0.64683666
0.019153379
-0.64944432
0.018639675
-0.6519529
0.017772951
-0.65431033
0.01655015
-0.65646798
0.014976315
-0.65837987
0.013058702
-0.66000063
0.010802785
-0.66128276
0.0082112783
-0.66217432
0.0052868431
-0.662618
0.0020388286
-0.66255276
-0.0015062831
-0.66191903
-0.0052930156
-0.660667
-0.0092262934
-0.65877059
-0.013159066
-0.65624455
-0.016892126
-0.65315704
-0.020197077
-0.64962808
-0.022862341
-0.64581195
-0.024741502
-0.64187183
-0.025778879
-0.63795718
-0.026005811
-0.63418958
-0.025517679
-0.63065757
-0.024444764
-0.62741825
-0.02292657
-0.62450261
-0.021093731
-0.62192208
-0.019057798
-0.61967486
-0.016907263
-0.61775111
-0.014707738
-0.61613705
-0.012504391
-0.61481778
-0.010325313
-0.61377916
-0.0081851586
-0.61300907
-0.0060897297
-0.61249909
-0.0040342962
-0.0020100809
-0.61672445
0.012559424
-0.61795679
0.01267581
-0.61921814
0.01291545
-0.62052623
0.013288105
-0.62189869
0.013788636
-0.62335336
0.014411404
-0.62490809
0.015147274
-0.62658038
0.015982825
-0.62838666
0.016898731
-0.63034122
0.017868173
-0.63245465
0.018855302
-0.63473182
0.019814094
-0.63716943
0.02068787
-0.6397532
0.0214101
-0.64245541
0.021907897
-0.64523425
0.022109711
-0.64803617
0.021955297
-0.65080125
0.021404754
-0.65346937
0.02044107
-0.65598471
0.01906549
-0.6582972
0.017288813
-0.66036111
0.015122605
-0.6621316
0.012573278
-0.66356058
0.0096402597
-0.66459271
0.0063189744
-0.66516311
0.0026092227
-0.66519818
-0.0014712052
-0.66462118
-0.005870016
-0.6633616
-0.010485872
-0.66137342
-0.015147248
-0.65866013
-0.019605417
-0.65529592
-0.023561281
-0.65142613
-0.026732135
-0.64724189
-0.028925739
-0.64294325
-0.030077522
-0.63870805
-0.030241014
-0.63467434
-0.029551382
-0.63093612
-0.028182985
-0.62754778
-0.026314911
-0.62453275
-0.024108768
-0.62189279
-0.021697754
-0.61961622
-0.01918383
-0.61768425
-0.016639713
-0.61607549
-0.014113151
-0.61476897
-0.011631829
-0.61374595
-0.0092081826
-0.61299091
-0.0068447669
-0.6124928
-0.00453241
-0.0022579288
-0.61772644
0.01371861
-0.61890083
0.013850198
-0.62010579
0.014120411
-0.62135934
0.014541653
-0.62268008
0.015109376
-0.62408731
0.015818635
-0.62560089
0.016660851
-0.62724093
0.017622866
-0.62902717
0.018684978
-0.63097785
0.019818844
-0.63310789
0.020985345
-0.6354266
0.022132806
-0.63793455
0.023195825
-0.6406198
0.024095343
-0.64345399
0.024742093
-0.64639074
0.025046462
-0.64936845
0.024933003
-0.65231783
0.02435413
-0.65517088
0.023294127
-0.65786728
0.021761886
-0.660356
0.019777533
-0.66259281
0.017359416
-0.66453514
0.014515608
-0.6661358
0.011240924
-0.66733687
0.007520041
-0.66806538
0.0033377307
-0.66823285
-0.0013037344
-0.66774076
-0.0063621065
-0.66649077
-0.011735863
-0.66440766
-0.017230352
-0.66147574
-0.022537338
-0.65777444
-0.027262583
-0.65348342
-0.031023159
-0.64884524
-0.033563913
-0.64411004
-0.034812731
-0.63949216
-0.034858888
-0.63514879
-0.03389475
-0.63117801
-0.032153765
-0.62762813
-0.029864795
-0.62451109
-0.027225811
-0.62181543
-0.024393418
-0.61951673
-0.021482523
-0.61758517
-0.018571275
-0.61599039
-0.015707932
-0.61470447
-0.012917746
-0.61370352
-0.010209136
-0.61296831
-0.0075799783
-0.612485
-0.005015716
-0.0024979813
-0.61883442
0.014816946
-0.6199453
0.014961084
-0.62108655
0.015261662
-0.6222777
0.015732795
-0.62353852
0.016370201
-0.62488988
0.017169995
-0.62635379
0.018124757
-0.62795329
0.019222368
-0.62971194
0.020443633
-0.63165267
0.021759572
-0.63379583
0.023128499
-0.63615642
0.0244934
-0.63874038
0.025779788
-0.64153946
0.026894419
-0.64452528
0.027727917
-0.64764584
0.028167022
-0.65082867
0.028115834
-0.65399162
0.027517081
-0.65705616
0.026358663
-0.65995656
0.024662286
-0.66264178
0.022462751
-0.66507117
0.019788807
-0.66720694
0.016651384
-0.66900526
0.013039242
-0.67040718
0.0089219588
-0.67133163
0.0042621823
-0.67167289
-0.00096247473
-0.67130517
-0.0067298212
-0.67009318
-0.012947857
-0.66791935
-0.019404177
-0.66473573
-0.025720957
-0.66062394
-0.03137438
-0.65581077
-0.035836332
-0.65061187
-0.038762809
-0.64534601
-0.040078594
-0.64027435
-0.039930544
-0.63557523
-0.038593873
-0.63134764
-0.03638135
-0.62762842
-0.033584018
-0.62441249
-0.030441742
-0.62167052
-0.02713539
-0.61936196
-0.023791084
-0.61744362
-0.020489609
-0.61587478
-0.017276776
-0.61461978
-0.014172749
-0.61364917
-0.011179749
-0.61293984
-0.0082893095
-0.6124752
-0.0054803549
-0.002728378
-0.62004396
0.015836798
-0.62108011
0.015997231
-0.6221483
0.016329852
-0.62326771
0.016852207
-0.62445894
0.017561425
-0.62574429
0.01845535
-0.62714803
0.019528497
-0.62869642
0.020770751
-0.63041735
0.02216457
-0.63233936
0.023681574
-0.63448945
0.025278598
-0.63689003
0.026893977
-0.63955438
0.028444138
-0.64248008
0.029820116
-0.64563998
0.030887819
-0.64897535
0.031502393
-0.65239893
0.031539411
-0.65581048
0.030928634
-0.65911697
0.029665154
-0.66224611
0.027791428
-0.66514828
0.025364912
-0.66778939
0.022429926
-0.67014008
0.019002066
-0.67216343
0.015062594
-0.67380226
0.010560792
-0.67496818
0.0054280989
-0.67553643
-0.00039422311
-0.67534753
-0.0069187182
-0.67421806
-0.014077331
-0.67196978
-0.021652458
-0.66850112
-0.029189617
-0.66388807
-0.035987427
-0.658423
-0.041301406
-0.65252785
-0.044657954
-0.64661645
-0.045989998
-0.64100953
-0.045537464
-0.63590701
-0.043696394
-0.63140255
-0.040885802
-0.62751317
-0.0374734
-0.62420913
-0.033745789
-0.62143734
-0.029907179
-0.61913713
-0.026091293
-0.61724955
-0.02237719
-0.61572215
-0.01880417
-0.61451096
-0.015383938
-0.61358079
-0.012109921
-0.61290466
-0.0089654389
-0.61246339
-0.0059216233
-0.002946822
-0.62134657
0.016782564
-0.62230365
0.016954314
-0.62329138
0.017317586
-0.6243307
0.017891518
-0.6254432
0.018673925
-0.62665265
0.019664805
-0.62798558
0.02086143
-0.62947165
0.02225682
-0.63114361
0.02383653
-0.63303648
0.025574445
-0.63518541
0.027427528
-0.63762212
0.029330685
-0.64036984
0.031191855
-0.64343504
0.032885316
-0.64679409
0.034246875
-0.6503805
0.035088795
-0.65408656
0.035245472
-0.65778618
0.034628256
-0.66136602
0.033244999
-0.66474592
0.03117133
-0.66788036
0.028499349
-0.67074658
0.02529615
-0.6733289
0.021584385
-0.6756027
0.017336391
-0.67751703
0.01247512
-0.67897799
0.0068890578
-0.67983951
0.00046729593
-0.67990228
-0.0068559394
-0.67892269
-0.015056927
-0.67663591
-0.023939232
-0.67285203
-0.032973496
-0.66762379
-0.041215668
-0.6613357
-0.047589496
-0.65456891
-0.051424743
-0.64787024
-0.052688677
-0.6416353
-0.051772398
-0.63608245
-0.049249247
-0.63128872
-0.045679531
-0.62723874
-0.041523379
-0.62386775
-0.037116783
-0.62109167
-0.032683254
-0.61882526
-0.028357704
-0.6169914
-0.02421105
-0.6155249
-0.02027067
-0.61437317
-0.016535669
-0.6134954
-0.012987693
-0.61286103
-0.0095998099
-0.61244861
-0.0063340433
-0.003150634
-0.62274692
0.017629647
-0.62361123
0.017818625
-0.62450792
0.018214275
-0.62545641
0.018840012
-0.62647852
0.019696034
-0.62759909
0.020785378
-0.62884677
0.022109106
-0.63025468
0.023664732
-0.63186085
0.0254427
-0.63370779
0.027421387
-0.63584049
0.029560229
-0.63830249
0.03179268
-0.64113038
0.034019747
-0.64434422
0.036099152
-0.64792832
0.037830981
-0.65180826
0.038968733
-0.65584826
0.039285473
-0.65988469
0.038664688
-0.66377526
0.037135563
-0.66743023
0.034826304
-0.67081237
0.031881485
-0.67391663
0.028400413
-0.67674756
0.024415319
-0.67929943
0.01988826
-0.68153387
0.014709558
-0.68335522
0.0087104029
-0.68459443
0.0017065127
-0.68500741
-0.0064429664
-0.68427742
-0.015786909
-0.6820198
-0.026196853
-0.67790084
-0.037092464
-0.67191243
-0.047204077
-0.66456912
-0.054932806
-0.65669909
-0.059294773
-0.64903676
-0.060351008
-0.64206983
-0.058739323
-0.63602455
-0.055294526
-0.63094197
-0.050762117
-0.62675585
-0.045709493
-0.62335277
-0.040519869
-0.62060907
-0.035426952
-0.61841029
-0.030556486
-0.61665911
-0.025962229
-0.61527705
-0.021652725
-0.61420316
-0.017609567
-0.61339151
-0.013799339
-0.61280857
-0.010182755
-0.61243113
-0.006711475
-0.0033368183
-0.6242095
0.018389151
-0.62497828
0.018587407
-0.62577642
0.019012416
-0.62662511
0.019688697
-0.62754661
0.020617536
-0.62856669
0.021805459
-0.62971593
0.023258345
-0.63103092
0.024979719
-0.63255525
0.026967035
-0.63433989
0.029206028
-0.63644155
0.031661884
-0.63891844
0.034269577
-0.64182465
0.036925953
-0.64520011
0.03947461
-0.64904445
0.041675322
-0.65327648
0.04320077
-0.65772086
0.043729853
-0.66215748
0.043101301
-0.666401
0.041379082
-0.6703498
0.038775106
-0.67398204
0.03551373
-0.67732048
0.031738852
-0.68039953
0.027494369
-0.68324233
0.022731055
-0.68583386
0.017301096
-0.68808489
0.010961431
-0.68980543
0.0034270507
-0.69069978
-0.0055486164
-0.69036341
-0.016123282
-0.68825272
-0.028307543
-0.68380352
-0.041541659
-0.67686916
-0.054138442
-0.66814527
-0.063656697
-0.65886007
-0.068579973
-0.65001349
-0.069197584
-0.64220178
-0.066551034
-0.63563426
-0.061862047
-0.63028391
-0.056112468
-0.62600719
-0.049986216
-0.62262461
-0.04390244
-0.61996341
-0.038088159
-0.61787558
-0.032644312
-0.61624241
-0.027595404
-0.61497245
-0.022922685
-0.6139973
-0.018584715
-0.61326704
-0.0145296
-0.61274609
-0.01070371
-0.61241028
-0.0070472794
-0.0035021495
-0.62576984
0.019027918
-0.62642726
0.019244834
-0.62711604
0.019701193
-0.62785398
0.020426639
-0.62866235
0.021425911
-0.62956699
0.022710097
-0.63059977
0.024291122
-0.63180025
0.026180201
-0.63321746
0.028384237
-0.63491134
0.03089991
-0.6369522
0.03370275
-0.63941627
0.036733644
-0.64237996
0.039889639
-0.64591179
0.043006439
-0.65003963
0.045803166
-0.65468161
0.047842744
-0.65960787
0.048656118
-0.66451334
0.048006769
-0.66914942
0.04601516
-0.67340174
0.043027425
-0.67727754
0.039389534
-0.68084277
0.035304086
-0.68417308
0.030824674
-0.6873304
0.025888375
-0.69033504
0.020305733
-0.69311368
0.013740073
-0.6954565
0.005769876
-0.69701016
-0.0039949577
-0.69727287
-0.015860573
-0.69550462
-0.030075791
-0.69078306
-0.046263227
-0.68266643
-0.062255064
-0.67208924
-0.074233891
-0.66096036
-0.079708854
-0.65065345
-0.07950449
-0.64188237
-0.075322119
-0.63478769
-0.068956724
-0.62922279
-0.061677366
-0.62493005
-0.054278956
-0.62164302
-0.04718947
-0.61913012
-0.040601061
-0.61720685
-0.034567583
-0.61573337
-0.029068889
-0.6146069
-0.024049151
-0.61375353
-0.019438088
-0.61312103
-0.015162095
-0.6126732
-0.01115154
-0.61238594
-0.0073345454
-0.0036432878
-0.62733645
0.019565495
-0.62788155
0.019789941
-0.62845288
0.020272523
-0.62906956
0.02104331
-0.62975209
0.022108444
-0.63052601
0.023484015
-0.63142403
0.025189142
-0.63248835
0.027244526
-0.63377334
0.029669223
-0.63534862
0.032475196
-0.63730045
0.035654576
-0.63972736
0.039160555
-0.64273405
0.042896331
-0.64642865
0.046701036
-0.65088822
0.050262738
-0.65604504
0.052999563
-0.66159322
0.054204301
-0.66709366
0.053507206
-0.67219857
0.051120075
-0.67677699
0.047605843
-0.68088519
0.04349773
-0.68465239
0.039071293
-0.68820725
0.034379535
-0.69166122
0.029342345
-0.6950903
0.023734806
-0.69846046
0.017110236
-0.70155609
0.0088655031
-0.70397027
-0.001580771
-0.70510079
-0.01473006
-0.70398594
-0.031190633
-0.69915917
-0.051090005
-0.68957247
-0.071841761
-0.67642608
-0.087380282
-0.66285338
-0.093281557
-0.65074316
-0.091614707
-0.6409125
-0.085152783
-0.63333165
-0.076537573
-0.62765394
-0.067355078
-0.62345887
-0.058474024
-0.62036982
-0.050278521
-0.61808856
-0.042882316
-0.61639387
-0.036262282
-0.61512754
-0.030335213
-0.61417894
-0.024997758
-0.61347172
-0.0201453
-0.61295389
-0.015679929
-0.61259043
-0.011514999
-0.61235859
-0.0075663882
-0.0037569272
-0.62899628
0.01995741
-0.62941139
0.020205052
-0.62985556
0.020716697
-0.63034177
0.021529517
-0.63088767
0.022654341
-0.63151717
0.024113515
-0.63226258
0.025934556
-0.63316738
0.028149324
-0.63428978
0.030791621
-0.63570791
0.033893327
-0.63752456
0.037471227
-0.63986416
0.041500155
-0.64286479
0.045896959
-0.64668496
0.050521212
-0.65148218
0.055059951
-0.65723678
0.058754167
-0.66354045
0.060507967
-0.66974046
0.059707219
-0.67533655
0.056716168
-0.68018374
0.052453034
-0.68443207
0.047746055
-0.68831369
0.042952918
-0.69203119
0.038097033
-0.69575887
0.033070026
-0.69965771
0.027633644
-0.70376394
0.021216465
-0.70786519
0.012966755
-0.71147601
0.0020300494
-0.71388162
-0.012324452
-0.71392063
-0.031151626
-0.70937041
-0.055640224
-0.69800711
-0.08320506
-0.68116316
-0.10422423
-0.66429684
-0.11014787
-0.64996796
-0.10594359
-0.63902527
-0.09609548
-0.63107903
-0.084483811
-0.62546139
-0.072972712
-0.62152858
-0.06240684
-0.61877194
-0.053035161
-0.61682394
-0.044830316
-0.61543133
-0.037654888
-0.61442402
-0.031342527
-0.61368925
-0.025732528
-0.61315283
-0.02068172
-0.61276623
-0.016066532
-0.61249792
-0.011783306
-0.61232799
-0.0077363135
-0.0038399717
-0.6304836
0.020228621
-0.63076898
0.020490428
-0.63107667
0.021024392
-0.63141904
0.021871878
-0.63181068
0.02304599
-0.63227286
0.024575687
-0.63283605
0.026497748
-0.63354351
0.028856782
-0.63445586
0.031703975
-0.63565869
0.03509616
-0.6372727
0.039085231
-0.63945487
0.043682326
-0.64238587
0.048827964
-0.64628698
0.054422313
-0.6514432
0.060216172
-0.65795868
0.065269647
-0.66529696
0.067846249
-0.67245069
0.066860948
-0.67867577
0.062941252
-0.68381161
0.05758887
-0.68817476
0.052109209
-0.69214946
0.046927622
-0.69602072
0.041968288
-0.70000862
0.03705793
-0.70437842
0.032003438
-0.70927387
0.026111913
-0.71450919
0.018202078
-0.71952821
0.0070490695
-0.72354287
-0.0083097923
-0.72537997
-0.029314525
-0.72188327
-0.059136925
-0.7085937
-0.096494627
-0.68624732
-0.12657061
-0.66489028
-0.13150491
-0.64786501
-0.12296886
-0.63586838
-0.10809211
-0.62781056
-0.092541628
-0.62252691
-0.078256366
-0.61908421
-0.065849534
-0.6168292
-0.055290181
-0.61533296
-0.046326555
-0.61432288
-0.038664968
-0.61362828
-0.03203713
-0.61314288
-0.026217921
-0.61280062
-0.021023983
-0.61256044
-0.016306716
-0.6123969
-0.011946848
-0.61229457
-0.0078386427
-0.0038897388
-0.63165903
0.020320332
-0.63178771
0.020619104
-0.63193981
0.021176498
-0.63211891
0.022050974
-0.63233446
0.023261541
-0.63260384
0.024845071
-0.63295441
0.026848318
-0.63342742
0.029329795
-0.63408349
0.032360038
-0.63501193
0.036024606
-0.63634776
0.04042106
-0.63828262
0.045617186
-0.64104539
0.051590728
-0.64491858
0.058295506
-0.6503601
0.065657696
-0.65774088
0.072650427
-0.66638748
0.076492841
-0.6746768
0.075150269
-0.68148317
0.069747625
-0.6866347
0.062740396
-0.69076729
0.056241799
-0.69450171
0.050662046
-0.69822653
0.045693104
-0.70217846
0.041009866
-0.70679373
0.036618708
-0.71245192
0.031770096
-0.71906716
0.024817319
-0.72612509
0.014107001
-0.73262164
-0.0018132471
-0.73757642
-0.024359742
-0.7367946
-0.059918749
-0.72213114
-0.11115809
-0.69140186
-0.1572999
-0.66390085
-0.15900593
-0.64373037
-0.14313934
-0.63097957
-0.12084291
-0.62328257
-0.10023863
-0.61874502
-0.082793917
-0.6160938
-0.06850075
-0.61454294
-0.056841044
-0.61362897
-0.047240522
-0.61308384
-0.039210098
-0.6127536
-0.032367368
-0.6125499
-0.026421619
-0.61242201
-0.02115188
-0.61234082
-0.016387906
-0.61228971
-0.011997955
-0.61225938
-0.0078689691
-0.0039041737
-0.63123857
0.02021626
-0.63118471
0.02056524
-0.6311477
0.021139492
-0.63112482
0.022028098
-0.63111913
0.023255851
-0.6311417
0.024867641
-0.63121285
0.026919466
-0.6313664
0.029483337
-0.63165587
0.032649512
-0.632165
0.036533737
-0.63303218
0.04128824
-0.6344822
0.047067203
-0.63680816
0.05391669
-0.64035487
0.061842218
-0.64579444
0.071097265
-0.65405746
0.080913445
-0.66444629
0.086881672
-0.67421141
0.084915388
-0.68164718
0.077183392
-0.6865408
0.067634021
-0.69015254
0.059853544
-0.69345749
0.053966994
-0.69698432
0.04921993
-0.70089116
0.044916713
-0.70581169
0.041539228
-0.7125327
0.038491112
-0.7209145
0.033199112
-0.73074608
0.023938578
-0.7400183
0.0074589771
-0.74871108
-0.015666962
-0.75251342
-0.056116409
-0.73895261
-0.12471889
-0.69526071
-0.20099181
-0.65975713
-0.19450951
-0.63649616
-0.16640031
-0.62378299
-0.13355608
-0.61725531
-0.10676631
-0.61405024
-0.085998991
-0.61256627
-0.069984719
-0.61194567
-0.05746165
-0.61174617
-0.047440021
-0.61174248
-0.039213787
-0.61182082
-0.03228903
-0.61192444
-0.026317998
-0.6120258
-0.021050524
-0.61211222
-0.016301479
-0.61217848
-0.011931702
-0.61222284
-0.0078246106
-0.0038820592
-0.62728344
0.019848988
-0.62697464
0.020256439
-0.62666457
0.020829424
-0.62634534
0.02170887
-0.62601227
0.022922779
-0.62566767
0.024523034
-0.62532109
0.026572888
-0.62499417
0.029156419
-0.62472828
0.032383624
-0.62459568
0.036401134
-0.62472853
0.041421093
-0.62538036
0.047719032
-0.62693518
0.05547151
-0.62979727
0.064704308
-0.6347842
0.07608419
-0.64381382
0.089943064
-0.65659889
0.099666747
-0.66807927
0.096395764
-0.67578272
0.084886841
-0.67934685
0.071198152
-0.68138615
0.061892841
-0.68335552
0.055936364
-0.68596239
0.051826801
-0.68903394
0.047988257
-0.69311679
0.045622079
-0.70006275
0.045437075
-0.70915462
0.042290975
-0.72191377
0.036697728
-0.73347717
0.019022374
-0.74792356
-0.0012205677
-0.76065573
-0.043384245
-0.75750386
-0.12787076
-0.69341386
-0.26508181
-0.64998433
-0.23793904
-0.62483571
-0.19154892
-0.61366038
-0.14473142
-0.60955755
-0.11086914
-0.60846446
-0.087092086
-0.60857873
-0.069870441
-0.60911462
-0.056925765
-0.60974587
-0.046808766
-0.61034293
-0.038616731
-0.6108599
-0.031772056
-0.61128589
-0.025892016
-0.61162382
-0.020712589
-0.61188126
-0.016044037
-0.61206633
-0.011746636
-0.61218594
-0.0077050052
-0.0038231948
-0.61365375
0.018976741
-0.6128774
0.019480095
-0.61208192
0.020033938
-0.61124346
0.020870411
-0.61034605
0.022025376
-0.60937903
0.023556011
-0.60833465
0.025528507
-0.60721212
0.028033886
-0.60602517
0.031196676
-0.60481086
0.035186829
-0.60365157
0.0402618
-0.60275891
0.046826372
-0.60256874
0.05528134
-0.60353351
0.065669073
-0.60634773
0.078898413
-0.61441378
0.098009113
-0.62964172
0.11489469
-0.64192169
0.10867574
-0.64841654
0.091381686
-0.64806459
0.070846204
-0.64642498
0.060253233
-0.6452666
0.054777979
-0.64557054
0.052130742
-0.64645797
0.048875689
-0.64726492
0.046429025
-0.65434419
0.052516337
-0.66369642
0.051643207
-0.68138048
0.054381788
-0.69678728
0.034429168
-0.7259947
0.02798685
-0.74857282
-0.020806127
-0.77149542
-0.10494816
-0.67606154
-0.36051569
-0.63017845
-0.28382214
-0.60590345
-0.21582392
-0.59972627
-0.1509086
-0.60013647
-0.11045894
-0.60215734
-0.085071215
-0.60430658
-0.067721203
-0.60618247
-0.055049873
-0.6077189
-0.04527234
-0.60894479
-0.037390843
-0.60990901
-0.030807837
-0.61065804
-0.025142983
-0.61123036
-0.020140269
-0.61165595
-0.015618446
-0.61195727
-0.011445322
-0.61215028
-0.0075119953
-0.0037285228
-0.58497422
0.017584935
-0.58357425
0.01808013
-0.58207536
0.018535051
-0.58047584
0.019270883
-0.57875157
0.020301112
-0.57687245
0.021676892
-0.57480061
0.023456667
-0.57249289
0.025726157
-0.56990627
0.028610059
-0.56700475
0.032285314
-0.56377082
0.037027869
-0.56029494
0.043350488
-0.5570376
0.052023996
-0.55476433
0.063395804
-0.55391961
0.078053694
-0.55913315
0.10322265
-0.58026893
0.13603047
-0.5941567
0.12256351
-0.59957563
0.096800609
-0.59208087
0.06335144
-0.58442723
0.052599597
-0.5784381
0.048788844
-0.57577973
0.049472372
-0.57396442
0.047060375
-0.56723719
0.0397018
-0.57956006
0.030206563
-0.59053664
0.035263317
-0.60106548
0.039084688
-0.60121538
0.020211728
-0.63392568
0.03960655
-0.71307955
0.01963211
-0.66804742
-0.054662437
-0.60601846
-0.22555628
-0.57368612
-0.31615448
-0.57145284
-0.21805719
-0.58108888
-0.14127257
-0.58941347
-0.10213434
-0.59558743
-0.078897255
-0.60006184
-0.063246801
-0.60334154
-0.051770169
-0.60578132
-0.042832559
-0.60761809
-0.035554079
-0.60901032
-0.029415599
-0.61006596
-0.024087344
-0.61085972
-0.019346515
-0.61144377
-0.015034391
-0.6118545
-0.011034597
-0.61211656
-0.007249939
-0.0036001733
-0.52515433
0.014885639
-0.52231759
0.015243388
-0.51931215
0.015529618
-0.5161095
0.016068231
-0.51265872
0.01685033
-0.50888914
0.017907317
-0.50470775
0.019275271
-0.49999779
0.021016194
-0.49461905
0.023231321
-0.48841268
0.026078947
-0.48120475
0.029819939
-0.4728442
0.034989938
-0.46350301
0.042682803
-0.45416063
0.054053424
-0.44484083
0.068733888
-0.43594923
0.094331052
-0.4620091
0.16209034
-0.46269963
0.12325404
-0.4499242
0.084025173
-0.40987514
0.023302378
-0.3765918
0.019316256
-0.34863702
0.020834062
-0.28266536
0.017913073
-0.12781682
0.013961151
-0.015067244
0.00059535926
0
0
0
0
0
0
0
0
0
0
0
0
0
0
-0.21961109