/*--------------------------------*- C++ -*----------------------------------*\
| =========                 |                                                 |
| \\      /  F ield         | foam-extend: Open Source CFD                    |
|  \\    /   O peration     | Version:     4.1                                |
|   \\  /    A nd           | Web:         http://www.foam-extend.org         |
|    \\/     M anipulation  |                                                 |
\*---------------------------------------------------------------------------*/
FoamFile
{
    version     2.0;
    format      ascii;
    class       volScalarField;
    location    "0.2";
    object      rAU;
}
// * * * * * * * * * * * * * * * * * * * * * * * * * * * * * * * * * * * * * //

dimensions      [0 0 1 0 0 0 0];

internalField   nonuniform List<scalar> 
4393
(
0.00022749602
0.00022711774
0.00022674766
0.0002263702
0.00022598323
0.00022558538
0.00022517429
0.00022474883
0.00022430822
0.00022385235
0.00022338194
0.00022289862
0.00022240503
0.00022190486
0.00022140261
0.00022090454
0.00022041651
0.00021994551
0.00021949909
0.00021908464
0.00021870964
0.00021838143
0.00021810712
0.00021789348
0.00021774676
0.0002176725
0.0002176725
0.00021767505
0.00021775747
0.00021792069
0.00021816274
0.00021847862
0.00021886019
0.0002192965
0.00021977447
0.00022027974
0.0002207977
0.00022131437
0.00022181714
0.00022229517
0.00022273969
0.00022314389
0.00022350286
0.00022381325
0.00022407307
0.00022428142
0.00022443844
0.00022454473
0.00022458568
0.00022436335
0.0002240389
0.00022372977
0.00022341202
0.00022308292
0.00022274083
0.0002223836
0.00022201043
0.00022162098
0.00022121575
0.00022079612
0.00022036454
0.00021992452
0.0002194807
0.00021903852
0.00021860511
0.00021818709
0.00021779201
0.00021742778
0.00021710199
0.00021682214
0.0002165955
0.00021642903
0.0002163293
0.00021630222
0.00021635281
0.00021642368
0.0002164006
0.0002164561
0.00021659374
0.00021681487
0.00021711787
0.00021749758
0.00021794531
0.00021844921
0.00021899518
0.00021956794
0.0002201522
0.00022073359
0.0002212994
0.00022183892
0.00022234363
0.00022280706
0.00022322461
0.00022359314
0.00022391062
0.00022417621
0.00022439157
0.00022454393
0.00022385158
0.00022353962
0.00022323661
0.00022292246
0.00022259446
0.00022225116
0.00022189059
0.00022151227
0.00022111631
0.00022070372
0.00022027657
0.00021983807
0.00021939265
0.00021894593
0.00021850439
0.00021807612
0.00021766862
0.00021729012
0.00021694899
0.00021665307
0.00021640994
0.00021622684
0.00021611065
0.0002160678
0.00021610402
0.00021622402
0.0002162598
0.00021615602
0.00021613187
0.00021619402
0.00021634713
0.00021659275
0.00021692827
0.00021734656
0.00021783621
0.00021838249
0.00021896866
0.00021957746
0.00022019237
0.00022079851
0.00022138328
0.00022193649
0.00022245039
0.00022291939
0.00022333962
0.00022370854
0.00022402511
0.00022428966
0.00022448246
0.00022349013
0.00022318405
0.00022288142
0.00022256456
0.00022223106
0.00022187966
0.00022150857
0.00022111757
0.00022070711
0.00022027867
0.00021983493
0.00021937988
0.00021891887
0.00021845859
0.00021800668
0.00021757239
0.00021716428
0.00021679146
0.00021646292
0.00021618689
0.00021597113
0.00021582297
0.00021574933
0.00021575671
0.00021585088
0.00021603655
0.0002160413
0.00021585343
0.00021574696
0.00021573202
0.00021581696
0.00021600682
0.00021630163
0.00021669567
0.00021717753
0.00021773125
0.00021833804
0.00021897814
0.00021963247
0.00022028382
0.00022091756
0.00022152193
0.00022208799
0.00022260933
0.00022308156
0.00022350198
0.00022386939
0.0002241831
0.0002244249
0.00022312188
0.00022282039
0.00022251848
0.00022219919
0.00022186028
0.00022150061
0.00022111857
0.00022071408
0.0002202879
0.00021984191
0.00021937934
0.00021890493
0.00021842499
0.00021794731
0.00021748082
0.0002170361
0.00021662294
0.00021625145
0.00021593136
0.00021567129
0.0002154792
0.0002153625
0.00021532822
0.00021538301
0.00021553298
0.00021578313
0.00021576686
0.00021549071
0.00021529819
0.00021520332
0.00021521879
0.00021535364
0.00021561087
0.00021598605
0.00021646727
0.00021703664
0.00021767253
0.00021835203
0.000219053
0.0002197556
0.00022044311
0.00022110223
0.00022172298
0.00022229828
0.00022282349
0.00022329587
0.00022371412
0.00022407742
0.00022436984
0.00022273745
0.00022244108
0.00022214094
0.00022182016
0.00022147659
0.00022110918
0.00022071635
0.00022029817
0.00021985556
0.00021939073
0.00021890743
0.00021841109
0.00021790895
0.00021741005
0.00021692472
0.00021646508
0.00021604237
0.00021566788
0.00021535213
0.00021510416
0.00021493209
0.00021484338
0.00021484516
0.00021494442
0.00021514781
0.00021546113
0.00021543786
0.00021506794
0.000214784
0.00021460461
0.00021454762
0.00021462697
0.00021484913
0.00021521089
0.00021569926
0.00021629351
0.00021696815
0.00021769624
0.000218452
0.0002192126
0.00021995913
0.00022067682
0.00022135483
0.00022198572
0.00022256481
0.00022308961
0.00022355896
0.00022397257
0.00022431625
0.00022233732
0.00022204674
0.00022174938
0.0002214281
0.0002210807
0.00022070611
0.00022030273
0.00021987064
0.00021941086
0.00021892583
0.00021841969
0.00021789853
0.00021737057
0.00021684613
0.0002163372
0.00021585766
0.0002154205
0.00021503841
0.00021472279
0.00021448308
0.00021432744
0.00021426326
0.00021429777
0.00021443838
0.00021469264
0.00021506757
0.00021505626
0.00021458567
0.00021420315
0.00021393261
0.00021379828
0.00021382026
0.00021400931
0.00021436352
0.00021486802
0.00021549796
0.0002162227
0.00021701018
0.00021783019
0.00021865654
0.00021946803
0.00022024851
0.00022098654
0.00022167456
0.0002223082
0.00022288542
0.00022340562
0.00022386936
0.00022426387
0.00022192348
0.00022164006
0.00022134667
0.00022102589
0.00022067549
0.00022029428
0.00021988054
0.00021943426
0.00021895644
0.0002184496
0.00021791819
0.0002173689
0.00021681089
0.00021625592
0.00021571782
0.00021521266
0.00021475554
0.00021436083
0.00021404091
0.00021380552
0.00021366266
0.00021361947
0.00021368316
0.00021386166
0.00021416369
0.00021459815
0.00021462358
0.00021404381
0.0002135534
0.00021318259
0.0002129636
0.00021292455
0.00021308185
0.00021343494
0.00021396604
0.00021464447
0.00021543268
0.00021629206
0.00021718713
0.0002180879
0.00021897081
0.00021981857
0.0002206194
0.00022136606
0.00022205477
0.0002226843
0.00022325488
0.00022376818
0.00022421266
0.00022149768
0.00022122226
0.00022093392
0.0002206147
0.00022026221
0.00021987502
0.00021945121
0.00021899055
0.00021849385
0.00021796358
0.00021740434
0.00021682331
0.00021623058
0.00021563943
0.00021506588
0.00021452863
0.00021404545
0.00021363276
0.00021330404
0.00021306914
0.00021293559
0.00021290991
0.00021299908
0.00021321154
0.00021355756
0.00021404861
0.00021414265
0.00021344346
0.00021283336
0.00021235008
0.000212036
0.00021193004
0.00021205625
0.00021241567
0.00021298605
0.0002137285
0.00021459618
0.00021554218
0.00021652465
0.00021750943
0.00021847066
0.00021939022
0.00022025645
0.00022106285
0.0002218067
0.00022248792
0.00022310791
0.00022366962
0.00022416276
0.00022106188
0.00022079638
0.00022051451
0.00022019804
0.00021984445
0.00021945204
0.00021901854
0.00021854334
0.00021802692
0.00021747148
0.0002168816
0.00021626477
0.00021563196
0.00021499806
0.00021438165
0.00021380473
0.00021328847
0.0002128519
0.00021250971
0.00021227158
0.00021214402
0.00021213241
0.0002122431
0.00021248499
0.00021287021
0.00021341362
0.0002136168
0.00021278607
0.00021204156
0.00021142975
0.00021100607
0.00021082424
0.00021091917
0.00021129387
0.00021191929
0.00021274489
0.00021371137
0.00021476126
0.00021584521
0.00021692453
0.00021797132
0.0002189671
0.00021990098
0.00022076776
0.00022156628
0.00022229804
0.00022296593
0.00022357438
0.00022411446
0.00022061886
0.00022036385
0.00022008955
0.00021977702
0.00021942341
0.00021902663
0.00021858397
0.00021809426
0.00021755742
0.00021697516
0.00021635177
0.00021569483
0.00021501604
0.000214332
0.00021366423
0.00021303892
0.0002124817
0.00021201502
0.00021165489
0.00021141035
0.00021128605
0.00021128543
0.00021141362
0.00021167974
0.00021209807
0.00021268783
0.0002130513
0.00021207488
0.0002111778
0.00021041654
0.00020986324
0.00020959236
0.0002096547
0.00021005586
0.00021075642
0.00021168917
0.000212778
0.00021395213
0.00021515344
0.00021633863
0.00021747824
0.00021855427
0.00021955737
0.00022048441
0.00022133638
0.00022211681
0.00022283041
0.00022348333
0.00022406812
0.00022016974
0.00021992786
0.00021966295
0.00021935589
0.00021900366
0.00021860374
0.00021815282
0.000217649
0.00021709138
0.00021648086
0.00021582111
0.0002151195
0.0002143882
0.00021364542
0.00021291614
0.00021223189
0.00021162434
0.00021112049
0.0002107379
0.00021048418
0.00021036095
0.0002103685
0.00021050991
0.0002107941
0.00021123769
0.00021186528
0.00021245319
0.00021131491
0.00021024316
0.00020930541
0.00020859499
0.00020821577
0.0002082426
0.00020868481
0.00020948676
0.00021055725
0.00021179735
0.00021311965
0.0002144561
0.00021575905
0.00021699847
0.00021815799
0.00021923092
0.00022021708
0.00022112031
0.00022194667
0.00022270304
0.00022339747
0.0002240242
0.00021971955
0.00021949083
0.00021923636
0.0002189361
0.00021858661
0.00021818478
0.00021772657
0.00021720916
0.00021663051
0.00021599037
0.00021529133
0.00021454012
0.00021374898
0.00021293752
0.00021213463
0.00021137875
0.00021070989
0.0002101614
0.00020975266
0.00020948862
0.00020936598
0.00020938021
0.00020953108
0.00020982659
0.00021028574
0.00021093959
0.0002117533
0.00021051397
0.00020924128
0.00020809241
0.000207187
0.00020667109
0.00020665709
0.00020716011
0.00020809858
0.00020934628
0.00021077334
0.00021227181
0.00021376294
0.00021519568
0.00021654106
0.00021778602
0.00021892798
0.00021997078
0.00022092188
0.0002217904
0.00022258571
0.00022331798
0.00022398324
0.0002192667
0.00021905465
0.00021881285
0.00021852134
0.00021817652
0.00021777474
0.00021731106
0.00021678152
0.00021618263
0.00021551248
0.00021477207
0.00021396685
0.00021310848
0.00021221744
0.00021132674
0.00021048375
0.00020974026
0.00020913872
0.00020870064
0.00020842642
0.00020830508
0.00020832497
0.00020848102
0.00020877935
0.00020924118
0.00020990519
0.00021082494
0.00020968377
0.00020817939
0.00020677549
0.00020562296
0.00020492824
0.00020486417
0.0002054559
0.0002065789
0.00020805547
0.00020971362
0.00021142074
0.00021308745
0.0002146614
0.00021611729
0.0002174477
0.00021865594
0.0002197512
0.00022074533
0.00022165105
0.00022248051
0.00022324613
0.00022394583
0.00021882264
0.00021862653
0.00021839842
0.00021811727
0.00021777895
0.00021737911
0.00021691178
0.00021637158
0.00021575323
0.00021505259
0.00021426833
0.00021340385
0.00021246933
0.00021148511
0.00021048815
0.00020953734
0.00020870155
0.00020803688
0.00020756765
0.00020728669
0.00020717116
0.00020719905
0.00020735846
0.0002076521
0.00020810246
0.00020875662
0.0002096842
0.00020884149
0.00020707017
0.0002053565
0.0002038851
0.00020294806
0.00020281791
0.0002035394
0.00020491394
0.00020668769
0.00020863139
0.00021058417
0.00021244784
0.00021417264
0.00021574089
0.00021715393
0.00021842321
0.0002195646
0.00022059526
0.00022153188
0.00022238963
0.00022318326
0.00022391262
0.00021837837
0.00021820263
0.00021799075
0.0002177222
0.00021739288
0.00021699774
0.00021652976
0.00021598194
0.00021534681
0.00021461745
0.00021378928
0.00021286261
0.00021184493
0.00021075468
0.00020963153
0.00020854877
0.00020760031
0.00020686315
0.00020636512
0.0002060863
0.00020598526
0.00020602514
0.00020618501
0.00020646265
0.00020688057
0.00020749505
0.0002083956
0.00020801297
0.00020593454
0.00020384422
0.00020195586
0.00020067916
0.00020045421
0.00020136846
0.00020308989
0.00020525203
0.00020754801
0.00020978736
0.00021186815
0.00021374989
0.00021542816
0.00021691716
0.00021823899
0.00021941769
0.00022047643
0.00022143623
0.00022231533
0.00022313077
0.00022388427
0.00021795768
0.00021780052
0.00021760588
0.00021735209
0.0002170345
0.0002166473
0.00021618219
0.00021563034
0.00021498165
0.00021422564
0.0002133533
0.00021236038
0.00021125007
0.00021003621
0.000208758
0.00020750585
0.00020641123
0.0002055846
0.00020505899
0.00020479387
0.00020471926
0.0002047781
0.0002049389
0.00020519314
0.00020556039
0.00020610509
0.00020693935
0.00020722722
0.00020480285
0.00020225978
0.00019982257
0.00019805479
0.00019768061
0.00019888863
0.00020109504
0.00020376821
0.00020649692
0.0002090657
0.00021137959
0.00021341809
0.00021519792
0.00021675107
0.00021811301
0.0002193173
0.0002203936
0.00022136736
0.00022225977
0.00022309001
0.00022386145
0.00021753996
0.00021740676
0.00021723208
0.00021699541
0.00021669238
0.00021631654
0.00021585834
0.000215307
0.00021464959
0.00021387147
0.000212958
0.0002118987
0.00021069073
0.00020933982
0.00020787832
0.00020641446
0.00020513666
0.0002042103
0.00020367558
0.0002034574
0.00020343978
0.0002035371
0.00020370569
0.00020392905
0.00020421791
0.00020464208
0.00020534111
0.00020622346
0.00020373708
0.00020065156
0.00019749033
0.00019499388
0.00019436111
0.00019603063
0.00019892428
0.00020227377
0.00020552928
0.00020846784
0.00021102176
0.0002132068
0.00021507111
0.00021667005
0.00021805503
0.00021927
0.00022035122
0.00022132826
0.00022222495
0.00022306221
0.00022384477
0.00021718383
0.00021707127
0.00021691756
0.00021670095
0.00021641674
0.00021605776
0.00021561323
0.00021507035
0.0002144131
0.000213622
0.00021267504
0.00021155274
0.00021024351
0.00020874045
0.00020705683
0.00020531281
0.00020378322
0.00020272753
0.00020219602
0.0002020571
0.00020212065
0.0002022637
0.00020243382
0.00020261107
0.00020279074
0.00020304438
0.00020354513
0.00020453243
0.00020280237
0.0001991123
0.00019502193
0.00019142626
0.00019029956
0.0001927108
0.00019658786
0.00020083586
0.00020472223
0.00020805964
0.00021084367
0.00021314974
0.00021506993
0.00021668835
0.00021807412
0.00021928159
0.00022035303
0.00022132141
0.00022221251
0.00022304842
0.00022383477
0.00021691009
0.00021682493
0.00021669693
0.00021650523
0.00021624562
0.00021591037
0.0002154875
0.00021496218
0.00021431518
0.00021352189
0.00021255163
0.00021137289
0.00020996282
0.00020829924
0.00020635879
0.00020425274
0.00020238644
0.00020118856
0.00020072044
0.00020075801
0.0002009854
0.00020123175
0.00020144338
0.00020160712
0.00020168285
0.00020172323
0.0002019364
0.00020260799
0.00020237779
0.0001979697
0.00019266196
0.00018737753
0.0001852362
0.00018884822
0.00019413758
0.00019957406
0.00020419162
0.00020792851
0.00021090383
0.0002132834
0.00021521617
0.00021681874
0.00021817772
0.00021935648
0.00022040172
0.00022134852
0.00022222357
0.00022304938
0.00022383186
0.0002169707
0.00021691302
0.00021681635
0.00021665766
0.00021643271
0.00021613336
0.00021574694
0.00021525723
0.00021464256
0.00021387389
0.00021291154
0.00021170812
0.00021022391
0.00020841909
0.0002062086
0.00020363461
0.00020128732
0.00019991954
0.0001995922
0.00019993715
0.00020041348
0.00020079608
0.00020104413
0.00020117939
0.00020109755
0.00020079611
0.00020056809
0.0002007105
0.00020148039
0.0001975884
0.0001909088
0.00018320381
0.00017892805
0.00018447464
0.00019174893
0.00019869795
0.00020410778
0.00020818635
0.00021126809
0.00021364376
0.00021552858
0.00021707064
0.00021837046
0.00021949692
0.00022049844
0.00022141027
0.00022225862
0.00022306546
0.00022383628
0.0002177352
0.00021771649
0.00021766829
0.00021756248
0.00021739501
0.00021715762
0.00021683758
0.00021641801
0.00021587526
0.00021517611
0.00021427113
0.00021309117
0.00021156824
0.00020964518
0.00020716026
0.00020396159
0.0002008695
0.00019932751
0.00019932764
0.00020029583
0.00020124108
0.0002019006
0.00020227152
0.00020248495
0.000202372
0.0002017328
0.00020111889
0.00020055473
0.00020134715
0.00020000024
0.00019158303
0.00018033571
0.00017129291
0.00018000078
0.0001897836
0.00019853123
0.00020470865
0.00020896844
0.00021200328
0.00021426053
0.00021601888
0.00021744777
0.00021865283
0.00021970232
0.00022064246
0.00022150608
0.00022231734
0.00022309658
0.00022384807
0.00022041787
0.00022047857
0.00022052443
0.00022051928
0.00022046029
0.00022033984
0.00022014649
0.00021986443
0.00021947021
0.00021892956
0.00021818828
0.00021715821
0.00021573325
0.00021384146
0.00021126502
0.00020740759
0.00020317682
0.00020167189
0.0002024838
0.00020483609
0.00020671978
0.00020797628
0.00020866933
0.00020919758
0.00020947258
0.00020825746
0.00020719243
0.00020513621
0.00020551326
0.00020379208
0.00019681885
0.00018150971
0.00016259005
0.00017668062
0.00018901611
0.00019976233
0.00020637093
0.00021043419
0.00021316479
0.00021514767
0.00021668651
0.00021794554
0.00021901993
0.00021996867
0.00022083082
0.00022163399
0.00022239856
0.00022314216
0.00022386705
0.00022630209
0.00022647591
0.00022667464
0.00022683659
0.00022695856
0.00022703504
0.00022705914
0.00022702078
0.0002269029
0.00022667787
0.00022629687
0.00022566019
0.00022459793
0.00022296116
0.00022051386
0.00021586934
0.00020897583
0.00020759636
0.0002096457
0.00021474165
0.00021821373
0.00022046982
0.00022156318
0.0002225773
0.0002244162
9.3262975e-05
9.5332503e-05
9.7851814e-05
0.00010009637
0.00010305762
9.458327e-05
8.6347613e-05
0.00010655902
0.00017974986
0.00019373885
0.00020438286
0.00020966983
0.00021271752
0.0002147625
0.00021628771
0.00021751233
0.00021854867
0.00021946069
0.00022028825
0.00022105832
0.00022179063
0.00022250024
0.00022320111
0.00022389279
0.00023954424
0.00024007499
0.00024067355
0.00024125583
0.00024182938
0.00024239866
0.00024297061
0.00024355241
0.00024414753
0.00024475159
0.0002453401
0.00024582547
0.00024597857
0.00024547832
0.00024419258
0.00024037477
0.00022746104
0.0002300418
0.00023846741
0.00025666202
0.00026898197
0.00027862886
0.00013297423
0.00017770353
0.00033948547
0.00048594126
0.00049956686
0.00049956686
0.00049956686
0.00049956686
0.00049956686
0.00045034919
0.00033668405
6.8131299e-05
0.00021327777
0.00021370445
0.00021458243
0.00021566832
0.00021668679
0.00021761191
0.00021845388
0.0002192305
0.00021995799
0.00022064993
0.00022131774
0.00022197139
0.00022261957
0.00022327186
0.00022392465
0.00026481335
0.00026603714
0.00026740877
0.00026881226
0.00027026782
0.000271802
0.00027345309
0.00027527044
0.00027731625
0.00027967123
0.00028244166
0.0002857552
0.00028975546
0.00029463022
0.00030080566
0.00031010591
0.00027450322
0.00030663747
0.00036175841
0.0003210229
0.00028973864
0.0003186046
0.00049956686
0.00049956686
0.00049956686
0.00049956686
0.00049956686
0.00049956686
0.00049956686
0.00049956686
0.00041245768
0.0004179603
0.00010198135
0.00026690846
0.00023140149
0.0002223124
0.00021946014
0.00021869572
0.00021869532
0.00021900584
0.00021945055
0.00021995604
0.00022049046
0.00022104019
0.00022160037
0.00022217069
0.00022275308
0.00022335248
0.00022396176
0.00030201394
0.00030445936
0.00030681047
0.00030918712
0.00031166417
0.00031431892
0.00031724197
0.00032055232
0.00032441592
0.0003290833
0.00033495249
0.00034257234
0.00035203158
0.00036474742
0.0003842921
0.00039249643
0.00023732668
0.00024071223
0.00023265528
0.00048268366
0.00048148357
0.00049158172
0.000478696
0.00047371718
0.00047745758
0.0004586273
0.00045167651
0.00045346749
0.00044084491
0.00043637309
0.00010680557
0.00010756829
0.00021931139
0.00025217268
0.00023713343
0.00022758775
0.00022327699
0.000221364
0.00022057919
0.00022036058
0.00022044124
0.00022068898
0.00022103551
0.00022144455
0.00022189679
0.00022238242
0.00022289695
0.00022344074
0.00022400314
0.00028840927
0.00028866145
0.00028846197
0.00028827121
0.00028810973
0.00028802336
0.00028804431
0.00028821173
0.00028857755
0.00028921467
0.00029024188
0.00029102669
0.00029164567
0.00029240521
0.00028957745
0.00010197941
0.00037521458
0.00046999542
0.00046494457
0.00049390811
0.00048616709
0.00048245794
0.00012419418
0.00012126712
0.00010074078
0.00010000611
0.00010057043
0.00010190824
0.00010286291
0.00010445043
0.00020104637
0.00020743948
0.00021770564
0.00023856935
0.00023976392
0.00023090353
0.00022609486
0.00022354493
0.00022222577
0.00022159954
0.0002213765
0.00022139738
0.00022157223
0.00022184912
0.00022219771
0.00022260042
0.00022304719
0.00022353428
0.00022404768
0.00022325276
0.00022305902
0.00022276256
0.00022248823
0.00022224333
0.00022204388
0.00022190485
0.00022184881
0.00022190787
0.00022212733
0.00022252494
0.00022207187
0.00022108677
0.00021922984
0.00021636207
0.00021277852
9.5115264e-05
9.8785346e-05
9.9865963e-05
9.9754792e-05
0.00010012604
0.00010014773
0.00021254561
0.00021082231
0.0002089391
0.00020554655
0.00020442315
0.00020384476
0.00020204345
0.00020202298
0.00020314642
0.00020878371
0.00021792143
0.00023181837
0.00023791283
0.00023259153
0.00022797137
0.00022520036
0.00022358084
0.00022267633
0.00022222162
0.00022205647
0.00022208322
0.00022224173
0.00022249466
0.00022281886
0.00022319994
0.00022363074
0.00022409426
0.00021951883
0.0002196015
0.00021973719
0.00021988075
0.00022004414
0.00022023999
0.00022048184
0.00022078702
0.0002211764
0.00022167467
0.00022201343
0.00022157017
0.00022077502
0.00021948067
0.00021766652
0.00021472466
0.00021189915
0.00021352062
0.00021546805
0.00021431203
0.00021244738
0.00021126258
0.00021008387
0.00020835552
0.00020730686
0.00020567354
0.00020475043
0.00020415539
0.00020340372
0.00020383914
0.00020577858
0.0002106794
0.00021828253
0.0002278142
0.00023354038
0.00023326703
0.00022911422
0.00022638089
0.00022464062
0.00022357234
0.00022295697
0.00022264962
0.00022255547
0.00022261259
0.00022278042
0.00022303255
0.00022335163
0.00022372786
0.00022414176
0.00021815962
0.00021824397
0.00021837828
0.00021852551
0.00021868852
0.00021887527
0.00021909504
0.00021935993
0.00021968353
0.00022008072
0.00022001553
0.00021948605
0.00021867303
0.00021753229
0.00021604441
0.00021409086
0.00021280267
0.00021368615
0.00021510629
0.00021361823
0.00021198614
0.00021074084
0.00020956203
0.00020833078
0.00020735756
0.00020628095
0.00020561254
0.00020523137
0.00020513269
0.00020597844
0.00020818483
0.00021243042
0.00021852878
0.00022536287
0.00023004691
0.000232235
0.00022970253
0.00022716147
0.00022542795
0.00022428824
0.00022357524
0.00022316773
0.00022298048
0.00022295453
0.00022304932
0.00022323718
0.00022349914
0.00022382362
0.00022418915
0.00021747243
0.000217603
0.00021775251
0.00021791247
0.00021808919
0.00021828955
0.00021852046
0.0002187903
0.00021910698
0.00021947669
0.00021925862
0.00021878222
0.0002180853
0.00021714092
0.00021592747
0.00021456877
0.00021384848
0.00021435073
0.00021517814
0.00021355379
0.00021211328
0.00021093033
0.00020984816
0.00020884633
0.00020800638
0.00020725204
0.00020681444
0.00020667895
0.00020695166
0.00020801741
0.00021019808
0.00021382109
0.00021866949
0.00022379156
0.00022764253
0.00023000684
0.00022990693
0.00022762652
0.00022598016
0.00022483727
0.00022407834
0.00022360791
0.00022335377
0.00022326295
0.00022329723
0.00022342937
0.0002236399
0.00022391624
0.00022423552
0.00021717694
0.00021725748
0.00021738193
0.00021752523
0.00021768539
0.0002178662
0.00021807197
0.00021830822
0.00021857948
0.00021884695
0.00021855472
0.00021813151
0.00021755747
0.00021682322
0.00021593723
0.00021507001
0.00021469702
0.00021507391
0.00021520299
0.00021374407
0.00021247604
0.00021139683
0.00021043706
0.00020959438
0.00020889936
0.00020836173
0.00020810153
0.0002081541
0.00020863568
0.00020978664
0.00021182499
0.00021489524
0.00021877248
0.00022275125
0.00022594362
0.00022811365
0.00022924132
0.00022784922
0.00022633775
0.00022523903
0.00022447412
0.00022397191
0.00022367416
0.00022353551
0.00022352155
0.00022360669
0.00022377192
0.00022400429
0.00022428009
0.00021702408
0.00021714732
0.00021728209
0.00021742627
0.00021758414
0.00021775902
0.00021795298
0.00021816829
0.00021840536
0.00021856352
0.00021828433
0.00021790304
0.00021741225
0.00021681758
0.00021615688
0.00021559029
0.00021540408
0.00021572879
0.00021524798
0.00021400831
0.00021290492
0.00021194656
0.00021111062
0.00021040278
0.00020984426
0.00020946688
0.00020934499
0.00020953037
0.00021012384
0.00021128107
0.00021313832
0.00021574177
0.0002188832
0.00022206292
0.00022473422
0.00022668631
0.00022792851
0.00022789601
0.00022654043
0.00022551573
0.00022477389
0.00022426461
0.00022394299
0.0002237717
0.00022372095
0.0002237676
0.00022389374
0.00022408667
0.00022432222
0.00021694058
0.00021701788
0.00021713179
0.00021726236
0.00021740703
0.00021756707
0.00021774295
0.00021793516
0.00021814203
0.0002182368
0.00021799715
0.00021768216
0.00021729201
0.00021684017
0.00021637434
0.00021602281
0.000215962
0.00021619264
0.0002153278
0.00021428337
0.00021333533
0.00021250279
0.00021178697
0.00021119989
0.0002107631
0.0002105114
0.00021049845
0.00021077626
0.0002114245
0.00021254467
0.00021421525
0.0002164313
0.00021901381
0.00022161159
0.00022386735
0.00022560635
0.00022680182
0.0002274596
0.00022662216
0.00022568911
0.00022499033
0.00022449277
0.00022416333
0.00022397246
0.00022389521
0.00022391133
0.00022400447
0.00022416258
0.00022436145
0.00021687703
0.00021697725
0.00021709174
0.00021721488
0.00021734845
0.00021749359
0.00021764958
0.00021781542
0.00021798786
0.00021803864
0.0002178267
0.00021756072
0.00021724697
0.00021690468
0.00021658197
0.00021637588
0.00021639874
0.00021632331
0.00021542765
0.00021455347
0.00021374918
0.00021303982
0.00021243861
0.00021196198
0.00021163257
0.00021148294
0.0002115554
0.0002118958
0.00021256397
0.00021362504
0.00021511896
0.00021701627
0.00021916956
0.0002213297
0.00022325159
0.00022479464
0.00022591816
0.00022665119
0.00022661334
0.00022577949
0.00022513635
0.00022466405
0.00022433937
0.00022413973
0.00022404494
0.00022403774
0.00022410366
0.00022423153
0.00022439745
0.00021683537
0.00021690844
0.00021700982
0.00021712331
0.00021724668
0.00021737971
0.00021752062
0.0002176673
0.00021781542
0.00021785307
0.00021767727
0.0002174636
0.00021722153
0.00021697256
0.00021676036
0.00021665743
0.00021673869
0.0002162819
0.00021554565
0.00021481928
0.0002141459
0.00021355278
0.00021305876
0.00021268284
0.00021244771
0.00021238244
0.00021252146
0.00021290255
0.0002135691
0.00021456134
0.00021589482
0.00021753026
0.0002193489
0.00022117091
0.00022282167
0.0002241893
0.00022522999
0.00022595259
0.00022634378
0.00022580425
0.00022522407
0.00022478631
0.00022447584
0.00022427615
0.00022417138
0.00022414724
0.00022419123
0.00022429328
0.00022443001
0.00021680235
0.00021688156
0.00021697801
0.00021708203
0.00021719339
0.00021731179
0.00021743499
0.00021756036
0.00021768319
0.00021771446
0.00021756886
0.00021739881
0.00021721548
0.00021704031
0.00021691063
0.00021688054
0.00021684415
0.0002162843
0.00021568091
0.00021508293
0.00021452764
0.00021404198
0.00021364685
0.00021336212
0.00021320957
0.00021321458
0.00021340529
0.00021381153
0.00021446368
0.00021538501
0.00021657629
0.00021799629
0.0002195501
0.00022110533
0.0002225338
0.00022374662
0.00022470185
0.00022539717
0.00022585627
0.0002257788
0.00022526457
0.00022486718
0.00022457773
0.00022438474
0.0002242762
0.00022424063
0.00022426745
0.00022434783
0.00022445908
0.0002167831
0.00021684858
0.0002169363
0.00021703214
0.00021713411
0.00021724127
0.00021735087
0.00021745993
0.00021756361
0.00021759839
0.00021748223
0.00021735143
0.00021721781
0.00021710152
0.00021703368
0.00021704543
0.00021678118
0.00021632287
0.00021583196
0.00021534589
0.00021489646
0.0002145089
0.00021420408
0.0002140015
0.00021392129
0.00021398526
0.0002142162
0.00021463685
0.00021526768
0.00021612047
0.00021718756
0.00021842961
0.0002197708
0.0002211117
0.00022235597
0.00022343284
0.00022430436
0.00022496238
0.00022542015
0.00022563633
0.0002252675
0.00022491373
0.00022464992
0.00022446869
0.00022436135
0.00022431896
0.00022433282
0.00022439535
0.00022448466
0.00021677156
0.00021683528
0.00021691676
0.00021700404
0.00021709581
0.00021719108
0.00021728697
0.00021738046
0.00021746691
0.00021750583
0.00021741523
0.00021731753
0.00021722435
0.00021715387
0.00021713167
0.00021707944
0.00021676125
0.0002163904
0.00021599603
0.00021560801
0.00021525327
0.00021495465
0.00021473185
0.0002146031
0.00021458646
0.00021470036
0.00021496292
0.00021539095
0.00021599745
0.0002167866
0.00021774624
0.00021884059
0.00022000883
0.00022117491
0.00022226504
0.00022322262
0.00022401441
0.00022462965
0.00022507494
0.00022536805
0.00022524127
0.00022493239
0.00022469708
0.00022453124
0.00022442895
0.00022438351
0.00022438801
0.00022443612
0.00022450686
0.00021676921
0.0002168255
0.00021690037
0.00021698039
0.0002170637
0.0002171491
0.00021723367
0.00021731448
0.00021738724
0.00021742985
0.0002173618
0.00021729196
0.00021723137
0.00021719603
0.00021718842
0.00021703337
0.0002167761
0.00021648079
0.00021617028
0.00021586866
0.00021559867
0.00021538049
0.000215232
0.00021516967
0.00021520925
0.00021536599
0.00021565398
0.00021608514
0.00021666694
0.00021739854
0.0002182658
0.00021923694
0.00022026284
0.0002212844
0.0002222442
0.00022309683
0.00022381375
0.00022438349
0.0002248086
0.00022510131
0.00022519311
0.00022492893
0.00022472361
0.00022457556
0.00022448114
0.00022443565
0.00022443381
0.00022447055
0.00022452581
0.00021677334
0.00021682577
0.00021689495
0.00021696794
0.00021704306
0.00021711916
0.00021719342
0.00021726313
0.00021732447
0.0002173673
0.00021731838
0.00021727136
0.00021723637
0.0002172273
0.000217184
0.00021702049
0.00021681739
0.00021658823
0.00021635136
0.0002161264
0.00021593247
0.00021578707
0.000215706
0.00021570368
0.00021579343
0.00021598759
0.00021629673
0.0002167288
0.00021728716
0.0002179678
0.00021875594
0.00021962373
0.0002205312
0.00022143178
0.00022228027
0.0002230401
0.00022368715
0.0002242104
0.00022461005
0.0002248946
0.00022507661
0.00022490827
0.00022473341
0.00022460457
0.00022452003
0.00022447679
0.00022447107
0.00022449904
0.00022454169
0.00021678351
0.0002168312
0.00021689515
0.00021696202
0.00021703004
0.00021709812
0.00021716358
0.00021722403
0.00021727622
0.00021731486
0.00021728195
0.00021725325
0.00021723785
0.00021723835
0.0002171601
0.00021703292
0.0002168784
0.00021670786
0.00021653629
0.00021637982
0.00021625448
0.00021617522
0.00021615561
0.0002162079
0.00021634306
0.00021657067
0.00021689828
0.00021733059
0.00021786793
0.00021850422
0.00021922487
0.00022000559
0.0002208136
0.00022161174
0.00022236415
0.00022304136
0.00022362328
0.00022409996
0.00022447046
0.00022474085
0.00022492183