/*--------------------------------*- C++ -*----------------------------------*\
| =========                 |                                                 |
| \\      /  F ield         | foam-extend: Open Source CFD                    |
|  \\    /   O peration     | Version:     4.1                                |
|   \\  /    A nd           | Web:         http://www.foam-extend.org         |
|    \\/     M anipulation  |                                                 |
\*---------------------------------------------------------------------------*/
FoamFile
{
    version     2.0;
    format      ascii;
    class       volScalarField;
    location    "0.35";
    object      p;
}
// * * * * * * * * * * * * * * * * * * * * * * * * * * * * * * * * * * * * * //

dimensions      [0 2 -2 0 0 0 0];

internalField   nonuniform List<scalar> 
16796
(
-1.7359583
-3.8551496
-6.0672761
-8.3025734
-10.575407
-12.895624
-15.273511
-17.719552
-20.244489
-22.859353
-25.575504
-28.404665
-31.358965
-34.450971
-37.693728
-41.100793
-44.686275
-48.464863
-52.451866
-56.663242
-61.115628
-65.826366
-70.813531
-76.095945
-81.693198
-87.625652
-93.914451
-100.58151
-107.64949
-115.14181
-123.08256
-131.49649
-140.40891
-149.84562
-159.83281
-170.3969
-181.56438
-193.36166
-205.81481
-218.94931
-232.78975
-247.3595
-262.68027
-278.77175
-295.65104
-313.33216
-331.82539
-351.13665
-371.26676
-392.21065
-413.95653
-436.48505
-459.7683
-483.76897
-508.43929
-533.72014
-559.54006
-585.81444
-612.44466
-639.31747
-666.3044
-693.26152
-720.02928
-746.43282
-772.28245
-797.37466
-821.49344
-844.41216
-865.89585
-885.704
-903.59386
-919.32416
-932.65921
-943.37334
-951.25546
-956.11378
-957.78062
-956.11711
-951.01669
-942.40826
-930.25902
-914.57635
-895.40865
-872.84519
-847.01494
-818.08439
-786.25441
-751.75635
-714.84752
-675.80607
-634.92576
-592.51047
-548.86893
-504.30963
-459.1361
-413.64277
-368.11136
-322.80789
-277.98034
-233.85702
-190.64543
-148.53174
-107.68081
-68.236567
-30.32279
5.9557853
40.512196
73.27578
104.19061
133.21389
160.31428
185.47028
208.66873
229.90328
249.17319
266.48189
281.83506
295.23891
306.70228
316.24517
323.8967
329.6385
333.31509
334.80076
-1.7325046
-3.8474558
-6.0551901
-8.2860578
-10.5544
-12.870047
-15.243268
-17.684532
-20.204564
-22.814378
-25.525318
-28.349091
-31.297809
-34.384022
-37.620762
-41.021567
-44.600533
-48.372335
-52.352267
-56.556275
-61.000984
-65.703728
-70.682572
-75.956332
-81.544597
-87.467728
-93.746872
-100.40395
-107.46165
-114.94338
-122.87329
-131.27613
-140.17728
-149.60258
-159.57827
-170.13086
-181.28692
-193.07296
-205.51518
-218.63919
-232.46973
-247.03034
-262.34295
-278.42745
-295.3012
-312.97848
-331.46987
-350.7816
-370.91484
-391.86487
-413.62031
-436.16217
-459.46299
-483.48583
-508.18336
-533.49683
-559.35516
-585.67405
-612.35517
-639.28546
-666.33657
-693.36457
-720.20979
-746.6971
-772.63637
-797.82347
-822.0416
-845.0631
-866.65181
-886.5658
-904.56073
-920.39359
-933.82682
-944.63282
-952.59852
-957.53017
-959.25826
-957.64246
-952.57512
-943.98409
-931.83578
-916.13713
-896.9365
-874.32355
-848.42799
-819.41744
-787.49423
-752.89145
-715.86833
-676.70513
-635.69774
-593.1522
-549.37932
-504.68955
-459.38822
-413.77133
-368.12197
-322.70723
-277.77598
-233.55712
-190.25852
-148.06654
-107.14599
-67.64061
-29.673861
6.6499675
41.244437
74.039476
104.97978
134.02321
161.13905
186.30649
209.51295
230.75269
250.02552
267.33537
282.68839
296.09121
307.55302
317.09414
324.74394
330.48427
334.15987
335.64512
-1.7257227
-3.8322474
-6.031223
-8.253257
-10.512642
-12.819178
-15.1831
-17.614845
-20.125104
-22.72486
-25.425422
-28.238467
-31.176074
-34.250761
-37.475528
-40.863884
-44.429894
-48.188204
-52.154084
-56.343453
-60.772916
-65.459786
-70.422114
-75.678706
-81.249143
-87.15379
-93.4138
-100.05111
-107.08844
-114.54924
-122.45769
-130.83863
-139.71751
-149.12028
-159.07331
-169.60323
-180.73682
-192.50078
-204.92154
-218.02498
-231.83617
-246.37898
-261.67573
-277.74677
-294.60993
-312.28003
-330.76822
-350.08139
-370.22135
-391.18412
-412.95907
-435.52799
-458.86423
-482.93166
-507.68375
-533.06251
-558.99759
-585.40535
-612.18797
-639.23279
-666.4117
-693.58076
-720.58007
-747.23396
-773.35146
-798.72722
-823.14285
-846.36872
-868.16624
-888.29074
-906.49474
-922.53174
-936.1605
-947.14952
-955.28181
-960.35967
-962.20979
-960.68871
-955.68629
-947.12819
-934.97924
-919.24556
-899.97553
-877.25961
-851.22916
-822.05418
-789.94004
-755.12344
-717.86761
-678.45711
-637.19224
-594.38343
-550.34572
-505.39352
-459.83577
-413.97162
-368.08683
-322.45067
-277.31364
-232.9058
-189.43571
-147.08996
-106.03324
-66.408843
-28.339489
8.0714701
42.738705
75.593368
106.58146
135.66214
162.80608
187.99372
211.21376
232.46166
251.73832
269.04871
284.3999
297.79933
309.25693
318.7936
326.43924
332.17614
335.8494
337.33367
-1.7155299
-3.8094239
-5.9952627
-8.2040474
-10.449997
-12.742864
-15.092834
-17.510294
-20.005888
-22.590547
-25.275534
-28.072473
-30.993398
-34.050778
-37.257565
-40.627223
-44.173771
-47.911814
-51.85658
-56.023951
-60.4305
-65.093509
-70.031007
-75.261784
-80.805412
-86.682255
-92.913481
-99.521052
-106.52772
-113.957
-121.83315
-130.18111
-139.02644
-148.39527
-158.31412
-168.80988
-179.90956
-191.64019
-204.02855
-217.10092
-230.88283
-245.39869
-260.67141
-276.722
-293.56901
-311.22807
-329.71122
-349.02627
-369.17608
-390.15775
-411.96177
-434.57113
-457.9604
-482.09466
-506.92859
-532.40539
-558.4558
-584.99713
-611.9324
-639.14957
-666.52085
-693.90233
-721.13378
-748.03872
-774.42492
-800.08521
-824.79882
-848.33312
-870.44596
-890.88846
-909.40841
-925.75411
-939.67873
-950.94493
-959.32977
-964.62962
-966.66551
-965.28908
-960.38627
-951.87935
-939.73072
-923.94521
-904.57116
-881.70027
-855.46636
-826.04303
-793.6403
-758.50034
-720.8925
-681.10786
-639.45344
-596.24636
-551.8081
-506.4591
-460.51374
-414.276
-368.03566
-322.06526
-276.61779
-231.92504
-188.19656
-145.61931
-104.35777
-64.554494
-26.331106
10.210498
44.986682
77.930461
108.98981
138.12591
165.31144
190.52883
213.76868
235.02823
254.31009
271.62074
286.96866
300.36254
311.81338
321.34302
328.9821
334.71356
338.38315
339.86587
-1.7019418
-3.7790404
-5.9474076
-8.1385724
-10.366656
-12.641345
-14.972761
-17.371227
-19.847318
-22.411902
-25.076176
-27.851699
-30.750439
-33.784802
-36.967676
-40.312464
-43.833125
-47.544207
-51.460884
-55.598988
-59.975046
-64.606302
-69.510752
-74.707164
-80.215097
-86.054917
-92.247804
-98.815753
-105.78157
-113.16884
-121.00192
-129.30587
-138.10645
-147.42995
-157.30316
-167.75325
-178.80759
-190.4936
-202.83853
-215.86921
-229.61178
-244.09136
-259.33162
-275.35446
-292.17941
-309.82316
-328.29892
-347.61577
-367.77793
-388.78394
-410.62583
-433.28818
-456.74716
-480.96954
-505.91161
-531.51816
-557.7214
-584.43999
-611.57808
-639.02445
-666.65184
-694.3164
-721.85748
-749.09758
-775.84281
-801.88361
-826.99605
-850.94354
-873.47911
-894.34829
-913.29253
-930.0531
-944.37563
-956.0149
-964.73992
-970.33904
-972.62561
-971.44458
-966.67642
-958.23884
-946.09088
-930.23566
-910.72146
-887.64165
-861.13342
-831.37528
-798.58357
-763.0079
-724.92595
-684.63767
-642.4592
-598.71669
-553.74036
-507.85876
-461.39365
-414.65541
-367.93926
-321.52208
-275.66016
-230.58753
-186.51503
-143.63004
-102.09668
-62.05648
-23.629499
13.084359
48.003772
81.064297
112.21658
141.42454
168.66357
193.91878
217.1833
238.45681
257.74413
275.05383
290.39626
303.78174
315.22274
324.7423
332.37207
338.09588
341.76031
343.24086
-1.6851048
-3.7412771
-5.8878508
-8.0570329
-10.262824
-12.514831
-14.823095
-17.197856
-19.649608
-22.189137
-24.827555
-27.576344
-30.447388
-33.453013
-36.606028
-39.919759
-43.40809
-47.085495
-50.967083
-55.06862
-59.406576
-63.998147
-68.861289
-74.014737
-79.478036
-85.271549
-91.416475
-97.934844
-104.84952
-112.18419
-119.96333
-128.21216
-136.95663
-146.2233
-156.03925
-166.43201
-177.42938
-189.0593
-201.34958
-214.32773
-228.02066
-242.45436
-257.65348
-273.641
-290.43768
-308.06155
-326.52727
-345.84552
-366.02222
-387.05773
-408.94601
-431.67362
-455.21882
-479.55044
-504.62686
-530.39486
-556.78856
-583.72834
-611.11979
-638.85282
-666.80083
-694.82016
-722.74963
-750.41059
-777.60708
-804.12662
-829.74133
-854.20967
-877.27866
-898.68679
-918.16749
-935.45316
-950.27988
-962.39238
-971.54943
-977.52917
-980.13513
-979.20353
-974.60782
-966.25975
-954.1141
-938.1717
-918.48074
-895.13673
-868.28112
-838.09876
-804.81407
-768.68621
-730.00353
-689.07733
-646.23541
-601.81549
-556.15888
-509.60448
-462.48338
-415.11411
-367.7987
-320.81949
-274.43686
-228.88759
-184.3841
-141.11418
-99.241412
-58.905959
-20.225824
16.701672
51.798192
85.002547
116.2688
145.56434
172.86803
198.16833
221.46161
242.7506
262.04294
279.34979
294.68384
308.05752
319.48507
328.99109
336.60847
342.32214
345.97973
347.45743
-1.6647515
-3.6958532
-5.8163433
-7.9592214
-10.138337
-12.363204
-14.643762
-16.990153
-19.412775
-21.922312
-24.529782
-27.246564
-30.084446
-33.055657
-36.172911
-39.44944
-42.899036
-46.536088
-50.375619
-54.43332
-58.725591
-63.269566
-68.083149
-73.185039
-78.594758
-84.332664
-90.419972
-96.878756
-103.73195
-111.00335
-118.71756
-126.9
-135.57685
-144.77497
-154.52179
-164.84528
-175.77374
-187.3357
-199.55967
-212.47397
-226.10641
-240.484
-255.6326
-271.57647
-288.33783
-305.93631
-324.38835
-343.70653
-363.89882
-384.96779
-406.90971
-429.7136
-453.36017
-477.82084
-503.05649
-529.01639
-555.63701
-582.84083
-610.53529
-638.61171
-666.94442
-695.39
-723.78685
-751.95491
-779.69588
-806.7938
-833.01613
-858.11537
-881.83132
-903.89396
-924.02697
-941.95198
-957.39336
-970.08357
-979.7688
-986.21463
-989.21246
-988.58765
-984.20485
-975.96846
-963.82786
-947.78106
-927.87609
-904.21102
-876.93263
-846.23354
-812.34816
-775.54747
-736.13299
-694.43003
-650.78076
-605.5371
-559.05401
-511.68304
-463.76667
-415.63331
-367.59325
-319.93539
-272.92497
-226.80203
-181.78074
-138.04927
-95.770422
-55.082573
-16.10112
21.079853
56.385714
89.759292
121.15884
150.55602
177.9339
203.28505
226.60976
247.91443
267.21014
284.51117
299.83303
313.19066
324.60048
334.0889
341.69034
347.39104
351.03991
352.51399
-1.6413856
-3.6433969
-5.7335709
-7.8458665
-9.993966
-12.187272
-14.435611
-16.749011
-19.137753
-21.612407
-24.183875
-26.863422
-29.66272
-32.593887
-35.669523
-38.90275
-42.307254
-45.89732
-49.687874
-53.694515
-57.933559
-62.422067
-67.177882
-72.219657
-77.566882
-83.239909
-89.259969
-95.649178
-102.43055
-109.62799
-117.26628
-125.37104
-133.96873
-143.08652
-152.75227
-162.99444
-173.84191
-185.32389
-197.4697
-210.30858
-223.8694
-238.18037
-253.2687
-269.16018
-285.87872
-303.44583
-321.87999
-341.19602
-361.40432
-382.51003
-404.51215
-427.40257
-451.16497
-475.77377
-501.19289
-527.37455
-554.25804
-581.76842
-609.81536
-638.29199
-667.07381
-696.01787
-724.96212
-753.72504
-782.10571
-809.88419
-836.82254
-862.66636
-887.14697
-909.98433
-930.89063
-949.57466
-965.74688
-979.12507
-989.44031
-996.44309
-999.91019
-999.6537
-995.52758
-987.42726
-975.29557
-959.127
-938.96933
-914.92372
-887.14332
-855.83014
-821.23067
-783.63018
-743.34606
-700.72053
-656.11304
-609.89262
-562.43052
-514.09344
-465.23738
-416.20249
-367.30876
-318.85276
-271.10537
-224.31031
-178.68362
-134.41379
-91.662483
-50.565799
-11.235901
26.237093
61.783048
95.349636
126.90015
156.41132
183.87126
209.27738
232.63462
253.95372
273.24981
290.54082
305.84558
319.18196
330.56893
340.03504
347.61644
353.30091
356.93892
358.4085
-1.6143904
-3.583209
-5.6388465
-7.7163132
-9.8290893
-11.98645
-14.198091
-16.473909
-18.824053
-21.258961
-23.789403
-26.426512
-29.181829
-32.06734
-35.095517
-38.279356
-41.632418
-45.168869
-48.903521
-52.851867
-57.030125
-61.455267
-66.145066
-71.118114
-76.393867
-81.992659
-87.935736
-94.245259
-100.94433
-108.05696
-115.60813
-123.62368
-132.13037
-141.15575
-150.72813
-160.87652
-171.63046
-183.01993
-195.07515
-207.8264
-221.30375
-235.53678
-250.55422
-266.38362
-283.05081
-300.57943
-318.99032
-338.30086
-358.52423
-379.66854
-401.73596
-424.72168
-448.61285
-473.38738
-499.01276
-525.44467
-552.62573
-580.48411
-608.93219
-637.86528
-667.16042
-696.67537
-726.24775
-755.69456
-784.81198
-813.37568
-841.14165
-867.84762
-893.21519
-916.95276
-938.75918
-958.3283
-975.35426
-989.53759
-1000.5916
-1008.2489
-1012.2688
-1012.4476
-1008.6264
-1000.6899
-988.57296
-972.26582
-951.81585
-927.32786
-898.96248
-866.93294
-831.50007
-792.96611
-751.66733
-707.96602
-662.2421
-614.88477
-566.28452
-516.82579
-466.88043
-416.80218
-366.92227
-317.54604
-268.95071
-221.38408
-175.06414
-130.17947
-86.890186
-45.329524
-5.6056854
32.195994
68.010746
101.79199
133.50894
163.1443
190.69203
216.15524
239.54421
260.87475
280.1666
297.44194
312.7234
326.0322
337.39025
346.82851
354.38514
360.04966
363.67435
365.13843
-1.584611
-3.5163465
-5.5333263
-7.5717927
-9.645011
-11.762115
-13.932653
-16.166374
-18.473279
-20.863657
-23.348129
-25.937679
-28.6437
-31.47803
-34.452994
-37.581443
-40.876801
-44.353094
-48.025007
-51.907907
-56.017901
-60.37186
-64.987469
-69.883251
-75.078616
-80.593875
-86.450281
-92.670039
-99.276331
-106.29332
-113.74614
-121.66091
-130.0647
-138.98547
-148.45204
-158.49401
-169.14165
-180.42579
-192.37765
-205.02867
-218.41023
-232.55345
-247.48878
-263.2457
-279.85221
-297.33435
-315.71561
-335.01626
-355.25263
-376.4362
-398.57273
-421.66122
-445.69274
-470.64927
-496.50236
-523.21177
-550.72402
-578.97091
-607.86806
-637.31347
-667.18613
-697.34481
-727.62703
-757.8483
-787.80179
-817.25838
-845.96734
-873.65759
-900.03978
-924.80915
-947.64933
-968.23694
-986.24731
-1001.3609
-1013.2702
-1021.6871
-1026.3505
-1027.0376
-1023.5744
-1015.8327
-1003.7381
-987.27565
-966.49205
-941.49632
-912.45792
-879.60317
-843.20983
-803.60009
-761.13244
-716.19271
-669.18479
-620.52145
-570.61557
-519.87214
-468.68128
-417.41234
-366.4093
-315.98737
-266.43082
-217.9918
-170.89024
-125.31449
-81.422605
-39.344226
0.81723849
38.982155
75.092089
109.10718
141.00356
170.77083
198.40971
223.92979
247.34754
268.68447
287.96562
305.21797
320.46844
333.74206
345.064
354.46797
361.99436
367.63467
371.24325
372.70068
-1.5511732
-3.4418067
-5.4160119
-7.4113387
-9.4408003
-11.513371
-13.638436
-15.825579
-18.084635
-20.42573
-22.859316
-25.396213
-28.047646
-30.825288
-33.741302
-36.808376
-40.039775
-43.449373
-47.051704
-50.862001
-54.896236
-59.171167
-63.704374
-68.514302
-73.620299
-79.042643
-84.80259
-90.922382
-97.425285
-104.33559
-111.67865
-119.48083
-127.76954
-136.57319
-145.92113
-155.84362
-166.3717
-177.53715
-189.37225
-201.90973
-215.18242
-229.2231
-244.06413
-259.73712
-276.27247
-293.69888
-312.04279
-331.3277
-351.57345
-372.79531
-395.00308
-418.20003
-442.38171
-467.53472
-493.63528
-520.6478
-548.52332
-577.19792
-606.59106
-636.60399
-667.11815
-697.99372
-729.06839
-760.15636
-791.04767
-821.50814
-851.27971
-880.08161
-907.61229
-933.55223
-957.56778
-979.31603
-998.45073
-1014.6293
-1027.5202
-1036.8111
-1042.2171
-1043.4931
-1040.4471
-1032.936
-1020.8741
-1004.2401
-983.08
-957.50761
-927.70258
-893.90655
-856.41702
-815.5795
-771.77839
-725.42695
-676.95692
-626.80837
-575.42
-523.22043
-470.62061
-418.00757
-365.73966
-314.14303
-263.50959
-214.0961
-166.12425
-119.78172
-75.223845
-32.57582
8.0647085
46.624851
83.053584
117.31885
149.40473
179.30875
207.03933
232.61343
256.05449
277.39049
296.65238
313.87254
329.08266
342.31202
353.58943
362.95166
370.44152
376.05274
379.64202
381.09151
-1.5151123
-3.3608871
-5.2883252
-7.2364677
-9.2180644
-11.241917
-13.317231
-15.453407
-17.660101
-19.947254
-22.325137
-24.804383
-27.396036
-30.111585
-32.96301
-35.962821
-39.124105
-42.460565
-45.98657
-49.717192
-53.668261
-57.856397
-62.299065
-67.014612
-72.022311
-77.342398
-82.996118
-89.005746
-95.394627
-102.18719
-109.40897
-117.08663
-125.24794
-133.92176
-143.13801
-152.92764
-163.32255
-174.35549
-186.05994
-198.46996
-211.61999
-225.54462
-240.27825
-255.85485
-272.30742
-289.66761
-307.96509
-327.22692
-347.47682
-368.73428
-391.0136
-414.32284
-438.66258
-464.0246
-490.39044
-517.72983
-545.99902
-575.13904
-605.07387
-635.70867
-666.92791
-698.59373
-730.54438
-762.59294
-794.52641
-826.1053
-857.06372
-887.11036
-915.93022
-943.18738
-968.52887
-991.58967
-1011.999
-1029.388
-1043.3975
-1053.6874
-1059.945
-1061.899
-1059.3365
-1052.0967
-1040.0805
-1023.2593
-1001.6779
-975.4554
-944.78339
-909.92124
-871.18939
-828.96048
-783.64898
-735.69992
-685.57725
-633.75244
-580.6938
-526.85687
-472.6762
-418.55873
-364.87874
-311.97439
-260.1458
-209.65438
-160.72332
-113.53905
-68.253312
-24.985866
16.172526
55.156901
91.924849
126.4533
158.73543
188.77776
216.59743
242.21971
265.67582
287.00096
306.23269
323.40932
338.56788
351.74229
362.9654
372.27727
379.72343
385.29999
388.86635
390.30643
-1.4754817
-3.2725105
-5.1492042
-7.0461634
-8.9758379
-10.946839
-12.968172
-15.049045
-17.198912
-19.427514
-21.744922
-24.161569
-26.688295
-29.336388
-32.117628
-35.044327
-38.129376
-41.386288
-44.829246
-48.473148
-52.333655
-56.427237
-60.771224
-65.383846
-70.28429
-75.492732
-81.030395
-86.919574
-93.183685
-99.84729
-106.93613
-114.47714
-122.49845
-131.02942
-140.10056
-149.74355
-159.99117
-170.87723
-182.43647
-194.70439
-207.71713
-221.51123
-236.12332
-251.58988
-267.94677
-285.2288
-303.46919
-322.69889
-342.9459
-364.23432
-386.58346
-410.00668
-434.51015
-460.0915
-486.73824
-514.42614
-543.1174
-572.75877
-603.27954
-634.58951
-666.57691
-699.10647
-732.0175
-765.12235
-798.20513
-831.02091
-863.2956
-894.72653
-924.98405
-953.71417
-980.5424
-1005.079
-1026.9255
-1045.683
-1060.961
-1072.3871
-1079.6169
-1082.3486
-1080.3444
-1073.4227
-1061.469
-1044.4456
-1022.3959
-995.44499
-963.79799
-927.73486
-887.60265
-843.80541
-796.79243
-747.0454
-695.06533
-641.35971
-586.43061
-530.76408
-474.82129
-419.03134
-363.7861
-309.43674
-256.292
-204.61792
-154.63873
-106.53878
-60.46524
-16.531216
25.180709
64.614837
101.73871
136.53956
169.02089
199.19939
227.10198
252.76322
276.22298
297.52447
316.71252
333.83198
348.9257
362.0327
373.1902
382.44188
389.83615
395.37177
398.91112
400.34012
-1.4333146
-3.1779787
-5.0000827
-6.8419619
-8.7157545
-10.629867
-12.593092
-14.614422
-16.703097
-18.868641
-21.120904
-23.470101
-25.926854
-28.502229
-31.207787
-34.055623
-37.058412
-40.229457
-43.582736
-47.132951
-50.895578
-54.886914
-59.124134
-63.625335
-68.409596
-73.497018
-78.908785
-84.667199
-90.795738
-97.319084
-104.26317
-111.65522
-119.52374
-127.89857
-136.81084
-146.293
-156.37874
-167.10299
-178.5018
-190.61221
-203.47217
-217.12027
-231.59554
-246.93715
-263.18403
-280.37441
-298.54533
-317.732
-337.96704
-359.27963
-381.69454
-405.23101
-429.90141
-455.70985
-482.65058
-510.70615
-539.84554
-570.02208
-601.17122
-633.20829
-666.02611
-699.49274
-733.44927
-767.70781
-802.04986
-836.22512
-869.95095
-902.91267
-934.7648
-965.13357
-993.62074
-1019.809
-1043.2688
-1063.5672
-1080.278
-1092.9918
-1101.3277
-1104.9489
-1103.5877
-1097.0381
-1085.1677
-1067.9282
-1045.3607
-1017.5971
-984.85817
-947.44753
-905.743
-860.18499
-811.26296
-759.5009
-705.44231
-649.63585
-592.62196
-534.92117
-477.02441
-419.38537
-362.41515
-306.47886
-251.89419
-198.93154
-147.8155
-98.727385
-51.808477
-7.1638436
35.133608
75.03897
112.53124
147.60936
180.28857
210.59692
238.57229
264.25952
287.70808
308.96994
328.09792
345.14401
360.15737
373.18255
384.26151
393.4418
400.77493
406.26252
409.77025
411.18631
-1.3877687
-3.0763554
-4.8400644
-6.6230353
-8.4370598
-10.290322
-12.191384
-14.149009
-16.172202
-18.270253
-20.452778
-22.729754
-25.111562
-27.609031
-30.233485
-32.996778
-35.911353
-38.99028
-42.247313
-45.696935
-49.354415
-53.235857
-57.35826
-61.739567
-66.398727
-71.355746
-76.631751
-82.249034
-88.231117
-94.602792
-101.39018
-108.62077
-116.32346
-124.52857
-133.26786
-142.57456
-152.48332
-163.03023
-174.25269
-186.18938
-198.88012
-212.36571
-226.68769
-241.88809
-258.00912
-275.09269
-293.17994
-312.31063
-332.52244
-353.85004
-376.32419
-399.97055
-424.80833
-450.84884
-478.09381
-506.53343
-536.14436
-566.88744
-598.70528
-631.51971
-665.22913
-699.70588
-734.79361
-770.30491
-806.01915
-841.68084
-876.99867
-911.64531
-945.25838
-977.44264
-1007.7738
-1035.8039
-1061.0687
-1083.0969
-1101.4216
-1115.5911
-1125.1825
-1129.8192
-1129.1973
-1123.0821
-1111.3212
-1093.853
-1070.7155
-1042.0484
-1008.0902
-969.17205
-925.7072
-878.17808
-827.12056
-773.10721
-716.73029
-658.58537
-599.25639
-539.30268
-479.24834
-419.57419
-360.71219
-303.04221
-246.89101
-192.53291
-140.19192
-90.045024
-42.226129
3.1694091
46.080083
86.473497
124.34177
159.69717
192.56807
222.99532
251.0289
276.72503
300.14369
321.34649
340.39489
357.34861
372.26366
385.19052
396.17623
405.27248
412.53407
417.96568
421.43665
422.83768
-1.3397301
-2.9687721
-4.6704111
-6.3907505
-8.1412218
-9.9297722
-11.76472
-13.654576
-15.6081
-17.634329
-19.742624
-21.942706
-24.2447
-26.659178
-29.197202
-31.870371
-34.690871
-37.67152
-40.825825
-44.168027
-47.713167
-51.477132
-55.476721
-59.729698
-64.254862
-69.072101
-74.202461
-79.668203
-85.492873
-91.701356
-98.319945
-105.37638
-112.89994
-120.92143
-129.47325
-138.58941
-148.30556
-158.65894
-169.68839
-181.43427
-193.93837
-207.24378
-221.39468
-236.43616
-252.41387
-269.37362
-287.36096
-306.42053
-326.59542
-347.92628
-370.45034
-394.20027
-419.20279
-445.47717
-473.0334
-501.87025
-531.97303
-563.31113
-595.83542
-629.47538
-664.1361
-699.69531
-736.00027
-772.86489
-810.06711
-847.34667
-884.40357
-920.89743
-956.44794
-990.63677
-1023.0111
-1053.0893
-1080.3683
-1104.3339
-1124.4727
-1140.2851
-1151.2997
-1157.0933
-1157.3202
-1151.7126
-1140.0934
-1122.3853
-1098.6228
-1068.9538
-1033.6372
-993.03579
-947.60403
-897.87283
-844.43154
-787.90865
-728.9522
-668.21121
-606.31882
-543.87788
-481.44937
-419.54381
-358.61561
-299.06013
-241.21308
-185.35194
-131.69895
-80.425144
-31.655239
14.527066
58.073649
98.966573
137.21294
172.84008
205.89114
236.42113
264.49346
290.17685
313.54277
334.66326
353.60916
370.44854
385.2447
398.0545
408.93035
417.92836
425.10679
430.47355
433.90204
435.28572
-1.2885636
-2.8545564
-4.4905202
-6.144597
-7.8278266
-9.5479029
-11.312881
-13.131009
-15.010777
-16.960954
-18.99063
-21.109251
-23.326666
-25.653168
-28.099543
-30.677109
-33.397776
-36.274086
-39.319275
-42.547323
-45.973014
-49.611995
-53.480839
-57.597108
-61.979423
-66.647525
-71.622358
-76.926124
-82.582372
-88.616052
-95.053608
-101.92303
-109.25393
-117.07762
-125.4271
-134.3372
-143.84453
-153.98757
-164.8066
-176.3437
-188.6427
-201.74908
-215.70979
-230.5731
-246.38829
-263.20531
-281.07436
-300.04531
-320.16703
-341.48658
-364.0482
-387.89219
-413.05344
-439.55996
-467.43091
-496.67458
-527.286
-559.2443
-592.50979
-627.0209
-662.69074
-699.4037
-737.01189
-775.3317
-814.14053
-853.17396
-892.12359
-930.63571
-968.31123
-1004.7071
-1039.3397
-1071.6901
-1101.2123
-1127.3439
-1149.519
-1167.1834
-1179.8099
-1186.9212
-1188.1222
-1183.1071
-1171.6691
-1153.7124
-1129.2663
-1098.4882
-1061.6604
-1019.1821
-971.55536
-919.36725
-863.26885
-803.95292
-742.13139
-678.51407
-613.78968
-548.60977
-483.57613
-419.23168
-356.05482
-294.45685
-234.78207
-177.31007
-122.25966
-69.794
-20.026441
26.973254
71.172618
112.57037
151.19068
187.07783
220.29146
250.90232
278.98858
304.63262
327.9184
348.92925
367.7461
384.44593
399.09983
411.77141
422.51881
431.40274
438.48507
443.77716
447.15683
448.52059
-1.2349496
-2.7346
-4.3014116
-5.8857042
-7.4981105
-9.1460564
-10.837318
-12.579863
-14.381897
-16.251902
-18.198679
-20.23138
-22.359559
-24.593212
-26.942824
-29.419415
-32.034592
-34.800602
-37.730386
-40.837634
-44.136851
-47.643416
-51.373651
-55.344884
-59.57553
-64.085158
-68.894575
-74.025899
-79.502647
-85.349812
-91.593959
-98.263294
-105.38777
-112.99913
-121.13103
-129.81906
-139.10083
-149.01602
-159.60639
-170.91579
-182.99015
-195.8774
-209.62736
-224.29162
-239.92324
-256.57654
-274.30662
-293.16887
-313.21836
-334.50897
-357.09252
-381.01749
-406.32773
-433.06076
-461.24586
-490.90188
-522.03472
-554.6345
-588.67238
-624.09716
-660.83148
-698.76792
-737.76493
-777.64272
-818.17937
-859.10725
-900.11003
-940.82068
-980.82063
-1019.6406
-1056.7638
-1091.6305
-1123.6472
-1152.1974
-1176.6562
-1196.4067
-1210.8581
-1219.4698
-1221.7892
-1217.4656
-1206.2572
-1188.0457
-1162.854
-1130.8496
-1092.3419
-1047.7722
-997.6976
-942.77022
-883.71249
-821.29113
-756.29119
-689.49163
-621.64387
-553.45386
-485.5684
-418.56555
-352.94908
-289.14646
-227.50984
-168.31942
-111.78856
-58.070154
-7.2635866
40.577949
85.440238
127.34114
166.32416
202.45266
235.80462
266.46816
294.53764
320.11031
343.28365
364.15312
382.81045
399.34208
413.82738
426.33708
436.9353
445.68757
452.65952
457.86611
461.18998
462.531
-1.1784807
-2.6085162
-4.1027954
-5.613895
-7.1520129
-8.7242902
-10.338208
-12.001436
-13.72188
-15.507717
-17.367438
-19.309886
-21.344299
-23.480356
-25.728219
-28.098587
-30.602746
-33.252618
-36.060826
-39.040746
-42.206576
-45.573396
-49.157248
-52.975198
-57.045423
-61.387286
-66.021424
-70.969837
-76.255978
-81.904846
-87.943094
-94.399114
-101.30316
-108.68741
-116.58609
-125.03559
-134.07447
-143.74363
-154.08632
-165.14817
-176.97723
-189.62397
-203.14113
-217.58375
-233.00885
-249.47527
-267.04326
-285.77405
-305.72924
-326.97004
-349.55629
-373.54538
-398.99077
-425.94038
-454.43459
-484.50393
-516.16642
-549.42456
-584.26187
-620.63913
-658.49025
-697.71775
-738.18816
-779.72725
-822.11527
-865.08261
-908.30589
-951.40502
-993.94152
-1035.4187
-1075.2837
-1112.9331
-1147.7204
-1178.969
-1205.9872
-1228.0871
-1244.6044
-1254.9254
-1258.5294
-1255.0131
-1244.0933
-1225.6246
-1199.6211
-1166.262
-1125.8874
-1078.9874
-1026.1833
-968.20251
-905.84995
-839.97762
-771.45429
-701.13758
-629.84957
-558.35685
-487.35567
-417.46199
-349.20616
-283.03168
-219.29734
-158.28197
-100.19094
-45.16394
6.7166301
55.41722
100.94482
143.3392
182.66578
219.00922
252.46789
283.14902
311.1646
336.62804
359.65136
380.343
398.80616
415.13732
429.42455
441.74602
452.17212
460.77336
467.61923
472.72844
475.98887
477.30405
-1.1196415
-2.4769729
-3.8954694
-5.3300851
-6.7905656
-8.2837528
-9.8168169
-11.397113
-13.032229
-14.730021
-16.498653
-18.346637
-20.282878
-22.316713
-24.457965
-26.716987
-29.104718
-31.632735
-34.313313
-37.159488
-40.185121
-43.404967
-46.834753
-50.49125
-54.392362
-58.55721
-63.006228
-67.761254
-72.845642
-78.284355
-84.104095
-90.333398
-97.002776
-104.14481
-111.79428
-119.9883
-128.7664
-138.17066
-148.2458
-159.03925
-170.60121
-182.98469
-196.24548
-210.4421
-225.63569
-241.88976
-259.26997
-277.84365
-297.6793
-318.84585
-341.41176
-365.44389
-391.00613
-418.15767
-446.95101
-477.42954
-509.62476
-543.55304
-579.21194
-616.57608
-655.59251
-696.17577
-738.20255
-781.50616
-825.87097
-871.02699
-916.64503
-962.3326
-1007.6312
-1052.0155
-1094.8948
-1135.6176
-1173.4797
-1207.7372
-1237.6233
-1262.3691
-1281.2261
-1293.4954
-1298.5761
-1296.0031
-1285.4438
-1266.7196
-1239.834
-1204.9785
-1162.5289
-1113.0318
-1057.1832
-995.79789
-929.77667
-860.06978
-787.64202
-713.44046
-638.36674
-563.25493
-488.85545
-415.82481
-344.72083
-276.00249
-210.03348
-147.0886
-87.362068
-30.976927
22.005036
71.573434
117.75983
160.62899
200.27103
236.79444
270.32007
300.97611
328.89374
354.20378
377.03384
397.50618
415.73613
431.83073
445.88712
457.99126
468.21999
476.64896
483.35157
488.35045
491.53912
492.8251
-1.0582183
-2.3398255
-3.6794083
-5.0343789
-6.4140054
-7.8248151
-9.2736509
-10.767538
-12.313728
-13.919739
-15.593389
-17.342842
-19.176647
-21.103783
-23.133708
-25.276407
-27.542448
-29.943037
-32.490075
-35.196228
-38.07499
-41.140758
-44.408913
-47.895893
-51.619294
-55.597955
-59.852062
-64.403255
-69.274737
-74.491395
-80.079929
-86.068974
-92.489254
-99.373698
-106.7576
-114.67875
-123.1776
-132.2974
-142.0843
-152.58752
-163.85941
-175.95555
-188.93479
-202.85924
-217.79422
-233.80811
-250.97214
-269.36002
-289.04749
-310.11161
-332.63
-356.67963
-382.33556
-409.66919
-438.7462
-469.62412
-502.34934
-536.95377
-573.45082
-611.83095
-652.0566
-694.05662
-737.72026
-782.89082
-829.35907
-876.85679
-925.05066
-973.53692
-1021.8374
-1069.3973
-1115.5858
-1159.6998
-1200.972
-1238.5835
-1271.6831
-1299.4098
-1320.9182
-1335.4105
-1342.1908
-1340.7211
-1330.6094
-1311.6374
-1283.7947
-1247.2862
-1202.5287
-1150.1351
-1090.8879
-1025.7045
-955.59642
-881.62772
-804.87337
-726.3822
-647.1454
-568.07197
-489.97134
-413.54314
-339.37318
-267.9347
-199.59384
-134.61806
-73.186504
-15.401379
38.700322
89.135438
135.96389
179.27891
219.19838
255.85725
289.4012
319.98124
347.74938
372.8551
395.44264
415.6489
433.60196
449.41989
463.20928
475.06408
485.06783
493.30138
499.84207
504.71655
507.82443
509.07757
-0.99454919
-2.1975786
-3.4552531
-4.7275466
-6.0232317
-7.3485065
-8.7098709
-10.114003
-11.567805
-13.078434
-14.65335
-16.300344
-18.027593
-19.843694
-21.757719
-23.779263
-25.918498
-28.186229
-30.593958
-33.153951
-35.879303
-38.78402
-41.883098
-45.192608
-48.729795
-52.513174
-56.562641
-60.899585
-65.547013
-70.529679
-75.87423
-81.609344
-87.765898
-94.377113
-101.47873
-109.10918
-117.30978
-126.12487
-135.60202
-145.79218
-156.74985
-168.53316
-181.20405
-194.82826
-209.47537
-225.21876
-242.13538
-260.30558
-279.81263
-300.74218
-323.18143
-347.21817
-372.93938
-400.4296
-429.76883
-461.03001
-494.27601
-529.55601
-566.90128
-606.32037
-647.79352
-691.26658
-736.64415
-783.78235
-832.48118
-882.47682
-933.43407
-984.9396
-1036.4963
-1087.5197
-1137.3371
-1185.1901
-1230.2423
-1271.5922
-1308.2934
-1339.3801
-1363.8957
-1380.9274
-1389.6668
-1389.4889
-1379.9307
-1360.7258
-1331.8458
-1293.5105
-1246.1839
-1190.556
-1127.5112
-1058.0861
-983.42177
-904.71381
-823.1638
-739.9364
-656.12354
-572.71715
-490.59075
-410.48936
-333.02665
-258.68824
-187.83938
-120.73594
-57.53724
1.680299
56.909376
108.1987
155.64082
199.36126
239.509
276.24837
309.75224
340.19648
367.75551