/*--------------------------------*- C++ -*----------------------------------*\
| =========                 |                                                 |
| \\      /  F ield         | foam-extend: Open Source CFD                    |
|  \\    /   O peration     | Version:     4.1                                |
|   \\  /    A nd           | Web:         http://www.foam-extend.org         |
|    \\/     M anipulation  |                                                 |
\*---------------------------------------------------------------------------*/
FoamFile
{
    version     2.0;
    format      ascii;
    class       surfaceScalarField;
    location    "0.35";
    object      phi;
}
// * * * * * * * * * * * * * * * * * * * * * * * * * * * * * * * * * * * * * //

dimensions      [0 3 -1 0 0 0 0];

internalField   nonuniform List<scalar> 
32976
(
-0.24552728
2.3153563e-05
-0.24555052
2.3236101e-05
-0.24557394
2.3419322e-05
-0.24559764
2.3707272e-05
-0.24562174
2.4100435e-05
-0.24564635
2.4600662e-05
-0.24567155
2.5209399e-05
-0.24569748
2.5929292e-05
-0.24572425
2.6762555e-05
-0.24575196
2.7712635e-05
-0.24578074
2.87825e-05
-0.24581072
2.9976405e-05
-0.24584202
3.129806e-05
-0.24587477
3.275253e-05
-0.24590911
3.4344247e-05
-0.24594519
3.6079074e-05
-0.24598315
3.7962127e-05
-0.24602315
4.0000042e-05
-0.24606535
4.2198564e-05
-0.24610992
4.4565044e-05
-0.24615702
4.7105766e-05
-0.24620685
4.9828712e-05
-0.24625959
5.2740569e-05
-0.24631544
5.5849809e-05
-0.24637461
5.9163333e-05
-0.2464373
6.26899e-05
-0.24650373
6.6436352e-05
-0.24657414
7.0411448e-05
-0.24664877
7.4621607e-05
-0.24672784
7.9075188e-05
-0.24681162
8.3777694e-05
-0.24690035
8.8736189e-05
-0.24699431
9.3956084e-05
-0.24709375
9.9440573e-05
-0.24719895
0.00010519433
-0.24731016
0.00011121734
-0.24742767
0.00011751124
-0.24755175
0.00012407198
-0.24768264
0.00013089692
-0.24782062
0.00013797659
-0.24796592
0.00014530254
-0.24811878
0.00015285843
-0.24827941
0.00016062736
-0.24844799
0.00016858566
-0.2486247
0.00017670529
-0.24880965
0.00018495237
-0.24900294
0.00019328668
-0.2492046
0.0002016615
-0.24941462
0.0002100223
-0.24963293
0.00021830695
-0.24985937
0.00022644491
-0.25009373
0.00023435686
-0.25033568
0.00024195429
-0.25058482
0.00024913985
-0.25084063
0.00025580623
-0.25110247
0.00026183735
-0.25136958
0.00026710823
-0.25164106
0.00027148569
-0.25191589
0.0002748292
-0.25219288
0.00027699271
-0.25247071
0.00027782514
-0.25274788
0.00027717362
-0.25302277
0.00027488534
-0.25329358
0.00027081061
-0.25355838
0.00026480617
-0.25381512
0.00025673883
-0.25406161
0.00024649005
-0.25429557
0.00023395923
-0.25451464
0.00021906926
-0.25471641
0.00020177058
-0.25489846
0.00018204562
-0.25505837
0.00015991286
-0.2551938
0.00013543071
-0.2553025
0.00010869959
-0.25538237
7.9864367e-05
-0.25543148
4.9114717e-05
-0.25544817
1.66852e-05
-0.25543102
-1.7145492e-05
-0.25537896
-5.2063287e-05
-0.25529123
-8.7722237e-05
-0.25516749
-0.00012374958
-0.25500773
-0.00015975386
-0.2548124
-0.00019533382
-0.25458231
-0.00023008789
-0.25431869
-0.00026362379
-0.25402312
-0.000295568
-0.25369754
-0.00032557453
-0.25334421
-0.00035333278
-0.25296564
-0.00037857406
-0.25256456
-0.00040107646
-0.25214389
-0.0004206689
-0.25170666
-0.00043723112
-0.25125596
-0.00045069512
-0.25079492
-0.00046104262
-0.25032662
-0.0004683022
-0.24985407
-0.00047254499
-0.2493802
-0.00047387939
-0.24890775
-0.00047244638
-0.24843934
-0.0004684115
-0.24797738
-0.00046196079
-0.24752408
-0.00045329385
-0.24708146
-0.00044261846
-0.24665132
-0.00043014528
-0.24623524
-0.0004160842
-0.2458346
-0.00040063862
-0.24545059
-0.000384004
-0.24508423
-0.00036636433
-0.24473634
-0.00034789036
-0.2444076
-0.00032873798
-0.24409855
-0.00030904812
-0.24380961
-0.00028894484
-0.24354107
-0.00026853678
-0.24329315
-0.0002479167
-0.24306599
-0.00022716226
-0.24285965
-0.00020633667
-0.24267416
-0.00018549009
-0.2425095
-0.00016465984
-0.24236563
-0.00014387242
-0.24224249
-0.00012314427
-0.24214
-0.00010248316
-0.24205812
-8.1889509e-05
-0.24199676
-6.1357778e-05
-0.24195588
-4.0876772e-05
-2.0430569e-05
-0.24553733
4.6260223e-05
-0.24556052
4.6425899e-05
-0.2455839
4.6792127e-05
-0.24560756
4.7367573e-05
-0.24563161
4.8153249e-05
-0.24565616
4.9152872e-05
-0.24568132
5.0369342e-05
-0.2457072
5.180795e-05
-0.24573391
5.3473122e-05
-0.24576157
5.5371755e-05
-0.2457903
5.7509783e-05
-0.24582022
5.9895719e-05
-0.24585145
6.2536985e-05
-0.24588415
6.544371e-05
-0.24591843
6.8624762e-05
-0.24595444
7.2091871e-05
-0.24599233
7.5855276e-05
-0.24603226
7.9928253e-05
-0.24607438
8.4322301e-05
-0.24611887
8.9052135e-05
-0.2461659
9.4130338e-05
-0.24621564
9.9572885e-05
-0.24626829
0.00010539317
-0.24632405
0.00011160817
-0.24638312
0.00011823171
-0.24644571
0.00012528134
-0.24651205
0.00013277078
-0.24658235
0.0001407176
-0.24665686
0.00014913469
-0.24673583
0.00015803882
-0.24681949
0.00016744108
-0.24690811
0.00017735567
-0.24700195
0.0001877935
-0.24710127
0.00019876107
-0.24720634
0.00021026782
-0.24731744
0.00022231387
-0.24743483
0.00023490262
-0.24755878
0.00024802615
-0.24768957
0.00026167931
-0.24782743
0.00027584336
-0.24797263
0.00029050162
-0.2481254
0.00030562157
-0.24828594
0.00032116968
-0.24845445
0.00033709886
-0.2486311
0.00035335323
-0.24881601
0.00036986529
-0.24900928
0.00038655486
-0.24921095
0.00040332875
-0.249421
0.0004200781
-0.24963938
0.0004366789
-0.24986592
0.00045299021
-0.25010042
0.00046885356
-0.25034256
0.00048409203
-0.25059193
0.00049851088
-0.25084802
0.00051189546
-0.25111019
0.00052401344
-0.2513777
0.00053461457
-0.25164964
0.00054343207
-0.251925
0.00055018429
-0.25220259
0.00055457839
-0.25248107
0.00055631131
-0.25275897
0.00055507617
-0.25303465
0.00055056606
-0.25330632
0.00054248012
-0.25357205
0.00053053016
-0.25382976
0.00051444797
-0.25407726
0.00049399457
-0.25431227
0.00046896675
-0.25453241
0.00043920832
-0.25473526
0.0004046182
-0.25491837
0.00036515947
-0.25507932
0.00032086756
-0.25521575
0.00027185813
-0.25532538
0.00021833124
-0.2554061
0.00016057648
-0.25545595
9.8973723e-05
-0.25547326
3.3993258e-05
-0.2554566
-3.3807136e-05
-0.25540487
-0.00010379676
-0.25531731
-0.00017528054
-0.25519355
-0.00024750944
-0.25503361
-0.00031969669
-0.2548379
-0.00039103564
-0.25460727
-0.00046071898
-0.25434294
-0.00052795795
-0.25404651
-0.00059200165
-0.25371993
-0.00065215464
-0.25336547
-0.0007077928
-0.25298566
-0.0007583765
-0.25258328
-0.00080346039
-0.25216125
-0.00084270157
-0.25172262
-0.0008758595
-0.25127051
-0.00090279882
-0.25080807
-0.0009234843
-0.2503384
-0.00093797488
-0.24986453
-0.00094641498
-0.24938939
-0.0009490239
-0.24891575
-0.00094608619
-0.24844622
-0.00093793562
-0.24798324
-0.00092494685
-0.24752901
-0.00090752157
-0.24708555
-0.0008860776
-0.24665466
-0.0008610383
-0.24623792
-0.00083282521
-0.24583671
-0.00080184661
-0.24545222
-0.00076849462
-0.24508544
-0.00073313817
-0.24473721
-0.00069611937
-0.2444082
-0.00065775048
-0.24409894
-0.00061831355
-0.24380982
-0.00057805676
-0.24354116
-0.00053719729
-0.24329316
-0.00049592045
-0.24306594
-0.00045438119
-0.24285957
-0.00041270555
-0.24267407
-0.00037099339
-0.24250941
-0.00032931886
-0.24236555
-0.00028773442
-0.24224242
-0.00024627241
-0.24213995
-0.00020494783
-0.24205808
-0.00016376094
-0.24199674
-0.00012270008
-0.24195588
-8.1742426e-05
-4.085579e-05
-0.24555674
6.9276116e-05
-0.24557984
6.9524497e-05
-0.24560312
7.0073095e-05
-0.24562669
7.0935097e-05
-0.24565065
7.2112006e-05
-0.2456751
7.3609403e-05
-0.24570016
7.543164e-05
-0.24572594
7.7586655e-05
-0.24575255
8.0081088e-05
-0.24578011
8.2925283e-05
-0.24580872
8.6128143e-05
-0.24583853
8.9702441e-05
-0.24586965
9.3659312e-05
-0.24590222
9.8013956e-05
-0.24593638
0.00010277968
-0.24597226
0.00010797409
-0.24601002
0.00011361257
-0.2460498
0.00011971503
-0.24609178
0.00012629876
-0.24613611
0.00013338585
-0.24618298
0.00014099521
-0.24623256
0.00014915084
-0.24628504
0.0001578729
-0.24634062
0.00016718689
-0.2463995
0.00017711363
-0.2464619
0.00018767953
-0.24652803
0.00019890528
-0.24659813
0.00021081733
-0.24667243
0.00022343515
-0.24675118
0.00023678407
-0.24683462
0.00025088086
-0.24692301
0.00026574705
-0.24701661
0.00028139921
-0.2471157
0.00029784735
-0.24722054
0.00031510592
-0.2473314
0.00033317541
-0.24744856
0.00035206125
-0.24757228
0.00037175197
-0.24770284
0.00039224024
-0.2478405
0.00041349844
-0.2479855
0.000435502
-0.24813808
0.00045820271
-0.24829846
0.00048155081
-0.24846684
0.00050547624
-0.24864338
0.00052989578
-0.24882822
0.00055470881
-0.24902147
0.00057979567
-0.24922315
0.00060501717
-0.24943329
0.00063021061
-0.2496518
0.00065519047
-0.24987855
0.00067974581
-0.25011334
0.00070363925
-0.25035585
0.00072660563
-0.25060569
0.00074835288
-0.25086236
0.00076855886
-0.25112522
0.00078687466
-0.25139353
0.00080292417
-0.2516664
0.0008163062
-0.25194282
0.00082659686
-0.25222159
0.00083335503
-0.25250141
0.00083612384
-0.25278077
0.00083444023
-0.25305804
0.0008278406
-0.25333143
0.00081586996
-0.253599
0.00079809191
-0.25385865
0.00077409963
-0.25410818
0.00074352983
-0.25434529
0.00070607271
-0.25456757
0.00066148899
-0.25477257
0.00060962217
-0.25495783
0.00055041239
-0.25512087
0.00048390886
-0.25525929
0.00041028198
-0.25537079
0.00032982983
-0.2554532
0.00024298611
-0.25550455
0.00015032153
-0.2555231
5.2543763e-05
-0.2555074
-4.9507611e-05
-0.25545631
-0.00015488013
-0.25536907
-0.00026252337
-0.25524528
-0.00037130494
-0.25508494
-0.00048003486
-0.25488848
-0.00058749274
-0.25465674
-0.00069245691
-0.25439097
-0.00079373379
-0.25409278
-0.00089018722
-0.25376417
-0.00098076535
-0.25340744
-0.0010645247
-0.25302516
-0.0011406503
-0.25262015
-0.0012084704
-0.25219539
-0.0012674688
-0.25175396
-0.0013172849
-0.25129904
-0.0013577173
-0.25083381
-0.0013887168
-0.25036141
-0.0014103762
-0.24988491
-0.001422918
-0.24940725
-0.0014266772
-0.24893125
-0.0014220874
-0.24845953
-0.0014096559
-0.24799453
-0.0013899514
-0.24753847
-0.0013635826
-0.24709336
-0.0013311819
-0.24666101
-0.0012933894
-0.24624299
-0.0012508419
-0.24584068
-0.0012041553
-0.24545526
-0.0011539209
-0.2450877
-0.0011006943
-0.24473883
-0.0010449902
-0.2444093
-0.00098727803
-0.24409964
-0.00092798141
-0.24381022
-0.00086747267
-0.24354134
-0.00080607724
-0.24329319
-0.00074407249
-0.24306588
-0.00068169001
-0.24285947
-0.00061911778
-0.24267396
-0.00055650445
-0.24250932
-0.00049395992
-0.24236549
-0.00043156159
-0.2422424
-0.00036935659
-0.24213999
-0.00030736599
-0.24205816
-0.00024558876
-0.24199685
-0.00018400604
-0.24195601
-0.00012258234
-6.12679e-05
-0.245585
9.2155979e-05
-0.24560796
9.2486665e-05
-0.24563111
9.3216733e-05
-0.24565454
9.4363875e-05
-0.24567835
9.5930086e-05
-0.24570267
9.7922811e-05
-0.24572758
0.00010034786
-0.24575321
0.00010321581
-0.24577967
0.00010653552
-0.24580706
0.00011032078
-0.24583552
0.00011458347
-0.24586516
0.00011934062
-0.2458961
0.00012460708
-0.24592849
0.00013040313
-0.24596246
0.00013674653
-0.24599815
0.00014366076
-0.2460357
0.00015116637
-0.24607528
0.00015928994
-0.24611703
0.00016805456
-0.24616113
0.00017748973
-0.24620776
0.00018762074
-0.24625709
0.00019847967
-0.24630931
0.00021009348
-0.24636462
0.00022249628
-0.24642322
0.00023571597
-0.24648533
0.00024978792
-0.24655116
0.0002647399
-0.24662095
0.00028060738
-0.24669494
0.00029741659
-0.24677335
0.00031520155
-0.24685646
0.000333985
-0.24694451
0.00035379596
-0.24703776
0.00037465697
-0.2471365
0.00039658184
-0.24724098
0.00041959036
-0.24735149
0.00044368378
-0.2474683
0.00046886999
-0.24759168
0.00049513442
-0.24772191
0.00052246808
-0.24785925
0.00055083498
-0.24800395
0.0005802033
-0.24815626
0.00061050972
-0.24831639
0.00064168896
-0.24848457
0.00067364867
-0.24866095
0.00070627907
-0.24884569
0.0007394471
-0.24903889
0.00077299438
-0.24924061
0.00080673647
-0.24945085
0.00084045751
-0.24966957
0.0008739111
-0.24989664
0.00090681686
-0.25013186
0.00093885891
-0.25037494
0.00096968411
-0.25062549
0.00099890314
-0.25088302
0.0010260862
-0.25114691
0.0010507672
-0.25141643
0.0010724435
-0.2516907
0.0010905781
-0.25196871
0.0011046033
-0.25224928
0.0011139273
-0.2525311
0.001117937
-0.25281266
0.0011160095
-0.25309234
0.0011075209
-0.25336833
0.0010918575
-0.25363867
0.0010684296
-0.25390126
0.0010366866
-0.25415386
0.00099613479
-0.25439414
0.00094635191
-0.25461966
0.00088700946
-0.25482793
0.00081788961
-0.25501642
0.00073890406
-0.25518262
0.00065011102
-0.25532407
0.00055173182
-0.2554384
0.0004441601
-0.25552339
0.00032797272
-0.255577
0.00020393208
-0.25559744
7.2985799e-05
-0.25558321
-6.3740073e-05
-0.25553313
-0.00020496395
-0.25544638
-0.00034927118
-0.25532255
-0.00049513536
-0.25516163
-0.00064095138
-0.25496405
-0.00078507234
-0.25473066
-0.00092584918
-0.25446272
-0.0010616707
-0.25416191
-0.0011910036
-0.25383024
-0.0013124289
-0.25347009
-0.0014246749
-0.2530841
-0.0015266445
-0.25267513
-0.0016174349
-0.25224625
-0.0016963548
-0.25180061
-0.0017629233
-0.25134145
-0.0018168757
-0.25087202
-0.0018581525
-0.2503955
-0.0018868865
-0.24991504
-0.0019033848
-0.24943361
-0.0019081061
-0.24895406
-0.0019016411
-0.24847903
-0.0018846789
-0.24801099
-0.00185799
-0.24755218
-0.0018223977
-0.2471046
-0.0017787561
-0.24667007
-0.001727928
-0.24625014
-0.0016707707
-0.24584618
-0.0016081125
-0.24545935
-0.0015407469
-0.24509063
-0.001469419
-0.2447408
-0.0013948181
-0.24441051
-0.001317572
-0.24410024
-0.0012382464
-0.24381038
-0.0011573378
-0.24354118
-0.0010752795
-0.24329281
-0.00099244017
-0.24306537
-0.00090912698
-0.2428589
-0.00082558859
-0.24267338
-0.00074202097
-0.24250878
-0.00065856828
-0.24236501
-0.00057533119
-0.24224199
-0.00049236997
-0.24213965
-0.00040971011
-0.24205789
-0.00032734759
-0.24199664
-0.00024525469
-0.24195584
-0.00016338162
-8.1659164e-05
-0.2456226
0.00011485477
-0.24564539
0.00011526765
-0.24566835
0.00011617808
-0.24569159
0.00011760849
-0.24571522
0.00011956144
-0.24573935
0.00012204625
-0.24576407
0.00012507018
-0.2457895
0.00012864647
-0.24581575
0.00013278617
-0.24584294
0.00013750654
-0.24587117
0.00014282241
-0.24590059
0.00014875508
-0.24593131
0.00015532314
-0.24596345
0.00016255194
-0.24599717
0.00017046371
-0.2460326
0.00017908783
-0.24606988
0.00018845001
-0.24610918
0.00019858355
-0.24615064
0.00020951736
-0.24619444
0.00022128842
-0.24624074
0.00023392842
-0.24628974
0.00024747759
-0.24634162
0.00026196979
-0.24639657
0.00027744782
-0.2464548
0.00029394679
-0.24651652
0.00031151114
-0.24658196
0.00033017588
-0.24665134
0.0003499857
-0.2467249
0.00037097377
-0.24680288
0.00039318307
-0.24688554
0.00041664253
-0.24697313
0.00044138904
-0.24706592
0.00046745144
-0.24716419
0.00049484773
-0.2472682
0.00052360351
-0.24737824
0.00055372129
-0.24749458
0.00058521195
-0.24761751
0.00061805846
-0.24774729
0.00065225082
-0.2478842
0.00068774543
-0.2480285
0.00072450397
-0.24818044
0.0007624489
-0.24834025
0.00080150029
-0.24850815
0.00084154446
-0.24868431
0.000882446
-0.24886891
0.00092404046
-0.24906204
0.00096613174
-0.2492638
0.0010084911
-0.24947419
0.0010508505
-0.24969318
0.0010929035
-0.24992067
0.0011343011
-0.25015646
0.0011746494
-0.25040028
0.0012135077
-0.25065177
0.0012503896
-0.25091044
0.0012847573
-0.2511757
0.0013160272
-0.25144682
0.0013435686
-0.25172295
0.0013667076
-0.25200308
0.0013847299
-0.25228604
0.0013968908
-0.25257052
0.0014024165
-0.25285503
0.0014005206
-0.25313793
0.0013904132
-0.25341739
0.0013713162
-0.25369144
0.0013424801
-0.25395795
0.0013032025
-0.25421467
0.001252852
-0.2544592
0.0011908855
-0.25468907
0.001116877
-0.25490172
0.0010305393
-0.25509456
0.00093174803
-0.25526502
0.0008205639
-0.25541054
0.0006972539
-0.25552868
0.00056230366
-0.25561714
0.0004164319
-0.2556738
0.00026059362
-0.2556968
9.5980023e-05
-0.25568455
-7.5989896e-05
-0.25563582
-0.0002536956
-0.25554974
-0.00043534624
-0.25542587
-0.00061900699
-0.25526418
-0.00080264144
-0.25506509
-0.00098415885
-0.25482948
-0.0011614651
-0.25455863
-0.0013325139
-0.25425428
-0.0014953584
-0.25391851
-0.0016481983
-0.25355376
-0.0017894217
-0.25316277
-0.0019176398
-0.25274849
-0.0020317132
-0.25231407
-0.0021307723
-0.25186278
-0.0022142165
-0.25139793
-0.0022817208
-0.25092286
-0.0023332215
-0.25044085
-0.0023688991
-0.24995508
-0.0023891548
-0.24946861
-0.0023945815
-0.24898431
-0.0023859379
-0.24850488
-0.0023641062
-0.2480328
-0.0023300696
-0.24757032
-0.0022848761
-0.24711947
-0.0022296107
-0.24668203
-0.0021653673
-0.24625957
-0.0020932306
-0.24585344
-0.0020142469
-0.24546477
-0.0019294171
-0.2450945
-0.0018396791
-0.24474342
-0.0017458993
-0.24441213
-0.0016488653
-0.24410109
-0.0015492855
-0.24381065
-0.0014477807
-0.24354104
-0.0013448915
-0.2432924
-0.0012410768
-0.24306481
-0.0011367177
-0.24285828
-0.001032122
-0.24267277
-0.00092753088
-0.24250821
-0.00082312078
-0.24236453
-0.00071901343
-0.24224162
-0.00061528001
-0.24213938
-0.00051194814
-0.24205772
-0.00040900857
-0.24199655
-0.00030642256
-0.24195581
-0.00020412377
-0.00010202114
-0.24566935
0.00013732985
-0.24569191
0.00013782324
-0.24571464
0.00013891229
-0.24573766
0.00014062358
-0.24576106
0.00014296006
-0.24578494
0.00014593289
-0.24580943
0.00014955081
-0.24583461
0.00015382967
-0.24586061
0.00015878276
-0.24588753
0.00016443076
-0.2459155
0.00017079152
-0.24594463
0.00017789056
-0.24597506
0.00018575023
-0.24600691
0.00019440095
-0.24604032
0.00020386945
-0.24607542
0.00021419102
-0.24611237
0.00022539658
-0.24615131
0.00023752613
-0.24619241
0.00025061451
-0.24623582
0.00026470617
-0.24628173
0.00027983931
-0.24633032
0.00029606237
-0.24638177
0.00031341621
-0.24643627
0.00033195245
-0.24649404
0.00035171353
-0.24655528
0.00037275311
-0.24662022
0.00039511369
-0.24668908
0.00041884934
-0.24676211
0.00044400046
-0.24683954
0.00047061928
-0.24692164
0.0004987413
-0.24700866
0.00052841161
-0.24710088
0.00055966581
-0.24719856
0.00059252664
-0.24730198
0.00062702599
-0.24741143
0.00066316831
-0.24752718
0.00070096815
-0.24764953
0.00074040678
-0.24777875
0.00078147403
-0.24791513
0.00082411963
-0.24805892
0.00086829972
-0.2482104
0.00091392362
-0.2483698
0.00096089784
-0.24853734
0.0010090886
-0.24871323
0.0010583361
-0.24889764
0.0011084457
-0.24909069
0.0011591849
-0.24929248
0.0012102819
-0.24950305
0.0012614176
-0.24972237
0.0013122268
-0.24995036
0.0013622927
-0.25018686
0.0014111443
-0.2504316
0.0014582538
-0.25068425
0.0015030379
-0.25094435
0.0015448506
-0.25121131
0.00158299
-0.25148444
0.0016166963
-0.25176288
0.0016451562
-0.25204566
0.0016675068
-0.25233162
0.001682846
-0.25261944
0.0016902358
-0.25290764
0.00168872
-0.25319456
0.0016773367
-0.25347838
0.0016551355
-0.2537571
0.0016211987
-0.25402856
0.0015746633
-0.25429046
0.0015147498
-0.25454035
0.0014407839
-0.25477571
0.0013522315
-0.25499389
0.0012487257
-0.25519224
0.0011300964
-0.25536808
0.00099639813
-0.25551876
0.00084793668
-0.25564174
0.00068528497
-0.25573461
0.00050930152
-0.25579515
0.00032113506
-0.2558214
0.00012222473
-0.25581168
-8.5709238e-05
-0.25576468
-0.00030069483
-0.25567947
-0.00052054994
-0.25555557
-0.00074291297
-0.25539291
-0.00096529545
-0.25519193
-0.0011851406
-0.25495351
-0.0013998864
-0.254679
-0.0016070292
-0.25437017
-0.0018041878
-0.2540292
-0.0019891618
-0.25365864
-0.0021599835
-0.25326132
-0.0023149613
-0.25284032
-0.002452711
-0.25239891
-0.0025721816
-0.25194048
-0.0026726532
-0.25146845
-0.002753745
-0.25098628
-0.0028153966
-0.25049733
-0.0028578465
-0.25000488
-0.0028816021
-0.24951206
-0.0028874043
-0.2490218
-0.0028761939
-0.24853685
-0.0028490603
-0.24805971
-0.0028072133
-0.24759264
-0.0027519387
-0.24713769
-0.0026845638
-0.24669663
-0.0026064243
-0.24627102
-0.0025188411
-0.24586218
-0.0024230859
-0.24547123
-0.0023203725
-0.24509907
-0.002211836
-0.24474645
-0.002098523
-0.24441393
-0.0019813828
-0.24410195
-0.0018612672
-0.24381081
-0.0017389213
-0.24354071
-0.0016149919
-0.24329176
-0.0014900268
-0.243064
-0.0013644793
-0.2428574
-0.0012387138
-0.24267192
-0.0011130145
-0.24250745
-0.0009875873
-0.24236389
-0.00086257225
-0.24224113
-0.00073804861
-0.24213903
-0.00061404331
-0.2420575
-0.00049053906
-0.24199644
-0.0003674833
-0.24195577
-0.0002447904
-0.00012234442
-0.24572542
0.00015953411
-0.24574771
0.00016010872
-0.24577017
0.00016137491
-0.24579291
0.00016336427
-0.24581603
0.00016608044
-0.24583963
0.00016953644
-0.24586382
0.00017374246
-0.24588871
0.00017871699
-0.2459144
0.00018447555
-0.24594102
0.00019104225
-0.24596866
0.00019843792
-0.24599746
0.00020669235
-0.24602755
0.00021583163
-0.24605904
0.00022589128
-0.24609207
0.00023690254
-0.24612678
0.00024890661
-0.24616333
0.00026193967
-0.24620185
0.00027604848
-0.24624251
0.00029127381
-0.24628547
0.00030766767
-0.24633091
0.00032527485
-0.246379
0.00034415209
-0.24642993
0.00036434736
-0.2464839
0.00038592123
-0.24654111
0.00040892365
-0.24660177
0.00043341771
-0.24666611
0.00045945357
-0.24673436
0.00048709498
-0.24680675
0.00051638989
-0.24688353
0.00054740012
-0.24696495
0.00058016813
-0.24705129
0.0006147477
-0.24714281
0.00065118171
-0.24723978
0.0006894982
-0.24734249
0.00072973608
-0.24745122
0.00077190245
-0.24756627
0.00081601637
-0.24768792
0.00086205832
-0.24781647
0.00091001897
-0.24795219
0.00095984247
-0.24809537
0.0010114806
-0.24824628
0.0010648309
-0.24840517
0.0011197876
-0.24857228
0.0011761982
-0.24874782
0.0012338801
-0.24893198
0.0012926101
-0.24912492
0.0013521206
-0.24932674
0.0014120985
-0.24953749
0.0014721751
-0.2497572
0.0015319277
-0.24998578
0.001590873
-0.2502231
0.0016484638
-0.25046893
0.0017040861
-0.25072295
0.0017570598
-0.25098473
0.0018066307
-0.25125372
0.0018519776
-0.25152923
0.0018922104
-0.25181045
0.0019263741
-0.2520964
0.0019534536
-0.25238594
0.0019723858
-0.25267776
0.0019820624
-0.25297039
0.0019813514
-0.25326217
0.0019691107
-0.25355124
0.001944209
-0.25383559
0.0019055498
-0.25411303
0.0018520981
-0.25438119
0.0017829144
-0.25463759
0.0016971801
-0.2548796
0.0015942402
-0.25510451
0.0014736351
-0.25530955
0.0013351369
-0.25549193
0.0011787832
-0.2556489
0.0010049097
-0.25577779
0.00081417067
-0.25587605
0.00060756156
-0.25594134
0.00038642581
-0.25597157
0.00015245573
-0.25596496
-9.2317333e-05
-0.2559201
-0.00034555474
-0.25583599
-0.00060466462
-0.25571207
-0.00086683591
-0.25554826
-0.0011291025
-0.25534499
-0.001388414
-0.25510316
-0.0016417122
-0.25482418
-0.0018860085
-0.25450991
-0.0021184612
-0.25416262
-0.0023364469
-0.25378498
-0.0025376232
-0.25337996
-0.002719981
-0.25295079
-0.0028818825
-0.25250088
-0.0030220907
-0.25203377
-0.0031397679
-0.25155303
-0.0032344829
-0.25106224
-0.0033061883
-0.25056489
-0.0033551933
-0.25006437
-0.0033821274
-0.24956387
-0.0033878957
-0.24906643
-0.0033736391
-0.24857482
-0.0033406717
-0.24809158
-0.0032904468
-0.24761902
-0.0032245039
-0.24715916
-0.003144427
-0.24671377
-0.003051806
-0.24628441
-0.0029482087
-0.24587235
-0.0028351411
-0.24547869
-0.0027140367
-0.24510429
-0.002586233
-0.24474985
-0.0024529601
-0.24441591
-0.002315331
-0.24410283
-0.0021743421
-0.24381089
-0.0020308619
-0.24354024
-0.0018856428
-0.24329095
-0.0017393192
-0.24306301
-0.0015924145
-0.24285638
-0.001445347
-0.24267095
-0.0012984406
-0.24250661
-0.0011519275
-0.24236322
-0.0010059627
-0.24224064
-0.00086063021
-0.24213873
-0.0007159527
-0.24205737
-0.0005719015
-0.24199644
-0.00042840691
-0.24195587
-0.00028536067
-0.0001426184
-0.2457903
0.00018142863
-0.24581227
0.00018208131
-0.24583442
0.00018352206
-0.24585684
0.00018578613
-0.24587964
0.00018887749
-0.24590291
0.00019281097
-0.24592677
0.00019759824
-0.24595131
0.0002032604
-0.24597665
0.00020981519
-0.2460029
0.00021729015
-0.24603017
0.00022570912
-0.24605858
0.00023510613
-0.24608826
0.00024551103
-0.24611934
0.00025696445
-0.24615193
0.00026950215
-0.2461862
0.00028317128
-0.24622227
0.0002980133
-0.24626031
0.00031408176
-0.24630046
0.00033142344
-0.24634289
0.00035009798
-0.24638777
0.00037015684
-0.24643528
0.00039166515
-0.24648561
0.00041467816
-0.24653896
0.00043926551
-0.24659552
0.00046548486
-0.24665551
0.00049340894
-0.24671915
0.00052309585
-0.24678668
0.00055461932
-0.24685832
0.00058803521
-0.24693434
0.00062341529
-0.24701498
0.00066080951
-0.24710051
0.00070028085
-0.24719121
0.00074188005
-0.24728735
0.00078564121
-0.24738923
0.00083161095
-0.24749712
0.00087979995
-0.24761134
0.00093023269
-0.24773217
0.00098289
-0.24785992
0.0010377645
-0.24799487
0.0010947961
-0.24813732
0.0011539336
-0.24828756
0.0012150641
-0.24844584
0.0012780714
-0.24861243
0.0013427859
-0.24878755
0.0014090038
-0.24897142
0.0014764752
-0.2491642
0.0015448996
-0.24936602
0.001613924
-0.24957698
0.001683132
-0.2497971
0.0017520452
-0.25002634
0.0018201151
-0.25026459
0.00188672
-0.25051167
0.00195116
-0.25076727
0.0020126591
-0.25103099
0.0020703546
-0.25130232
0.0021233054
-0.2515806
0.0021704892
-0.25186503
0.002210807
-0.25215467
0.0022430879
-0.25244838
0.0022661027
-0.25274489
0.0022785669
-0.2530427
0.0022791649
-0.25334015
0.0022665653
-0.25363539
0.002239445
-0.25392636
0.002196517
-0.25421082
0.0021365608
-0.25448637
0.0020584621
-0.25475043
0.001961243
-0.2550003
0.0018441116
-0.25523317
0.0017065001
-0.25544614
0.0015481081
-0.2556363
0.0013689429
-0.25580075
0.0011693593
-0.25593666
0.00095008491
-0.25604135
0.00071224848
-0.25611231
0.0004573889
-0.25614731
0.0001874575
-0.25614444
-9.519174e-05
-0.25610216
-0.00038783538
-0.25601937
-0.00068744978
-0.25589546
-0.00099074713
-0.25573031
-0.0012942527
-0.25552434
-0.0015943892
-0.25527848
-0.0018875679
-0.25499421
-0.0021702813
-0.25467347
-0.0024391962
-0.25431868
-0.0026912379
-0.25393264
-0.0029236667
-0.25351848
-0.0031341386
-0.25307961
-0.003320751
-0.25261963
-0.0034820767
-0.25214223
-0.0036171615
-0.25165119
-0.0037255312
-0.25115021
-0.0038071634
-0.25064295
-0.0038624541
-0.2501329
-0.0038921733
-0.24962339
-0.0038974112
-0.2491175
-0.0038795299
-0.24861808
-0.0038400896
-0.24812772
-0.0037808074
-0.24764873
-0.0037034951
-0.24718314
-0.003610011
-0.24673274
-0.0035022134
-0.24629901
-0.0033819301
-0.24588325
-0.003250911
-0.24548646
-0.0031108177
-0.2451095
-0.0029631958
-0.244753
-0.0028094627
-0.24441743
-0.0026508972
-0.24410313
-0.002488641
-0.24381031
-0.0023236858
-0.24353906
-0.0021568876
-0.24328942
-0.0019889656
-0.24306132
-0.00182051
-0.24285468
-0.0016519895
-0.24266936
-0.0014837644
-0.2425052
-0.001316089
-0.24236203
-0.0011491294
-0.24223969
-0.00098297013
-0.24213802
-0.00081762581
-0.24205686
-0.00065305229
-0.24199611
-0.00048915888
-0.24195566
-0.00032581078
-0.000162831
-0.24586444
0.00020296434
-0.24588606
0.00020369661
-0.24590785
0.00020531001
-0.24592991
0.00020784509
-0.24595233
0.00021130653
-0.24597523
0.00021571103
-0.24599871
0.00022107171
-0.24602286
0.00022741229
-0.2460478
0.00023475276
-0.24607363
0.00024312407
-0.24610048
0.00025255304
-0.24612845
0.00026307796
-0.24615767
0.00027473249
-0.24618827
0.00028756231
-0.24622037
0.00030160776
-0.24625412
0.00031692195
-0.24628966
0.00033355167
-0.24632714
0.00035155731
-0.24636671
0.00037099171
-0.24640853
0.0003919222
-0.24645278
0.00041440703
-0.24649963
0.00043851983
-0.24654928
0.00046432328
-0.24660191
0.00049189625
-0.24665773
0.00052130434
-0.24671695
0.00055263014
-0.24677979
0.00058594002
-0.24684649
0.00062131798
-0.24691729
0.00065882821
-0.24699242
0.00069855291
-0.24707216
0.00074055002
-0.24715678
0.00078489233
-0.24724654
0.00083163915
-0.24734173
0.00088083137
-0.24744264
0.00093252426
-0.24754957
0.00098673301
-0.24766283
0.0010434887
-0.24778271
0.0011027736
-0.24790953
0.0011645837
-0.24804359
0.001228856
-0.2481852
0.0012955382
-0.24833464
0.0013645085
-0.24849221
0.0014356421
-0.24865818
0.0015087543
-0.2488328
0.0015836222
-0.24901629
0.0016599712
-0.24920886
0.0017374699
-0.24941067
0.001815728
-0.24962182
0.0018942833
-0.24984238
0.0019726036
-0.25007234
0.0020500772
-0.25031163
0.002126009
-0.25056008
0.0021996151
-0.25081745
0.0022700236
-0.25108336
0.0023362637
-0.25135732
0.0023972736
-0.25163873
0.0024518973
-0.25192681
0.0024988887
-0.25222064
0.0025369173
-0.25251912
0.0025645825
-0.25282097
0.0025804163
-0.25312472
0.002582911
-0.25342869
0.0025705356
-0.25373101
0.0025417629
-0.25402959
0.0024951011
-0.25432216
0.0024291288
-0.25460624
0.00234254
-0.25487917
0.0022341791
-0.25513816
0.002103099
-0.25538027
0.0019486048
-0.25560246
0.001770306
-0.25580168
0.0015681635
-0.25597486
0.0013425377
-0.256119
0.0010942199
-0.25623122
0.00082446684
-0.25630884
0.00053501324
-0.25634946
0.00022807582
-0.25635099
-9.3655789e-05
-0.25631178
-0.00042705232
-0.2562306
-0.00076863236
-0.25610674
-0.0011145989
-0.25594006
-0.0014609318
-0.25573097
-0.0018034868
-0.25548043
-0.0021381039
-0.25519
-0.0024607165
-0.25486173
-0.0027674617
-0.25449819
-0.003054781
-0.25410234
-0.0033195094
-0.25367753
-0.0035589481
-0.25322737
-0.0037709168
-0.25275565
-0.003953793
-0.25226631
-0.0041065085
-0.25176328
-0.0042285552
-0.25125049
-0.0043199506
-0.25073175
-0.0043811969
-0.2502107
-0.0044132273
-0.24969077
-0.0044173418
-0.24917515
-0.0043951492
-0.24866676
-0.0043484807
-0.24816822
-0.0042793414
-0.24768188
-0.0041898378
-0.24720977
-0.0040821216
-0.24675365
-0.0039583375
-0.24631499
-0.003820587
-0.24589502
-0.0036708761
-0.24549474
-0.0035111029
-0.24511491
-0.0033430276
-0.24475611
-0.0031682594
-0.24441876
-0.002988245
-0.24410313
-0.0028042717
-0.24380936
-0.0026174537
-0.2435375
-0.0024287486
-0.24328751
-0.0022389573
-0.24305929
-0.0020487334
-0.24285268
-0.0018585922
-0.24266752
-0.0016689255
-0.24250361
-0.0014800055
-0.24236073
-0.0012920047
-0.2422387
-0.0011050035
-0.24213732
-0.0009190037
-0.24205643
-0.00073394115
-0.24199589
-0.0005496997
-0.24195559
-0.00036611358
-0.00018296847
-0.24594766
0.00022410593
-0.24596887
0.00022491346
-0.24599026
0.00022669618
-0.24601191
0.00022949792
-0.24603393
0.00023332366
-0.24605641
0.00023819189
-0.24607945
0.00024411719
-0.24610317
0.00025112587
-0.24612766
0.00025924015
-0.24615303
0.00026849438
-0.24617939
0.00027891841
-0.24620687
0.00029055477
-0.24623558
0.00030344089
-0.24626564
0.00031762757
-0.24629719
0.00033315973
-0.24633037
0.00035009646
-0.24636531
0.00036848992
-0.24640216
0.00038840736