/*--------------------------------*- C++ -*----------------------------------*\
| =========                 |                                                 |
| \\      /  F ield         | foam-extend: Open Source CFD                    |
|  \\    /   O peration     | Version:     4.1                                |
|   \\  /    A nd           | Web:         http://www.foam-extend.org         |
|    \\/     M anipulation  |                                                 |
\*---------------------------------------------------------------------------*/
FoamFile
{
    version     2.0;
    format      ascii;
    class       volScalarField;
    location    "0.35";
    object      rAU;
}
// * * * * * * * * * * * * * * * * * * * * * * * * * * * * * * * * * * * * * //

dimensions      [0 0 1 0 0 0 0];

internalField   nonuniform List<scalar> 
16796
(
0.0001205973
0.00012058902
0.00012057992
0.00012057146
0.00012056211
0.00012055332
0.00012054356
0.00012053428
0.00012052394
0.000120514
0.00012050291
0.00012049214
0.00012048012
0.00012046831
0.00012045516
0.00012044213
0.00012042764
0.00012041315
0.00012039709
0.00012038092
0.00012036305
0.00012034493
0.00012032498
0.00012030464
0.00012028233
0.00012025946
0.00012023447
0.00012020877
0.00012018076
0.00012015188
0.00012012052
0.00012008771
0.00012005338
0.00012001628
0.00011997784
0.00011993645
0.00011989353
0.00011984746
0.00011979968
0.00011974858
0.00011969558
0.00011963922
0.00011958041
0.00011951866
0.00011945401
0.00011938641
0.00011931582
0.00011924233
0.00011916585
0.00011908646
0.00011900422
0.00011891923
0.00011883157
0.00011874152
0.00011864916
0.00011855477
0.00011845864
0.0001183611
0.00011826247
0.00011816332
0.00011806399
0.00011796506
0.00011786712
0.00011777078
0.00011767673
0.00011758566
0.00011749842
0.0001174157
0.00011733836
0.00011726721
0.00011720309
0.00011714679
0.00011709921
0.00011706103
0.00011703299
0.00011701575
0.0001170099
0.00011700986
0.00011701593
0.00011703418
0.00011706498
0.00011710846
0.00011716463
0.00011723339
0.00011731448
0.00011740753
0.00011751204
0.00011762737
0.00011775279
0.00011788742
0.00011803047
0.00011818085
0.00011833755
0.00011849951
0.00011866565
0.00011883489
0.00011900611
0.00011917838
0.00011935059
0.00011952183
0.00011969119
0.00011985783
0.00012002097
0.00012018001
0.00012033421
0.00012048306
0.00012062608
0.00012076285
0.00012089297
0.00012101626
0.00012113235
0.0001212411
0.00012134234
0.00012143596
0.00012152183
0.00012160001
0.00012167033
0.00012173283
0.00012178749
0.00012183432
0.00012187328
0.00012190449
0.00012192786
0.00012194344
0.00012058493
0.00012057664
0.00012056748
0.00012055894
0.00012054946
0.00012054051
0.00012053053
0.00012052101
0.00012051038
0.00012050011
0.00012048865
0.00012047745
0.00012046496
0.00012045264
0.00012043893
0.00012042528
0.00012041012
0.00012039491
0.00012037807
0.00012036105
0.00012034227
0.00012032318
0.00012030219
0.00012028074
0.00012025724
0.00012023312
0.00012020678
0.00012017966
0.00012015015
0.00012011968
0.00012008664
0.00012005206
0.00012001586
0.00011997681
0.00011993632
0.00011989279
0.00011984762
0.00011979922
0.00011974901
0.00011969539
0.00011963979
0.00011958075
0.00011951918
0.00011945462
0.00011938709
0.00011931658
0.00011924303
0.00011916658
0.00011908715
0.00011900483
0.00011891972
0.00011883194
0.00011874159
0.000118649
0.00011855429
0.00011845776
0.00011835975
0.00011826063
0.00011816079
0.00011806082
0.00011796113
0.00011786235
0.00011776511
0.00011767008
0.00011757799
0.00011748958
0.00011740575
0.00011732721
0.00011725485
0.00011718951
0.00011713204
0.00011708321
0.00011704394
0.00011701484
0.00011699664
0.00011698994
0.00011699524
0.00011699504
0.00011698869
0.00011699431
0.00011701239
0.00011704319
0.00011708686
0.00011714344
0.00011721278
0.00011729466
0.00011738868
0.0001174943
0.00011761088
0.00011773764
0.00011787382
0.00011801837
0.00011817032
0.00011832862
0.00011849217
0.00011865987
0.00011883058
0.00011900333
0.00011917694
0.00011935044
0.00011952286
0.0001196933
0.00011986089
0.00012002497
0.00012018473
0.0001203396
0.00012048902
0.00012063252
0.00012076964
0.00012090016
0.00012102366
0.00012113995
0.00012124883
0.00012135017
0.00012144381
0.00012152979
0.00012160794
0.00012167826
0.00012174074
0.00012179537
0.00012184213
0.00012188114
0.0001219123
0.00012193566
0.00012056915
0.00012056086
0.00012055167
0.00012054306
0.00012053347
0.00012052437
0.00012051421
0.00012050446
0.00012049356
0.00012048298
0.00012047116
0.00012045957
0.00012044664
0.00012043383
0.00012041957
0.00012040533
0.00012038953
0.00012037362
0.00012035603
0.00012033819
0.00012031854
0.00012029851
0.00012027652
0.00012025399
0.00012022934
0.000120204
0.00012017637
0.00012014786
0.00012011689
0.00012008487
0.0001200502
0.0001200139
0.00011997588
0.00011993493
0.00011989243
0.0001198468
0.00011979943
0.00011974875
0.00011969615
0.00011964006
0.0001195819
0.00011952021
0.00011945592
0.00011938856
0.00011931818
0.00011924476
0.00011916827
0.00011908886
0.00011900646
0.00011892119
0.00011883316
0.00011874252
0.00011864943
0.0001185542
0.00011845702
0.00011835822
0.00011825817
0.00011815731
0.00011805605
0.00011795503
0.00011785473
0.00011775581
0.00011765897
0.00011756492
0.00011747445
0.00011738834
0.00011730754
0.00011723279
0.00011716503
0.00011710511
0.00011705389
0.00011701217
0.00011698085
0.00011696052
0.00011695188
0.00011695547
0.00011697175
0.00011697178
0.00011695279
0.00011694562
0.00011695089
0.00011696898
0.00011700019
0.00011704468
0.00011710246
0.0001171734
0.00011725721
0.00011735347
0.00011746162
0.00011758093
0.0001177107
0.00011784991
0.00011799762
0.00011815277
0.00011831424
0.00011848091
0.0001186516
0.00011882527
0.00011900071
0.00011917688
0.00011935273
0.0001195273
0.00011969964
0.00011986903
0.00012003458
0.00012019566
0.00012035165
0.00012050201
0.00012064625
0.00012078407
0.00012091503
0.0001210389
0.00012115546
0.00012126453
0.00012136594
0.00012145971
0.00012154566
0.00012162379
0.00012169407
0.0001217565
0.00012181104
0.00012185782
0.00012189675
0.00012192788
0.00012054999
0.00012054173
0.00012053253
0.00012052386
0.00012051418
0.00012050495
0.00012049462
0.00012048467
0.00012047352
0.00012046265
0.0001204505
0.00012043853
0.00012042518
0.0001204119
0.00012039714
0.00012038233
0.00012036591
0.00012034934
0.00012033102
0.0001203124
0.00012029191
0.00012027098
0.00012024801
0.00012022445
0.00012019869
0.00012017217
0.00012014328
0.00012011344
0.00012008105
0.00012004753
0.00012001127
0.00011997329
0.00011993351
0.00011989069
0.00011984624
0.00011979856
0.00011974905
0.00011969612
0.00011964118
0.00011958266
0.00011952197
0.00011945768
0.00011939069
0.00011932056
0.00011924734
0.00011917103
0.0001190916
0.00011900921
0.00011892382
0.00011883556
0.00011874456
0.00011865101
0.00011855507
0.00011845711
0.00011835732
0.0001182561
0.00011815384
0.00011805102
0.00011794811
0.0001178458
0.00011774461
0.00011764526
0.00011754848
0.00011745506
0.00011736584
0.00011728164
0.00011720346
0.00011713211
0.00011706853
0.00011701362
0.00011696828
0.0001169333
0.00011690957
0.00011689771
0.00011689836
0.00011691204
0.00011693913
0.00011694016
0.00011690827
0.0001168881
0.00011688039
0.00011688568
0.00011690439
0.00011693684
0.00011698315
0.00011704332
0.00011711718
0.00011720439
0.00011730446
0.00011741673
0.00011754054
0.0001176749
0.00011781887
0.00011797138
0.0001181313
0.00011829745
0.00011846862
0.00011864372
0.00011882146
0.00011900073
0.00011918043
0.0001193595
0.00011953693
0.00011971192
0.00011988353
0.00012005105
0.0001202138
0.00012037119
0.00012052266
0.0001206679
0.00012080641
0.00012093792
0.00012106219
0.00012117902
0.00012128821
0.00012138978
0.00012148352
0.00012156944
0.0001216475
0.0001217177
0.00012178
0.00012183454
0.00012188123
0.00012192011
0.00012052747
0.00012051925
0.00012051005
0.00012050135
0.0001204916
0.00012048226
0.00012047178
0.00012046164
0.00012045026
0.00012043913
0.00012042667
0.00012041435
0.0001204006
0.00012038688
0.00012037163
0.00012035629
0.00012033929
0.00012032207
0.00012030306
0.0001202837
0.0001202624
0.00012024059
0.0001202167
0.00012019213
0.00012016531
0.00012013765
0.00012010754
0.00012007642
0.00012004266
0.00012000768
0.00011996988
0.00011993027
0.00011988877
0.00011984414
0.00011979778
0.0001197481
0.00011969649
0.00011964136
0.00011958413
0.00011952322
0.00011946005
0.00011939317
0.00011932352
0.00011925064
0.0001191746
0.00011909539
0.00011901302
0.00011892763
0.00011883922
0.00011874792
0.0001186539
0.00011855735
0.00011845847
0.00011835765
0.00011825512
0.0001181513
0.00011804665
0.00011794166
0.00011783685
0.00011773298
0.00011763059
0.00011753047
0.00011743342
0.00011734026
0.0001172519
0.0001171692
0.00011709324
0.00011702485
0.00011696504
0.00011691474
0.00011687487
0.00011684625
0.0001168298
0.0001168261
0.0001168358
0.00011685937
0.00011689716
0.00011690036
0.00011685526
0.00011682181
0.0001168009
0.00011679323
0.00011679937
0.00011681976
0.00011685467
0.00011690421
0.00011696832
0.00011704674
0.00011713907
0.0001172447
0.00011736299
0.00011749298
0.00011763371
0.00011778411
0.000117943
0.00011810918
0.00011828137
0.0001184584
0.00011863893
0.00011882177
0.00011900573
0.00011918971
0.00011937259
0.00011955352
0.00011973147
0.00011990568
0.0001200754
0.00012024
0.00012039886
0.00012055163
0.00012069778
0.00012083701
0.00012096903
0.00012109365
0.00012121064
0.00012132
0.00012142153
0.00012151523
0.00012160105
0.000121679
0.00012174904
0.00012181131
0.00012186573
0.00012191236
0.00012050162
0.00012049345
0.00012048428
0.00012047556
0.00012046576
0.00012045633
0.00012044572
0.00012043541
0.00012042383
0.00012041245
0.00012039971
0.00012038706
0.00012037294
0.00012035881
0.0001203431
0.00012032725
0.00012030969
0.00012029187
0.0001202722
0.00012025212
0.00012023005
0.00012020741
0.00012018263
0.0001201571
0.00012012926
0.0001201005
0.00012006922
0.00012003685
0.00012000177
0.00011996538
0.00011992609
0.00011988491
0.00011984174
0.00011979534
0.00011974713
0.00011969549
0.00011964183
0.00011958455
0.00011952507
0.0001194618
0.00011939618
0.00011932676
0.00011925447
0.00011917886
0.0001191
0.0001190179
0.00011893257
0.00011884417
0.00011875269
0.00011865831
0.00011856119
0.00011846154
0.0001183596
0.00011825579
0.00011815036
0.00011804376
0.0001179365
0.0001178291
0.00011772213
0.00011761639
0.00011751249
0.00011741126
0.00011731355
0.00011722026
0.00011713233
0.00011705072
0.00011697653
0.00011691066
0.00011685418
0.00011680806
0.00011677326
0.00011675063
0.00011674111
0.00011674529
0.0001167638
0.00011679711
0.0001168455
0.00011685246
0.00011679376
0.00011674669
0.00011671231
0.00011669146
0.00011668488
0.00011669314
0.00011671665
0.00011675565
0.00011681018
0.00011688006
0.00011696497
0.00011706432
0.00011717753
0.00011730362
0.00011744163
0.00011759046
0.00011774889
0.00011791566
0.00011808941
0.00011826892
0.00011845277
0.00011863968
0.00011882839
0.00011901769
0.00011920643
0.00011939364
0.00011957826
0.00011975943
0.00011993637
0.00012010837
0.0001202748
0.00012043524
0.00012058913
0.00012073615
0.00012087599
0.00012100842
0.00012113323
0.0001212504
0.00012135971
0.00012146117
0.00012155473
0.0001216404
0.00012171816
0.00012178814
0.00012185027
0.00012190462
0.00012047246
0.00012046437
0.00012045523
0.00012044652
0.00012043668
0.00012042718
0.00012041646
0.000120406
0.00012039424
0.00012038264
0.00012036963
0.00012035668
0.00012034222
0.0001203277
0.00012031156
0.00012029523
0.00012027715
0.00012025875
0.00012023846
0.0001202177
0.00012019489
0.00012017147
0.00012014582
0.00012011939
0.00012009055
0.00012006074
0.00012002835
0.00011999477
0.00011995842
0.00011992067
0.00011987994
0.00011983723
0.00011979244
0.00011974434
0.00011969432
0.00011964078
0.00011958511
0.00011952573
0.00011946404
0.00011939846
0.00011933043
0.00011925849
0.00011918358
0.00011910526
0.00011902359
0.0001189386
0.00011885029
0.00011875885
0.00011866427
0.00011856673
0.00011846643
0.0001183636
0.00011825848
0.00011815153
0.00011804302
0.00011793345
0.00011782334
0.00011771327
0.00011760386
0.00011749594
0.00011739018
0.00011728746
0.0001171887
0.00011709485
0.00011700693
0.00011692594
0.00011685306
0.00011678926
0.00011673564
0.00011669326
0.00011666311
0.0001166461
0.00011664317
0.00011665494
0.00011668205
0.00011672494
0.00011678386
0.00011679659
0.00011672384
0.00011666275
0.00011661455
0.00011658026
0.00011656074
0.00011655675
0.00011656882
0.00011659732
0.00011664239
0.00011670395
0.00011678172
0.00011687516
0.00011698371
0.00011710639
0.00011724221
0.00011739003
0.00011754857
0.00011771651
0.00011789242
0.00011807499
0.00011826271
0.00011845422
0.00011864817
0.00011884328
0.00011903829
0.00011923218
0.0001194238
0.00011961224
0.00011979665
0.00011997628
0.00012015045
0.00012031871
0.00012048046
0.00012063536
0.00012078308
0.00012092338
0.00012105602
0.000121181
0.00012129809
0.00012140729
0.00012150858
0.00012160195
0.00012168739
0.00012176505
0.00012183485
0.00012189689
0.00012044002
0.00012043202
0.00012042294
0.00012041425
0.00012040439
0.00012039484
0.00012038404
0.00012037345
0.00012036153
0.00012034972
0.00012033648
0.00012032325
0.00012030847
0.0001202936
0.00012027705
0.00012026028
0.0001202417
0.00012022276
0.00012020188
0.00012018048
0.00012015698
0.00012013279
0.00012010634
0.00012007903
0.00012004926
0.00012001844
0.00011998497
0.00011995025
0.00011991266
0.00011987362
0.00011983149
0.00011978731
0.00011974095
0.00011969119
0.00011963942
0.00011958402
0.0001195264
0.00011946496
0.00011940111
0.00011933326
0.00011926285
0.00011918843
0.00011911092
0.0001190299
0.00011894543
0.00011885754
0.00011876624
0.00011867172
0.00011857398
0.00011847323
0.00011836966
0.00011826353
0.00011815509
0.00011804484
0.00011793307
0.00011782031
0.00011770711
0.0001175941
0.00011748193
0.00011737149
0.0001172635
0.00011715889
0.00011705865
0.0001169638
0.00011687541
0.00011679456
0.00011672251
0.00011666028
0.00011660906
0.00011656995
0.00011654402
0.00011653222
0.00011653554
0.00011655462
0.00011659011
0.00011664245
0.00011671186
0.00011673282
0.00011664551
0.00011656994
0.0001165075
0.0001164594
0.00011642668
0.00011641024
0.00011641078
0.00011642878
0.00011646449
0.00011651791
0.00011658882
0.00011667672
0.00011678105
0.0001169008
0.00011703497
0.00011718235
0.00011734162
0.00011751135
0.00011769003
0.00011787628
0.00011806847
0.00011826515
0.00011846488
0.00011866629
0.00011886803
0.00011906901
0.000119268
0.00011946403
0.0001196562
0.00011984371
0.00012002582
0.00012020205
0.00012037179
0.00012053466
0.00012069033
0.00012083854
0.00012097905
0.00012111184
0.0001212367
0.00012135363
0.00012146261
0.00012156364
0.00012165673
0.00012174204
0.00012181949
0.0001218892
0.00012040433
0.00012039644
0.00012038743
0.00012037878
0.00012036892
0.00012035934
0.00012034847
0.00012033778
0.00012032572
0.00012031374
0.00012030028
0.0001202868
0.00012027173
0.00012025652
0.0001202396
0.00012022241
0.00012020338
0.00012018393
0.00012016249
0.00012014049
0.00012011633
0.00012009144
0.00012006421
0.00012003607
0.00012000541
0.00011997363
0.00011993913
0.00011990331
0.00011986455
0.00011982425
0.00011978079
0.00011973519
0.00011968732
0.00011963596
0.00011958248
0.00011952529
0.00011946577
0.00011940232
0.00011933635
0.00011926627
0.00011919352
0.00011911664
0.00011903656
0.00011895286
0.00011886559
0.00011877479
0.00011868047
0.00011858283
0.00011848189
0.00011837784
0.00011827091
0.00011816136
0.00011804947
0.00011793575
0.00011782051
0.00011770433
0.00011758778
0.00011747153
0.00011735629
0.00011724296
0.00011713235
0.00011702544
0.00011692327
0.00011682693
0.00011673758
0.00011665637
0.00011658461
0.00011652344
0.0001164741
0.00011643779
0.00011641562
0.00011640862
0.00011641783
0.00011644393
0.0001164876
0.00011654926
0.00011662914
0.00011666127
0.00011655881
0.0001164682
0.00011639104
0.00011632871
0.00011628244
0.00011625332
0.00011624217
0.00011624962
0.00011627603
0.00011632148
0.00011638579
0.0001164685
0.00011656903
0.00011668637
0.00011681946
0.00011696701
0.00011712763
0.00011729981
0.00011748193
0.0001176725
0.0001178698
0.00011807226
0.00011827834
0.00011848659
0.00011869555
0.00011890406
0.00011911082
0.0001193148
0.00011951502
0.00011971065
0.00011990091
0.0001200853
0.00012026316
0.00012043411
0.0001205978
0.00012075396
0.00012090236
0.00012104297
0.00012117559
0.00012130022
0.00012141686
0.00012152553
0.00012162623
0.00012171913
0.00012180419
0.00012188153
0.00012036543
0.00012035766
0.00012034874
0.00012034014
0.00012033031
0.00012032071
0.0001203098
0.00012029903
0.00012028685
0.00012027472
0.00012026107
0.00012024736
0.00012023203
0.00012021652
0.00012019926
0.00012018169
0.00012016222
0.00012014231
0.00012012035
0.00012009778
0.000120073
0.00012004744
0.00012001949
0.00011999056
0.00011995905
0.00011992637
0.00011989089
0.00011985402
0.00011981414
0.00011977264
0.0001197279
0.00011968093
0.00011963161
0.0001195787
0.00011952358
0.00011946464
0.00011940327
0.00011933786
0.00011926982
0.00011919756
0.0001191225
0.00011904319
0.00011896057
0.00011887419
0.00011878413
0.00011869041
0.00011859305
0.00011849225
0.00011838804
0.00011828063
0.00011817023
0.00011805714
0.00011794164
0.00011782427
0.00011770536
0.00011758551
0.00011746534
0.00011734554
0.00011722686
0.00011711027
0.00011699661
0.00011688695
0.00011678237
0.00011668405
0.0001165932
0.00011651108
0.00011643908
0.00011637841
0.00011633042
0.00011629637
0.00011627749
0.00011627486
0.00011628958
0.00011632241
0.00011637403
0.00011644491
0.00011653525
0.00011658202
0.00011646374
0.00011635746
0.00011626501
0.00011618795
0.00011612772
0.00011608559
0.00011606256
0.00011605937
0.0001160765
0.00011611412
0.00011617208
0.00011624995
0.00011634714
0.00011646259
0.00011659518
0.00011674355
0.00011690621
0.00011708153
0.00011726779
0.00011746338
0.00011766645
0.00011787534
0.0001180884
0.00011830404
0.00011852076
0.00011873728
0.00011895223
0.00011916451
0.00011937311
0.00011957714
0.00011977578
0.00011996849
0.00012015462
0.00012033375
0.00012050554
0.0001206697
0.000120826
0.00012097444
0.0001211148
0.00012124711
0.00012137138
0.00012148763
0.00012159589
0.00012169635
0.00012178898
0.0001218739
0.00012032334
0.00012031571
0.00012030691
0.00012029838
0.00012028859
0.000120279
0.00012026806
0.00012025723
0.00012024495
0.00012023269
0.00012021888
0.00012020498
0.00012018941
0.00012017363
0.00012015605
0.00012013813
0.00012011828
0.00012009792
0.00012007548
0.00012005239
0.00012002703
0.00012000084
0.00011997221
0.00011994255
0.00011991024
0.0001198767
0.0001198403
0.00011980243
0.00011976149
0.00011971884
0.00011967288
0.0001196246
0.00011957388
0.00011951948
0.00011946278
0.00011940215
0.00011933898
0.00011927166
0.0001192016
0.00011912719
0.00011904987
0.00011896817
0.00011888302
0.00011879398
0.00011870113
0.00011860448
0.00011850406
0.00011840006
0.00011829253
0.00011818166
0.0001180677
0.00011795093
0.00011783167
0.00011771045
0.00011758765
0.00011746387
0.00011733978
0.0001172161
0.00011709362
0.00011697337
0.00011685623
0.00011674333
0.00011663583
0.00011653498
0.00011644209
0.00011635847
0.00011628563
0.00011622489
0.00011617766
0.00011614534
0.00011612923
0.0001161305
0.00011615035
0.00011618958
0.00011624895
0.00011632894
0.00011642975
0.00011649515
0.0001163603
0.00011623765
0.00011612923
0.00011603687
0.00011596219
0.00011590668
0.00011587149
0.00011585753
0.00011586537
0.00011589527
0.00011594714
0.00011602052
0.00011611482
0.00011622893
0.00011636165
0.00011651152
0.00011667693
0.00011685614
0.0001170473
0.00011724865
0.00011745823
0.00011767424
0.00011789492
0.00011811858
0.0001183436
0.00011856863
0.00011879222
0.0001190132
0.00011923052
0.00011944322
0.00011965048
0.00011985171
0.00012004625
0.00012023367
0.00012041362
0.00012058583
0.00012075006
0.00012090631
0.0001210544
0.00012119436
0.0001213262
0.00012144999
0.00012156575
0.00012167371
0.00012177385
0.00012186631
0.00012027812
0.00012027064
0.00012026196
0.00012025353
0.00012024379
0.00012023423
0.00012022328
0.00012021241
0.00012020007
0.0001201877
0.00012017376
0.00012015968
0.00012014391
0.00012012788
0.00012011003
0.00012009179
0.00012007157
0.00012005082
0.00012002794
0.00012000436
0.00011997847
0.0001199517
0.00011992243
0.00011989208
0.00011985902
0.00011982467
0.0001197874
0.0001197486
0.00011970664
0.00011966291
0.00011961579
0.00011956626
0.00011951421
0.00011945837
0.00011940014
0.00011933788
0.00011927297
0.0001192038
0.00011913176
0.00011905527
0.00011897571
0.00011889165
0.000118804
0.00011871232
0.00011861668
0.00011851709
0.00011841358
0.00011830635
0.00011819542
0.00011808102
0.00011796338
0.0001178428
0.0001177196
0.00011759434
0.00011746742
0.00011733945
0.00011721113
0.00011708323
0.00011695656
0.00011683221
0.00011671112
0.00011659448
0.00011648352
0.00011637958
0.00011628403
0.00011619831
0.00011612401
0.00011606255
0.00011601549
0.0001159843
0.0001159704
0.00011597508
0.00011599963
0.00011604495
0.00011611183
0.00011620082
0.00011631213
0.00011640077
0.00011624849
0.00011610865
0.00011598352
0.00011587518
0.00011578549
0.00011571613
0.00011566846
0.00011564354
0.00011564206
0.00011566434
0.00011571034
0.00011577961
0.00011587151
0.00011598487
0.00011611837
0.00011627047
0.00011643941
0.0001166233
0.00011682015
0.00011702806
0.00011724492
0.0001174688
0.0001176978
0.00011793012
0.00011816404
0.00011839811
0.00011863082
0.00011886092
0.0001190873
0.00011930898
0.0001195251
0.00011973505
0.00011993814
0.00012013396
0.00012032215
0.00012050244
0.00012067461
0.00012083867
0.00012099446
0.00012114202
0.00012128139
0.00012141264
0.00012153586
0.00012165125
0.00012175883
0.00012185877
0.00012022979
0.00012022249
0.00012021395
0.00012020563
0.00012019597
0.00012018645
0.00012017552
0.00012016464
0.00012015224
0.0001201398
0.00012012574
0.00012011152
0.00012009557
0.00012007933
0.00012006123
0.0001200427
0.00012002217
0.00012000106
0.00011997777
0.00011995374
0.00011992737
0.00011990005
0.0001198702
0.00011983921
0.00011980546
0.00011977035
0.00011973227
0.00011969258
0.00011964967
0.00011960492
0.00011955669
0.00011950597
0.00011945265
0.00011939545
0.00011933575
0.00011927192
0.00011920533
0.00011913436
0.00011906041
0.00011898186
0.00011890012
0.00011881374
0.00011872362
0.00011862931
0.00011853089
0.00011842835
0.00011832173
0.00011821121
0.00011809683
0.0001179788
0.00011785737
0.00011773284
0.00011760555
0.00011747604
0.00011734474
0.00011721231
0.00011707944
0.00011694695
0.00011681569
0.0001166868
0.00011656127
0.00011644035
0.00011632536
0.0001162177
0.00011611887
0.00011603038
0.00011595395
0.00011589111
0.00011584354
0.00011581284
0.00011580057
0.00011580813
0.00011583693
0.00011588796
0.00011596212
0.00011605999
0.00011618183
0.00011629896
0.00011612831
0.00011597036
0.00011582767
0.00011570257
0.0001155972
0.00011551346
0.00011545292
0.00011541681
0.00011540592
0.00011542068
0.00011546105
0.00011552659
0.0001156166
0.00011572981
0.00011586483
0.00011601993
0.00011619322
0.00011638266
0.00011658607
0.0001168014
0.00011702637
0.0001172589
0.00011749697
0.00011773864
0.00011798208
0.00011822577
0.00011846808
0.00011870774
0.00011894356
0.00011917453
0.00011939975
0.00011961861
0.00011983041
0.00012003474
0.00012023123
0.00012041964
0.00012059976
0.00012077161
0.00012093505
0.00012109016
0.00012123699
0.00012137565
0.00012150623
0.00012162898
0.00012174394
0.00012185129
0.00012017842
0.00012017131
0.00012016292
0.00012015472
0.00012014516
0.00012013571
0.00012012481
0.00012011393
0.00012010152
0.00012008902
0.00012007487
0.00012006054
0.00012004444
0.00012002801
0.0001200097
0.00011999092
0.0001199701
0.00011994867
0.00011992503
0.00011990059
0.00011987377
0.00011984596
0.00011981557
0.00011978399
0.0001197496
0.00011971379
0.00011967495
0.00011963444
0.00011959064
0.00011954492
0.00011949565
0.00011944382
0.00011938928
0.00011933078
0.00011926967
0.00011920434
0.00011913613
0.00011906343
0.00011898761
0.00011890707
0.00011882319
0.00011873452
0.00011864196
0.00011854505
0.00011844385
0.00011833836
0.0001182286
0.00011811476
0.00011799687
0.00011787513
0.0001177498
0.00011762117
0.0001174896
0.00011735563
0.00011721972
0.00011708252
0.00011694478
0.00011680731
0.00011667104
0.00011653713
0.00011640664
0.00011628088
0.00011616125
0.00011604924
0.00011594644
0.00011585448
0.0001157752
0.00011571026
0.00011566146
0.00011563057
0.00011561928
0.00011562914
0.00011566168
0.00011571803
0.0001157992
0.00011590583
0.00011603824
0.00011618679
0.00011599975
0.00011582266
0.00011566143
0.0001155187
0.00011539688
0.00011529815
0.00011522429
0.00011517669
0.00011515629
0.00011516359
0.00011519858
0.00011526079
0.00011534945
0.0001154632
0.00011560048
0.00011575943
0.00011593797
0.00011613388
0.00011634478
0.00011656845
0.00011680242
0.00011704446
0.00011729239
0.00011754414
0.00011779778
0.00011805167
0.00011830412
0.00011855378
0.00011879942
0.00011903999
0.00011927457
0.00011950255
0.00011972321
0.00011993614
0.000120141
0.00012033755
0.00012052561
0.00012070522
0.00012087628
0.00012103886
0.00012119308
0.00012133906
0.00012147692
0.00012160695
0.00012172919
0.00012184388
0.00012012404
0.00012011713
0.00012010892
0.00012010086
0.00012009141
0.00012008205
0.0001200712
0.00012006035
0.00012004793
0.0001200354
0.0001200212
0.00012000677
0.00011999055
0.00011997398
0.00011995549
0.0001199365
0.00011991543
0.00011989371
0.00011986974
0.00011984495
0.00011981773
0.00011978948
0.0001197586
0.00011972648
0.0001196915
0.00011965505
0.0001196155
0.00011957423
0.00011952961
0.00011948299
0.00011943274
0.00011937985
0.00011932417
0.00011926444
0.000119202
0.00011913522
0.00011906546
0.00011899109
0.00011891346
0.00011883098
0.00011874502
0.00011865411
0.00011855914
0.00011845965
0.00011835568
0.00011824724
0.00011813432
0.00011801712
0.00011789565
0.00011777012
0.00011764077
0.00011750791
0.00011737187
0.00011723324
0.00011709245
0.0001169502
0.00011680722
0.0001166644
0.00011652267
0.00011638325
0.00011624725
0.00011611606
0.00011599114
0.00011587409
0.0001157666
0.00011567042
0.00011558751
0.00011551968
0.00011546889
0.00011543706
0.00011542605
0.00011543756
0.00011547331
0.00011553455
0.00011562241
0.00011573767
0.00011588069
0.00011605135
0.0001158628
0.0001156654
0.00011548454
0.00011532318
0.00011518406
0.00011506962
0.0001149819
0.00011492247
0.00011489243
0.00011489232
0.00011492218
0.00011498148
0.00011506939
0.00011518439
0.00011532478
0.0001154885
0.00011567326
0.00011587663
0.00011609604
0.00011632903
0.00011657296
0.00011682542
0.00011708406
0.00011734667
0.00011761121
0.00011787593
0.00011813906
0.00011839919
0.00011865504
0.00011890555
0.00011914975
0.00011938704
0.0001196167
0.00011983833
0.00012005161
0.00012025632
0.0001204523
0.00012063963
0.00012081823
0.00012098823
0.00012114974
0.00012130294
0.00012144798
0.00012158518
0.00012171461
0.00012183655
0.00012006671
0.00012006002
0.000120052
0.0001200441
0.00012003479
0.00012002552
0.00012001476
0.00012000396
0.00011999156
0.00011997902
0.00011996479
0.0001199503
0.00011993399
0.0001199173
0.00011989866
0.00011987949
0.00011985821
0.00011983624
0.000119812
0.00011978689
0.00011975932
0.00011973067
0.00011969935
0.00011966675
0.00011963124
0.0001195942
0.00011955402
0.00011951205
0.00011946666
0.0001194192
0.00011936805
0.00011931417
0.00011925742
0.00011919652
0.00011913282
0.00011906468
0.00011899343
0.00011891745
0.00011883809
0.00011875372
0.00011866573
0.00011857262
0.00011847528
0.00011837324
0.00011826653
0.00011815513
0.00011803905
0.00011791845
0.00011779335
0.00011766394
0.00011753046
0.00011739322
0.00011725255
0.00011710903
0.0001169631
0.00011681548
0.00011666693
0.00011651834
0.00011637069
0.00011622524
0.00011608316
0.00011594591
0.00011581503
0.00011569222
0.00011557926
0.00011547805
0.00011539068
0.00011531912
0.00011526551
0.00011523192
0.00011522041
0.00011523288
0.00011527122
0.00011533686
0.0001154311
0.00011555481
0.00011570847
0.00011589199
0.00011571746
0.00011549846
0.00011529673
0.00011511561
0.00011495819
0.00011482724
0.00011472503
0.00011465339
0.00011461352
0.00011460606
0.00011463105
0.00011468792
0.0001147757
0.00011489275
0.00011503716
0.00011520664
0.00011539869
0.00011561061
0.00011583961
0.000116083
0.00011633792
0.00011660176
0.00011687201
0.00011714632
0.00011742249
0.0001176987
0.00011797308
0.00011824417
0.00011851065
0.0001187714
0.00011902549
0.00011927228
0.00011951108
0.0001197415
0.00011996323
0.0001201761
0.00012037998
0.00012057497
0.00012076104
0.00012093834
0.00012110705
0.00012126736
0.00012141946
0.00012156371
0.00012170023
0.00012182931
0.00012000651
0.00012000005
0.00011999224
0.00011998452
0.00011997535
0.00011996621
0.00011995554
0.00011994481
0.00011993246
0.00011991994
0.0001199057
0.00011989118
0.00011987481
0.00011985804
0.00011983928
0.00011981996
0.00011979851
0.00011977634
0.00011975187
0.00011972649
0.0001196986
0.00011966961
0.00011963791
0.00011960487
0.00011956889
0.00011953133
0.00011949057
0.00011944796
0.00011940187
0.00011935365
0.00011930167
0.00011924687
0.00011918912
0.00011912713
0.00011906224
0.0001189928
0.00011892015
0.00011884263
0.00011876159
0.00011867541
0.00011858544
0.00011849019
0.00011839053
0.00011828597
0.00011817653
0.00011806219
0.00011794293
0.0001178189
0.00011769011
0.00011755675
0.00011741904
0.00011727727
0.00011713179
0.00011698316
0.00011683184
0.00011667853
0.00011652403
0.00011636926
0.00011621521
0.0001160632
0.00011591444
0.00011577047
0.00011563292
0.00011550356
0.00011538433
0.00011527722
0.0001151845
0.0001151083
0.00011505094
0.00011501471
0.00011500186
0.00011501452
0.00011505477
0.00011512426
0.00011522447
0.00011535644
0.00011552075
0.00011571739
0.00011556374
0.00011532168
0.00011509769
0.00011489554
0.0001147187
0.0001145703
0.00011445291
0.00011436858
0.00011431868
0.00011430392
0.00011432433
0.00011437927
0.00011446764
0.0001145876
0.00011473702
0.00011491337
0.00011511385
0.00011533552
0.00011557529
0.00011583022
0.00011609724
0.00011637351
0.00011665634
0.00011694321
0.0001172318
0.00011752018
0.00011780641
0.00011808895
0.00011836646
0.00011863781
0.00011890203
0.00011915851
0.00011940657
0.00011964585
0.00011987607
0.00012009708