/*--------------------------------*- C++ -*----------------------------------*\
| =========                 |                                                 |
| \\      /  F ield         | foam-extend: Open Source CFD                    |
|  \\    /   O peration     | Version:     4.1                                |
|   \\  /    A nd           | Web:         http://www.foam-extend.org         |
|    \\/     M anipulation  |                                                 |
\*---------------------------------------------------------------------------*/
FoamFile
{
    version     2.0;
    format      ascii;
    class       volVectorField;
    location    "0.35";
    object      U;
}
// * * * * * * * * * * * * * * * * * * * * * * * * * * * * * * * * * * * * * //

dimensions      [0 1 -1 0 0 0 0];

internalField   nonuniform List<vector> 
16796
(
(152.21595 -0.0047373152 0)
(152.23432 -0.0047543311 0)
(152.24854 -0.0047922337 0)
(152.26315 -0.0048517685 0)
(152.27795 -0.0049331154 0)
(152.29303 -0.0050365753 0)
(152.30845 -0.0051625312 0)
(152.32429 -0.0053114459 0)
(152.34061 -0.005483865 0)
(152.35747 -0.0056804123 0)
(152.37497 -0.0059017952 0)
(152.39316 -0.006148798 0)
(152.41214 -0.0064222891 0)
(152.43197 -0.0067232118 0)
(152.45275 -0.0070525926 0)
(152.47456 -0.0074115297 0)
(152.49749 -0.0078012023 0)
(152.52163 -0.0082228558 0)
(152.54708 -0.0086778117 0)
(152.57395 -0.0091674495 0)
(152.60234 -0.0096932165 0)
(152.63236 -0.010256605 0)
(152.66413 -0.010859163 0)
(152.69776 -0.011502464 0)
(152.73338 -0.012188119 0)
(152.77112 -0.012917738 0)
(152.81111 -0.01369294 0)
(152.8535 -0.01451531 0)
(152.89842 -0.015386402 0)
(152.94603 -0.016307689 0)
(152.99647 -0.01728056 0)
(153.04991 -0.018306262 0)
(153.10651 -0.019385886 0)
(153.16642 -0.020520317 0)
(153.22981 -0.021710169 0)
(153.29686 -0.022955769 0)
(153.36772 -0.024257056 0)
(153.44257 -0.025613557 0)
(153.52157 -0.027024274 0)
(153.60489 -0.028487648 0)
(153.69267 -0.03000143 0)
(153.78507 -0.031562634 0)
(153.88222 -0.033167393 0)
(153.98425 -0.034810895 0)
(154.09127 -0.036487249 0)
(154.20337 -0.038189382 0)
(154.32062 -0.039908924 0)
(154.44306 -0.04163609 0)
(154.5707 -0.043359575 0)
(154.70351 -0.045066439 0)
(154.84142 -0.046742017 0)
(154.98432 -0.048369835 0)
(155.13204 -0.049931546 0)
(155.28437 -0.051406894 0)
(155.441 -0.052773709 0)
(155.6016 -0.054007938 0)
(155.76571 -0.055083727 0)
(155.93285 -0.055973555 0)
(156.10239 -0.05664843 0)
(156.27367 -0.057078161 0)
(156.4459 -0.057231698 0)
(156.61821 -0.05707756 0)
(156.78963 -0.056584351 0)
(156.9591 -0.055721357 0)
(157.12547 -0.054459237 0)
(157.28749 -0.052770785 0)
(157.44385 -0.050631766 0)
(157.59316 -0.048021802 0)
(157.73397 -0.044925287 0)
(157.86481 -0.041332313 0)
(157.98417 -0.037239547 0)
(158.09053 -0.032651064 0)
(158.18243 -0.027579043 0)
(158.25843 -0.022044304 0)
(158.31718 -0.016076644 0)
(158.35741 -0.0097149441 0)
(158.37801 -0.0030071363 0)
(158.37802 0.0039902658 0)
(158.35666 0.011213639 0)
(158.31337 0.018591412 0)
(158.24779 0.026046241 0)
(158.15982 0.033496855 0)
(158.0496 0.040859908 0)
(157.91751 0.048051944 0)
(157.7642 0.05499141 0)
(157.59053 0.061600627 0)
(157.39762 0.067807632 0)
(157.18676 0.073547822 0)
(156.95944 0.07876532 0)
(156.71729 0.083414019 0)
(156.46207 0.087458279 0)
(156.19564 0.090873255 0)
(155.91991 0.093644863 0)
(155.63679 0.095769428 0)
(155.34823 0.097253033 0)
(155.05613 0.098110634 0)
(154.76231 0.098364988 0)
(154.46856 0.098045467 0)
(154.17653 0.097186791 0)
(153.88778 0.095827768 0)
(153.60375 0.094010046 0)
(153.32575 0.091776952 0)
(153.05495 0.089172423 0)
(152.79241 0.086240057 0)
(152.53905 0.083022294 0)
(152.29567 0.07955975 0)
(152.06293 0.075890662 0)
(151.84141 0.072050486 0)
(151.63158 0.068071606 0)
(151.4338 0.06398315 0)
(151.24838 0.059810904 0)
(151.07553 0.05557732 0)
(150.91542 0.051301574 0)
(150.76813 0.046999689 0)
(150.63374 0.042684705 0)
(150.51228 0.03836688 0)
(150.40374 0.034053905 0)
(150.30811 0.029751155 0)
(150.22537 0.025461933 0)
(150.15543 0.021187738 0)
(150.09817 0.01692855 0)
(150.05355 0.01268307 0)
(150.02216 0.0084488612 0)
(150.00495 0.0042224941 0)
(152.22221 -0.014403472 0)
(152.24053 -0.014454811 0)
(152.25473 -0.014568549 0)
(152.26931 -0.014747069 0)
(152.28408 -0.01499092 0)
(152.29913 -0.015301007 0)
(152.31452 -0.015678479 0)
(152.33033 -0.01612472 0)
(152.34661 -0.016641364 0)
(152.36345 -0.017230279 0)
(152.38091 -0.017893584 0)
(152.39907 -0.018633627 0)
(152.41801 -0.019453011 0)
(152.43781 -0.020354561 0)
(152.45854 -0.021341355 0)
(152.48031 -0.022416683 0)
(152.5032 -0.02358408 0)
(152.5273 -0.024847282 0)
(152.55271 -0.026210251 0)
(152.57953 -0.027677126 0)
(152.60787 -0.029252251 0)
(152.63784 -0.030940106 0)
(152.66955 -0.032745339 0)
(152.70313 -0.034672681 0)
(152.73869 -0.036726971 0)
(152.77637 -0.038913057 0)
(152.8163 -0.041235813 0)
(152.85862 -0.043700015 0)
(152.90348 -0.046310356 0)
(152.95102 -0.049071285 0)
(153.00139 -0.051987015 0)
(153.05476 -0.055061334 0)
(153.11128 -0.058297574 0)
(153.17112 -0.061698458 0)
(153.23444 -0.06526591 0)
(153.30141 -0.069001003 0)
(153.3722 -0.07290366 0)
(153.44697 -0.076972584 0)
(153.5259 -0.08120492 0)
(153.60914 -0.085596146 0)
(153.69686 -0.090139687 0)
(153.7892 -0.094826778 0)
(153.88629 -0.09964603 0)
(153.98827 -0.10458324 0)
(154.09526 -0.10962098 0)
(154.20733 -0.11473829 0)
(154.32456 -0.11991037 0)
(154.44699 -0.12510813 0)
(154.57464 -0.13029797 0)
(154.70748 -0.13544137 0)
(154.84544 -0.14049464 0)
(154.98841 -0.14540865 0)
(155.13624 -0.15012862 0)
(155.28869 -0.15459402 0)
(155.44549 -0.15873852 0)
(155.60627 -0.1624901 0)
(155.77062 -0.16577123 0)
(155.93801 -0.16849931 0)
(156.10787 -0.17058721 0)
(156.27949 -0.1719441 0)
(156.45211 -0.17247641 0)
(156.62485 -0.17208915 0)
(156.79675 -0.17068742 0)
(156.96673 -0.16817824 0)
(157.13365 -0.16447259 0)
(157.29626 -0.15948773 0)
(157.45323 -0.15314975 0)
(157.60318 -0.14539626 0)
(157.74466 -0.13617917 0)
(157.87616 -0.12546755 0)
(157.99619 -0.11325035 0)
(158.10321 -0.09953896 0)
(158.19575 -0.084369404 0)
(158.27235 -0.067804068 0)
(158.33164 -0.049932814 0)
(158.37237 -0.03087344 0)
(158.3934 -0.010771654 0)
(158.39375 0.01020018 0)
(158.37265 0.031847332 0)
(158.32951 0.053955084 0)
(158.26398 0.076292518 0)
(158.17595 0.098617123 0)
(158.06555 0.1206803 0)
(157.93318 0.14223317 0)
(157.77948 0.1630326 0)
(157.60532 0.18284701 0)
(157.41183 0.20146185 0)
(157.2003 0.21868447 0)
(156.97224 0.23434814 0)
(156.72931 0.24831523 0)
(156.47326 0.26047915 0)
(156.20597 0.27076545 0)
(155.92936 0.27913161 0)
(155.64538 0.28556609 0)
(155.35596 0.29008636 0)
(155.06301 0.29273631 0)
(154.76839 0.29358306 0)
(154.47387 0.29271345 0)
(154.18113 0.29023033 0)
(153.89172 0.28624876 0)
(153.60708 0.28089238 0)
(153.32852 0.27428989 0)
(153.05724 0.26657195 0)
(152.79427 0.25786829 0)
(152.54053 0.24830531 0)
(152.29681 0.23800407 0)
(152.0638 0.22707864 0)
(151.84205 0.21563487 0)
(151.63203 0.20376955 0)
(151.4341 0.19156982 0)
(151.24856 0.17911288 0)
(151.07562 0.16646606 0)
(150.91544 0.15368693 0)
(150.76811 0.14082368 0)
(150.6337 0.12791563 0)
(150.51222 0.11499378 0)
(150.40368 0.10208149 0)
(150.30805 0.089195214 0)
(150.22532 0.076345225 0)
(150.1554 0.063536414 0)
(150.09814 0.05076914 0)
(150.05353 0.038039974 0)
(150.02215 0.025342155 0)
(150.00495 0.012665961 0)
(152.23419 -0.023838084 0)
(152.25244 -0.023923482 0)
(152.26658 -0.02411261 0)
(152.2811 -0.02440959 0)
(152.29582 -0.024815345 0)
(152.31081 -0.025331388 0)
(152.32614 -0.025959632 0)
(152.34189 -0.026702386 0)
(152.35811 -0.027562372 0)
(152.37488 -0.028542702 0)
(152.39227 -0.029646907 0)
(152.41037 -0.030878902 0)
(152.42923 -0.032243021 0)
(152.44896 -0.033743974 0)
(152.46962 -0.035386889 0)
(152.49131 -0.03717725 0)
(152.51411 -0.03912095 0)
(152.53813 -0.041224214 0)
(152.56345 -0.043493647 0)
(152.59017 -0.045936149 0)
(152.61842 -0.048558961 0)
(152.64829 -0.051369554 0)
(152.67989 -0.054375677 0)
(152.71336 -0.057585221 0)
(152.74881 -0.061006258 0)
(152.78637 -0.064646875 0)
(152.82618 -0.068515207 0)
(152.86837 -0.072619224 0)
(152.9131 -0.07696676 0)
(152.96051 -0.081565249 0)
(153.01074 -0.086421731 0)
(153.06397 -0.09154254 0)
(153.12035 -0.096933259 0)
(153.18004 -0.10259845 0)
(153.24321 -0.10854136 0)
(153.31004 -0.11476382 0)
(153.38068 -0.12126573 0)
(153.45532 -0.12804498 0)
(153.5341 -0.13509688 0)
(153.61721 -0.14241393 0)
(153.7048 -0.14998526 0)
(153.79702 -0.15779631 0)
(153.89401 -0.16582819 0)
(153.9959 -0.17405729 0)
(154.1028 -0.18245466 0)
(154.21482 -0.19098546 0)
(154.33202 -0.19960841 0)
(154.45445 -0.20827516 0)
(154.58213 -0.21692977 0)
(154.71503 -0.22550812 0)
(154.8531 -0.23393746 0)
(154.99623 -0.24213595 0)
(155.14426 -0.25001235 0)
(155.29697 -0.25746575 0)
(155.45409 -0.2643856 0)
(155.61526 -0.27065176 0)
(155.78007 -0.27613494 0)
(155.948 -0.28069727 0)
(156.11847 -0.28419329 0)
(156.29079 -0.28647126 0)
(156.46419 -0.28737483 0)
(156.63779 -0.28674515 0)
(156.81064 -0.28442345 0)
(156.98165 -0.28025401 0)
(157.14967 -0.27408761 0)
(157.31346 -0.26578545 0)
(157.47167 -0.25522328 0)
(157.6229 -0.24229599 0)
(157.76569 -0.22692229 0)
(157.89854 -0.20904945 0)
(158.0199 -0.18865789 0)
(158.12824 -0.1657655 0)
(158.22204 -0.14043141 0)
(158.29985 -0.11275884 0)
(158.36026 -0.082897125 0)
(158.40198 -0.05104254 0)
(158.42386 -0.01743824 0)
(158.4249 0.017627698 0)
(158.4043 0.053828879 0)
(158.36146 0.09080515 0)
(158.29602 0.12816844 0)
(158.20785 0.16551108 0)
(158.0971 0.20241513 0)
(157.96415 0.23846219 0)
(157.80965 0.27324355 0)
(157.6345 0.30637007 0)
(157.43983 0.33748142 0)
(157.22696 0.36625431 0)
(156.99743 0.39240929 0)
(156.7529 0.415716 0)
(156.49519 0.43599658 0)
(156.22618 0.45312729 0)
(155.94782 0.46703829 0)
(155.66209 0.47771182 0)
(155.37096 0.48517892 0)
(155.07634 0.48951495 0)
(154.78013 0.49083421 0)
(154.4841 0.48928397 0)
(154.18994 0.48503816 0)
(153.89922 0.47829098 0)
(153.61338 0.46925079 0)
(153.33375 0.45813419 0)
(153.06151 0.44516076 0)
(152.79769 0.43054832 0)
(152.54321 0.41450883 0)
(152.29887 0.39724508 0)
(152.06533 0.37894798 0)
(151.84314 0.35979448 0)
(151.63276 0.33994618 0)
(151.43455 0.31954845 0)
(151.2488 0.29872992 0)
(151.0757 0.2776026 0)
(150.9154 0.25626214 0)
(150.768 0.23478848 0)
(150.63355 0.21324664 0)
(150.51206 0.1916878 0)
(150.40352 0.17015031 0)
(150.30791 0.14866102 0)
(150.2252 0.12723641 0)
(150.15531 0.10588402 0)
(150.09808 0.084603812 0)
(150.0535 0.063389448 0)
(150.02214 0.042229087 0)
(150.00495 0.021105889 0)
(152.25187 -0.033430344 0)
(152.27002 -0.033550187 0)
(152.28407 -0.033814969 0)
(152.29851 -0.034230508 0)
(152.31314 -0.034798087 0)
(152.32804 -0.035519831 0)
(152.34328 -0.036398419 0)
(152.35894 -0.037437088 0)
(152.37506 -0.03863965 0)
(152.39174 -0.040010467 0)
(152.40903 -0.041554484 0)
(152.42702 -0.043277188 0)
(152.44578 -0.045184653 0)
(152.4654 -0.04728348 0)
(152.48594 -0.049580858 0)
(152.50751 -0.052084477 0)
(152.53019 -0.054802599 0)
(152.55408 -0.057743958 0)
(152.57927 -0.060917822 0)
(152.60585 -0.064333877 0)
(152.63395 -0.068002287 0)
(152.66367 -0.071933549 0)
(152.69512 -0.076138552 0)
(152.72842 -0.080628391 0)
(152.7637 -0.085414423 0)
(152.80109 -0.090508035 0)
(152.84071 -0.09592069 0)
(152.88272 -0.10166363 0)
(152.92725 -0.10774793 0)
(152.97445 -0.11418409 0)
(153.02449 -0.12098211 0)
(153.0775 -0.12815099 0)
(153.13366 -0.1356987 0)
(153.19314 -0.14363181 0)
(153.2561 -0.15195507 0)
(153.3227 -0.16067123 0)
(153.39313 -0.16978042 0)
(153.46754 -0.17927995 0)
(153.54612 -0.18916349 0)
(153.62903 -0.19942089 0)
(153.71642 -0.21003722 0)
(153.80846 -0.22099246 0)
(153.90529 -0.23226051 0)
(154.00704 -0.2438087 0)
(154.11383 -0.25559688 0)
(154.22576 -0.26757666 0)
(154.34292 -0.27969062 0)
(154.46534 -0.29187142 0)
(154.59306 -0.3040411 0)
(154.72606 -0.3161102 0)
(154.86429 -0.32797711 0)
(155.00765 -0.33952742 0)
(155.15599 -0.35063348 0)
(155.3091 -0.361154 0)
(155.4667 -0.37093404 0)
(155.62846 -0.37980508 0)
(155.79396 -0.38758559 0)
(155.9627 -0.39408184 0)
(156.13409 -0.39908926 0)
(156.30746 -0.40239418 0)
(156.48204 -0.40377624 0)
(156.65695 -0.40301131 0)
(156.83123 -0.39987507 0)
(157.00379 -0.39414723 0)
(157.17349 -0.38561634 0)
(157.33904 -0.37408532 0)
(157.49912 -0.35937733 0)
(157.6523 -0.34134224 0)
(157.79708 -0.31986328 0)
(157.93195 -0.29486375 0)
(158.05533 -0.26631365 0)
(158.16567 -0.23423575 0)
(158.2614 -0.19871106 0)
(158.34103 -0.15988296 0)
(158.40313 -0.11796012 0)
(158.44636 -0.073217682 0)
(158.46953 -0.025997135 0)
(158.47162 0.02329651 0)
(158.45179 0.074202619 0)
(158.40942 0.12621251 0)
(158.34412 0.1787781 0)
(158.25577 0.2313233 0)
(158.14448 0.28325714 0)
(158.01067 0.33398786 0)
(157.85498 0.38293732 0)
(157.67834 0.42955506 0)
(157.48189 0.47333152 0)
(157.26701 0.51380976 0)
(157.03525 0.55059514 0)
(156.78834 0.58336276 0)
(156.52811 0.61186226 0)
(156.2565 0.63592015 0)
(155.97552 0.65543935 0)
(155.68716 0.67039659 0)
(155.39344 0.68083763 0)
(155.09632 0.68687089 0)
(154.7977 0.68865967 0)
(154.4994 0.6864137 0)
(154.20311 0.68038006 0)
(153.91042 0.67083424 0)
(153.62279 0.6580713 0)
(153.34154 0.64239761 0)
(153.06785 0.62412341 0)
(152.80277 0.60355606 0)
(152.54719 0.58099438 0)
(152.3019 0.55672397 0)
(152.06757 0.53101338 0)
(151.84472 0.50411132 0)
(151.63381 0.47624469 0)
(151.43519 0.44761734 0)
(151.24911 0.41840952 0)
(151.07577 0.38877795 0)
(150.91531 0.35885631 0)
(150.76781 0.32875612 0)
(150.6333 0.29856798 0)
(150.51179 0.26836295 0)
(150.40326 0.23819415 0)
(150.30768 0.2080985 0)
(150.22502 0.17809844 0)
(150.15517 0.14820382 0)
(150.09799 0.11841389 0)
(150.05344 0.088719095 0)
(150.02212 0.059102192 0)
(150.00494 0.029538788 0)
(152.27527 -0.042752633 0)
(152.29327 -0.042905971 0)
(152.30722 -0.043245082 0)
(152.32154 -0.043777558 0)
(152.33605 -0.044505062 0)
(152.35084 -0.045430325 0)
(152.36597 -0.046556794 0)
(152.3815 -0.047888625 0)
(152.3975 -0.049430717 0)
(152.41405 -0.051188675 0)
(152.43121 -0.053168853 0)
(152.44906 -0.055378305 0)
(152.46768 -0.057824837 0)
(152.48715 -0.060516939 0)
(152.50754 -0.063463851 0)
(152.52896 -0.066675468 0)
(152.55147 -0.070162418 0)
(152.57519 -0.073935939 0)
(152.60019 -0.078007963 0)
(152.6266 -0.082390959 0)
(152.6545 -0.087098023 0)
(152.68402 -0.092142679 0)
(152.71526 -0.097538969 0)
(152.74834 -0.1033012 0)
(152.7834 -0.10944404 0)
(152.82055 -0.1159822 0)
(152.85993 -0.12293048 0)
(152.90169 -0.13030346 0)
(152.94596 -0.13811547 0)
(152.9929 -0.14638017 0)
(153.04265 -0.15511055 0)
(153.09539 -0.16431837 0)
(153.15127 -0.17401408 0)
(153.21045 -0.18420636 0)
(153.27312 -0.19490156 0)
(153.33943 -0.20610354 0)
(153.40956 -0.21781277 0)
(153.48369 -0.23002615 0)
(153.56199 -0.24273598 0)
(153.64463 -0.25592961 0)
(153.73176 -0.26958832 0)
(153.82356 -0.28368691 0)
(153.92017 -0.29819235 0)
(154.02173 -0.31306321 0)
(154.12837 -0.32824846 0)
(154.24019 -0.34368652 0)
(154.35728 -0.35930417 0)
(154.47969 -0.37501547 0)
(154.60747 -0.39072075 0)
(154.7406 -0.40630557 0)
(154.87903 -0.42163976 0)
(155.0227 -0.43657662 0)
(155.17144 -0.45095229 0)
(155.32506 -0.46458524 0)
(155.48331 -0.47727614 0)
(155.64585 -0.48880803 0)
(155.81226 -0.49894688 0)
(155.98208 -0.50744267 0)
(156.1547 -0.51403105 0)
(156.32947 -0.5184356 0)
(156.50562 -0.52037083 0)
(156.68227 -0.51954591 0)
(156.85845 -0.51566932 0)
(157.03309 -0.50845421 0)
(157.20502 -0.49762471 0)
(157.37295 -0.48292293 0)
(157.53553 -0.46411681 0)
(157.6913 -0.44100835 0)
(157.83877 -0.41344243 0)
(157.97635 -0.38131558 0)
(158.10245 -0.34458472 0)
(158.21546 -0.30327522 0)
(158.31379 -0.25748814 0)
(158.39588 -0.20740586 0)
(158.46024 -0.15329602 0)
(158.50551 -0.095513264 0)
(158.53043 -0.034499002 0)
(158.53393 0.029222051 0)
(158.51515 0.095051827 0)
(158.47341 0.1623293 0)
(158.40831 0.23034091 0)
(158.3197 0.29833607 0)
(158.2077 0.36554444 0)
(158.07273 0.43119445 0)
(157.91544 0.49453227 0)
(157.73679 0.55484039 0)
(157.53796 0.61145503 0)
(157.32037 0.66378148 0)
(157.08562 0.71130691 0)
(156.83549 0.75361006 0)
(156.57189 0.79036746 0)
(156.2968 0.82135637 0)
(156.01229 0.84645407 0)
(155.72041 0.86563426 0)
(155.42323 0.8789607 0)
(155.12275 0.88657859 0)
(154.82092 0.88870444 0)
(154.51957 0.88561469 0)
(154.22044 0.87763392 0)
(153.92513 0.86512301 0)
(153.63512 0.84846761 0)
(153.35172 0.82806741 0)
(153.07611 0.80432632 0)
(152.80934 0.77764393 0)
(152.55231 0.74840805 0)
(152.30578 0.71698875 0)
(152.0704 0.68373349 0)
(151.8467 0.64896356 0)
(151.63509 0.6129716 0)
(151.43592 0.57602013 0)
(151.24943 0.53834084 0)
(151.07579 0.50013483 0)
(150.91513 0.46157325 0)
(150.7675 0.42279855 0)
(150.63292 0.38392604 0)
(150.5114 0.34504587 0)
(150.40289 0.30622494 0)
(150.30736 0.26750933 0)
(150.22475 0.22892645 0)
(150.15497 0.19048751 0)
(150.09786 0.15219009 0)
(150.05337 0.1140205 0)
(150.02208 0.075955225 0)
(150.00494 0.037961349 0)
(152.30436 -0.052193174 0)
(152.32219 -0.05238071 0)
(152.33599 -0.052794733 0)
(152.35017 -0.053444489 0)
(152.36454 -0.054331998 0)
(152.37919 -0.0554606 0)
(152.39416 -0.056834512 0)
(152.40954 -0.058458814 0)
(152.42539 -0.0603395 0)
(152.44178 -0.062483422 0)
(152.45877 -0.064898355 0)
(152.47646 -0.067592924 0)
(152.4949 -0.070576681 0)
(152.51419 -0.073860015 0)
(152.53439 -0.077454236 0)
(152.55561 -0.081371459 0)
(152.57792 -0.085624699 0)
(152.60142 -0.090227723 0)
(152.62621 -0.095195155 0)
(152.65238 -0.10054228 0)
(152.68004 -0.10628517 0)
(152.70931 -0.11244042 0)
(152.74029 -0.11902527 0)
(152.7731 -0.12605732 0)
(152.80787 -0.1335546 0)
(152.84473 -0.14153521 0)
(152.88381 -0.15001744 0)
(152.92525 -0.15901925 0)
(152.9692 -0.16855838 0)
(153.0158 -0.17865175 0)
(153.06521 -0.18931552 0)
(153.1176 -0.20056437 0)
(153.17312 -0.21241142 0)
(153.23194 -0.22486766 0)
(153.29424 -0.2379413 0)
(153.36019 -0.25163751 0)
(153.42996 -0.26595743 0)
(153.50373 -0.28089785 0)
(153.58167 -0.29644997 0)
(153.66396 -0.31259906 0)
(153.75078 -0.32932297 0)
(153.84227 -0.34659169 0)
(153.93861 -0.3643657 0)
(154.03993 -0.38259524 0)
(154.14637 -0.40121886 0)
(154.25804 -0.42016222 0)
(154.37504 -0.43933674 0)
(154.49744 -0.4586383 0)
(154.62528 -0.47794596 0)
(154.75856 -0.4971206 0)
(154.89726 -0.5160038 0)
(155.04129 -0.53441681 0)
(155.19053 -0.55215962 0)
(155.3448 -0.56901043 0)
(155.50385 -0.58472537 0)
(155.66735 -0.59903861 0)
(155.83491 -0.61166302 0)
(156.00606 -0.62229144 0)
(156.18023 -0.6305986 0)
(156.35674 -0.63624383 0)
(156.53485 -0.63887471 0)
(156.71368 -0.63813157 0)
(156.89226 -0.63365314 0)
(157.06951 -0.62508315 0)
(157.24424 -0.61207805 0)
(157.41516 -0.59431569 0)
(157.58088 -0.57150496 0)
(157.73994 -0.54339612 0)
(157.89078 -0.50979174 0)
(158.03179 -0.47055772 0)
(158.16133 -0.42563428 0)
(158.27773 -0.37504616 0)
(158.37934 -0.31891188 0)
(158.46455 -0.25745095 0)
(158.53179 -0.19098914 0)
(158.57964 -0.11996079 0)
(158.60679 -0.044908659 0)
(158.61209 0.033520013 0)
(158.59464 0.11458461 0)
(158.55371 0.19746539 0)
(158.48888 0.28127664 0)
(158.39996 0.36508568 0)
(158.28707 0.44793463 0)
(158.15063 0.5288637 0)
(157.99133 0.60693509 0)
(157.81014 0.68125642 0)
(157.60829 0.75100267 0)
(157.38727 0.81543553 0)
(157.14874 0.87391943 0)
(156.89455 0.92593365 0)
(156.62668 0.9710801 0)
(156.34719 1.0090867 0)
(156.05822 1.0398064 0)
(155.7619 1.0632123 0)
(155.46035 1.0793898 0)
(155.15564 1.088525 0)
(154.84976 1.0908926 0)
(154.5446 1.0868406 0)
(154.2419 1.0767763 0)
(153.94331 1.061151 0)
(153.6503 1.0404455 0)
(153.36421 1.0151573 0)
(153.08622 0.98578778 0)
(152.81735 0.95283201 0)
(152.55851 0.91676958 0)
(152.31044 0.87805726 0)
(152.07377 0.83712311 0)
(151.849 0.79436224 0)
(151.63655 0.75013382 0)
(151.43671 0.70475944 0)
(151.24971 0.65852234 0)
(151.07571 0.6116678 0)
(150.91481 0.56440406 0)
(150.76703 0.51690389 0)
(150.63239 0.46930667 0)
(150.51086 0.42172073 0)
(150.40239 0.37422595 0)
(150.30693 0.32687661 0)
(150.2244 0.27970412 0)
(150.15471 0.23272008 0)
(150.09769 0.18591941 0)
(150.05327 0.13928332 0)
(150.02204 0.092780981 0)
(150.00493 0.046369887 0)
(152.33915 -0.061334949 0)
(152.35677 -0.06155528 0)
(152.37041 -0.062042235 0)
(152.38442 -0.062806824 0)
(152.39862 -0.063851445 0)
(152.41309 -0.065180048 0)
(152.42789 -0.066797612 0)
(152.44308 -0.068710138 0)
(152.45875 -0.070924706 0)
(152.47494 -0.073449411 0)
(152.49174 -0.076293439 0)
(152.50922 -0.079466986 0)
(152.52746 -0.082981345 0)
(152.54652 -0.086848799 0)
(152.5665 -0.091082726 0)
(152.58748 -0.095697459 0)
(152.60955 -0.10070841 0)
(152.63279 -0.10613187 0)
(152.65731 -0.11198517 0)
(152.68321 -0.11828644 0)
(152.71058 -0.12505472 0)
(152.73955 -0.13230971 0)
(152.77021 -0.1400719 0)
(152.8027 -0.14836219 0)
(152.83713 -0.15720205 0)
(152.87364 -0.16661304 0)
(152.91235 -0.17661697 0)
(152.95342 -0.18723532 0)
(152.99698 -0.19848931 0)
(153.04318 -0.21039928 0)
(153.09218 -0.22298467 0)
(153.14415 -0.23626326 0)
(153.19924 -0.25025102 0)
(153.25763 -0.2649615 0)
(153.31948 -0.28040498 0)
(153.38498 -0.29658827 0)
(153.45431 -0.31351344 0)
(153.52764 -0.33117753 0)
(153.60516 -0.34957106 0)
(153.68704 -0.3686776 0)
(153.77346 -0.38847205 0)
(153.86459 -0.40892009 0)
(153.96059 -0.42997622 0)
(154.06162 -0.45158293 0)
(154.16781 -0.47366894 0)
(154.2793 -0.49614772 0)
(154.39618 -0.51891601 0)
(154.51855 -0.54185209 0)
(154.64645 -0.56481433 0)
(154.77991 -0.58763952 0)
(154.9189 -0.61014151 0)
(155.06336 -0.63210986 0)
(155.2132 -0.6533088 0)
(155.36822 -0.67347638 0)
(155.52821 -0.69232417 0)
(155.69286 -0.70953724 0)
(155.86179 -0.72477488 0)
(156.03453 -0.73767194 0)
(156.21054 -0.74784108 0)
(156.38915 -0.75487584 0)
(156.56961 -0.75835488 0)
(156.75106 -0.75784727 0)
(156.93252 -0.7529191 0)
(157.1129 -0.74314132 0)
(157.29101 -0.72809891 0)
(157.46554 -0.70740126 0)
(157.63506 -0.68069374 0)
(157.79809 -0.64767013 0)
(157.95302 -0.60808589 0)
(158.09819 -0.56177162 0)
(158.23191 -0.50864641 0)
(158.35244 -0.44873055 0)
(158.45805 -0.38215686 0)
(158.54705 -0.30917994 0)
(158.61782 -0.2301828 0)
(158.66883 -0.14568003 0)
(158.6987 -0.056317805 0)
(158.70622 0.037130313 0)
(158.69041 0.1337761 0)
(158.65049 0.232635 0)
(158.58599 0.33264073 0)
(158.4967 0.43266909 0)
(158.38275 0.5315645 0)
(158.24453 0.62816853 0)
(158.08277 0.72134923 0)
(157.8985 0.81002985 0)
(157.69299 0.89321571 0)
(157.46779 0.97001791 0)
(157.22466 1.0396729 0)
(156.96552 1.1015572 0)
(156.69246 1.1551966 0)
(156.40763 1.2002701 0)
(156.11324 1.2366084 0)
(155.81153 1.2641879 0)
(155.5047 1.2831201 0)
(155.19487 1.2936381 0)
(154.88409 1.2960806 0)
(154.57431 1.2908742 0)
(154.26732 1.2785153 0)
(153.96478 1.2595519 0)
(153.66817 1.2345661 0)
(153.37886 1.2041583 0)
(153.098 1.1689322 0)
(152.82664 1.1294823 0)
(152.56564 1.0863833 0)
(152.31574 1.0401812 0)
(152.07754 0.99138656 0)
(151.85152 0.94046956 0)
(151.63807 0.88785666 0)
(151.43746 0.83392876 0)
(151.24988 0.77902053 0)
(151.07547 0.72342094 0)
(150.91429 0.66737457 0)
(150.76636 0.61108358 0)
(150.63166 0.55471028 0)
(150.51014 0.49838007 0)
(150.40173 0.44218447 0)
(150.30636 0.38618465 0)
(150.22395 0.33041473 0)
(150.15438 0.27488535 0)
(150.09746 0.21958749 0)
(150.05315 0.16449597 0)
(150.02199 0.10957139 0)
(150.00491 0.054760275 0)
(152.37962 -0.070544544 0)
(152.39699 -0.070798375 0)
(152.41044 -0.071358733 0)
(152.42425 -0.072238256 0)
(152.43825 -0.073439696 0)
(152.45252 -0.074967608 0)
(152.46711 -0.076827738 0)
(152.4821 -0.079027011 0)
(152.49754 -0.081573595 0)
(152.51352 -0.084476834 0)
(152.53009 -0.087747332 0)
(152.54733 -0.091396858 0)
(152.56532 -0.095438454 0)
(152.58413 -0.099886308 0)
(152.60385 -0.10475588 0)
(152.62456 -0.11006374 0)
(152.64634 -0.11582769 0)
(152.66929 -0.12206661 0)
(152.6935 -0.12880055 0)
(152.71907 -0.13605048 0)
(152.74611 -0.1438385 0)
(152.77472 -0.15218744 0)
(152.80502 -0.16112109 0)
(152.83713 -0.17066373 0)
(152.87117 -0.18084034 0)
(152.90726 -0.19167603 0)
(152.94555 -0.20319624 0)
(152.98618 -0.21542607 0)
(153.02928 -0.2283904 0)
(153.07502 -0.24211311 0)
(153.12354 -0.25661713 0)
(153.17501 -0.27192353 0)
(153.2296 -0.2880514 0)
(153.28747 -0.30501704 0)
(153.34881 -0.32283316 0)
(153.4138 -0.3415085 0)
(153.48261 -0.36104645 0)
(153.55543 -0.3814447 0)
(153.63244 -0.40269351 0)
(153.71383 -0.42477524 0)
(153.79978 -0.44766236 0)
(153.89048 -0.47131678 0)
(153.98608 -0.49568764 0)
(154.08675 -0.52071028 0)
(154.19265 -0.54630422 0)
(154.30391 -0.57237147 0)
(154.42065 -0.59879467 0)
(154.54297 -0.62543523 0)
(154.67093 -0.65213145 0)
(154.80457 -0.67869664 0)
(154.94389 -0.7049174 0)
(155.08885 -0.73055208 0)
(155.23935 -0.75532937 0)
(155.39525 -0.77894735 0)
(155.55633 -0.8010729 0)
(155.7223 -0.82134162 0)
(155.89281 -0.83935853 0)
(156.0674 -0.85469948 0)
(156.24554 -0.86691358 0)
(156.42659 -0.87552666 0)
(156.6098 -0.88004602 0)
(156.7943 -0.87996648 0)
(156.97913 -0.87477797 0)
(157.16319 -0.86397454 0)
(157.34527 -0.84706505 0)
(157.52403 -0.82358527 0)
(157.69804 -0.79311148 0)
(157.86575 -0.75527514 0)
(158.02551 -0.70977863 0)
(158.17561 -0.65641129 0)
(158.31427 -0.59506553 0)
(158.43969 -0.52575213 0)
(158.55005 -0.44861417 0)
(158.64357 -0.36393842 0)
(158.71854 -0.27216376 0)
(158.77332 -0.17388539 0)
(158.80645 -0.06985522 0)
(158.81662 0.039022364 0)
(158.80277 0.1517042 0)
(158.76408 0.26703184 0)
(158.7 0.38374808 0)
(158.6103 0.5005255 0)
(158.49508 0.61599823 0)
(158.35477 0.72879627 0)
(158.19011 0.83758081 0)
(158.00216 0.94107885 0)
(157.7923 1.0381155 0)
(157.56215 1.1276426 0)
(157.31355 1.2087621 0)
(157.04855 1.2807433 0)
(156.76933 1.3430342 0)
(156.47816 1.3952653 0)
(156.17737 1.4372477 0)
(155.86928 1.4689655 0)
(155.5562 1.4905622 0)
(155.24033 1.5023248 0)
(154.92379 1.504664 0)
(154.60859 1.4980928 0)
(154.29655 1.4832047 0)
(153.98938 1.4606521 0)
(153.68857 1.4311258 0)
(153.39549 1.3953353 0)
(153.11131 1.3539925 0)
(152.83704 1.3077962 0)
(152.57355 1.25742 0)
(152.32154 1.2035024 0)
(152.08158 1.1466386 0)
(151.85414 1.0873756 0)
(151.63955 1.026208 0)
(151.43807 0.96357647 0)
(151.24985 0.89986683 0)
(151.07498 0.83541133 0)
(150.91352 0.77049004 0)
(150.76543 0.70533348 0)
(150.63069 0.64012564 0)
(150.5092 0.57500759 0)
(150.40088 0.51008106 0)
(150.30564 0.44541264 0)
(150.22338 0.3810376 0)
(150.15396 0.3169641 0)
(150.09719 0.25317764 0)
(150.05299 0.18964517 0)
(150.02192 0.12631725 0)
(150.0049 0.063127829 0)
(152.42576 -0.079439913 0)
(152.44284 -0.07972581 0)
(152.45608 -0.080357466 0)
(152.46966 -0.081349229 0)
(152.48344 -0.082704227 0)
(152.49747 -0.084427621 0)
(152.51183 -0.086525917 0)
(152.52658 -0.08900696 0)
(152.54178 -0.091880005 0)
(152.5575 -0.095155638 0)
(152.57381 -0.098845879 0)
(152.59079 -0.10296407 0)
(152.6085 -0.107525 0)
(152.62702 -0.11254477 0)
(152.64644 -0.11804092 0)
(152.66683 -0.12403226 0)
(152.68829 -0.13053902 0)
(152.7109 -0.13758265 0)
(152.73476 -0.14518594 0)
(152.75996 -0.15337278 0)
(152.78662 -0.16216831 0)
(152.81483 -0.17159857 0)
(152.84471 -0.18169068 0)
(152.87639 -0.1924724 0)
(152.90997 -0.20397226 0)
(152.9456 -0.21621905 0)
(152.98341 -0.22924195 0)
(153.02353 -0.24306981 0)
(153.06611 -0.25773132 0)
(153.11131 -0.27325409 0)
(153.15928 -0.28966476 0)
(153.21018 -0.30698792 0)
(153.26419 -0.32524603 0)
(153.32148 -0.34445851 0)
(153.38223 -0.36464079 0)
(153.44661 -0.38580396 0)
(153.51482 -0.40795317 0)
(153.58705 -0.43108722 0)
(153.66348 -0.45519667 0)
(153.74431 -0.48026324 0)
(153.82972 -0.50625759 0)
(153.9199 -0.53313856 0)
(154.01503 -0.56085063 0)
(154.11529 -0.58932279 0)
(154.22084 -0.61846616 0)
(154.33182 -0.64817208 0)
(154.44838 -0.67831001 0)
(154.57062 -0.70872527 0)
(154.69863 -0.73923693 0)
(154.83246 -0.76963559 0)
(154.97214 -0.79968134 0)
(155.11764 -0.82910186 0)
(155.26888 -0.8575908 0)
(155.42575 -0.88480647 0)
(155.58804 -0.91037109 0)
(155.75551 -0.93387049 0)
(155.9278 -0.95485476 0)
(156.10449 -0.97283968 0)
(156.28506 -0.98730922 0)
(156.46888 -0.99771941 0)
(156.65522 -1.0035035 0)
(156.84322 -1.0040787 0)
(157.03192 -0.99885477 0)
(157.2202 -0.98724417 0)
(157.40684 -0.96867429 0)
(157.59049 -0.94260134 0)
(157.76967 -0.90852602 0)
(157.94278 -0.86601063 0)
(158.10814 -0.81469743 0)
(158.26395 -0.75432755 0)
(158.40836 -0.68476004 0)
(158.53947 -0.6059902 0)
(158.65538 -0.51816635 0)
(158.75419 -0.42160385 0)
(158.83406 -0.3167956 0)
(158.89327 -0.20441763 0)
(158.93023 -0.085330074 0)
(158.94353 0.039426868 0)
(158.93202 0.16864749 0)
(158.89478 0.30099008 0)
(158.83122 0.43499429 0)
(158.74107 0.56911554 0)
(158.6244 0.70176267 0)
(158.48165 0.83133866 0)
(158.31361 0.95628263 0)
(158.1214 1.0751111 0)
(157.90646 1.1864565 0)
(157.67053 1.2891009 0)
(157.41556 1.3820041 0)
(157.14372 1.4643233 0)
(156.85733 1.5354267 0)
(156.55879 1.594897 0)
(156.25055 1.6425293 0)
(155.93507 1.6783204 0)
(155.61474 1.7024536 0)
(155.29188 1.715278 0)
(154.96869 1.7172856 0)
(154.64723 1.7090853 0)
(154.32939 1.6913774 0)
(154.01689 1.664928 0)
(153.71128 1.6305445 0)
(153.4139 1.5890537 0)
(153.12593 1.5412818 0)
(152.84836 1.4880376 0)
(152.58205 1.4300982 0)
(152.32766 1.3681977 0)
(152.08574 1.303019 0)
(151.8567 1.2351872 0)
(151.64086 1.165266 0)
(151.43842 1.0937559 0)
(151.2495 1.0210939 0)
(151.07417 0.94765454 0)
(150.91241 0.87375246 0)
(150.76419 0.79964508 0)
(150.62942 0.72553657 0)
(150.508 0.65158198 0)
(150.39982 0.57789152 0)
(150.30475 0.50453538 0)
(150.22267 0.43154818 0)
(150.15344 0.35893381 0)
(150.09684 0.28667053 0)
(150.0528 0.21471569 0)
(150.02184 0.14300807 0)
(150.00488 0.071467215 0)
(152.47754 -0.088341021 0)
(152.49431 -0.088659292 0)
(152.5073 -0.089362107 0)
(152.52063 -0.090465427 0)
(152.53416 -0.091972738 0)
(152.54793 -0.093889802 0)
(152.56203 -0.096223886 0)
(152.57651 -0.098983753 0)
(152.59144 -0.10217974 0)
(152.60687 -0.10582369 0)
(152.62289 -0.10992902 0)
(152.63957 -0.11451066 0)
(152.65696 -0.11958515 0)
(152.67516 -0.12517049 0)
(152.69424 -0.13128633 0)
(152.71429 -0.13795372 0)
(152.73538 -0.14519535 0)
(152.75761 -0.15303523 0)
(152.78107 -0.16149895 0)