/*--------------------------------*- C++ -*----------------------------------*\
| =========                 |                                                 |
| \\      /  F ield         | foam-extend: Open Source CFD                    |
|  \\    /   O peration     | Version:     4.1                                |
|   \\  /    A nd           | Web:         http://www.foam-extend.org         |
|    \\/     M anipulation  |                                                 |
\*---------------------------------------------------------------------------*/
FoamFile
{
    version     2.0;
    format      ascii;
    class       volVectorField;
    location    "0.15";
    object      U;
}
// * * * * * * * * * * * * * * * * * * * * * * * * * * * * * * * * * * * * * //

dimensions      [0 1 -1 0 0 0 0];

internalField   nonuniform List<vector> 
4393
(
(147.32063 -0.076933922 0)
(147.52744 -0.089375607 0)
(147.65525 -0.090903369 0)
(147.82429 -0.094941993 0)
(147.98725 -0.098478431 0)
(148.16594 -0.10276196 0)
(148.35418 -0.10745798 0)
(148.55753 -0.1126729 0)
(148.77661 -0.11831068 0)
(149.01391 -0.12430287 0)
(149.27073 -0.13051419 0)
(149.54825 -0.13676462 0)
(149.84684 -0.14280783 0)
(150.16598 -0.14833158 0)
(150.50406 -0.15295807 0)
(150.8581 -0.15625713 0)
(151.2237 -0.15776966 0)
(151.59493 -0.15704036 0)
(151.96444 -0.15366156 0)
(152.32362 -0.14730957 0)
(152.66299 -0.13778349 0)
(152.97258 -0.12502936 0)
(153.24241 -0.10916377 0)
(153.46309 -0.090480999 0)
(153.62635 -0.069462893 0)
(153.72568 -0.04676274 0)
(153.75683 -0.023182243 0)
(153.71839 0.00046082999 0)
(153.61158 0.023036061 0)
(153.44149 0.043295727 0)
(153.21635 0.060268471 0)
(152.94705 0.073222555 0)
(152.64627 0.081757567 0)
(152.32738 0.085848847 0)
(152.00326 0.08582697 0)
(151.68542 0.082253333 0)
(151.38339 0.075864963 0)
(151.10439 0.067413958 0)
(150.85345 0.057634718 0)
(150.63355 0.047151434 0)
(150.44598 0.036479934 0)
(150.29076 0.026005144 0)
(150.16694 0.016005398 0)
(150.07298 0.0066703505 0)
(150.007 -0.0018568561 0)
(149.9668 -0.0094527854 0)
(149.95002 -0.015755987 0)
(149.95723 -0.020127992 0)
(149.96526 -0.025376161 0)
(150.75868 -0.09796065 0)
(150.88459 -0.11348 0)
(150.94819 -0.11590605 0)
(151.04534 -0.12320638 0)
(151.13782 -0.1309781 0)
(151.24521 -0.14137944 0)
(151.36226 -0.15389555 0)
(151.49432 -0.16877596 0)
(151.64214 -0.1858192 0)
(151.80822 -0.20481977 0)
(151.99397 -0.22536099 0)
(152.20064 -0.24685537 0)
(152.42866 -0.26849166 0)
(152.67766 -0.28923549 0)
(152.94606 -0.30783615 0)
(153.23099 -0.32287052 0)
(153.52806 -0.33281955 0)
(153.83131 -0.33617183 0)
(154.1333 -0.33156223 0)
(154.42532 -0.31788467 0)
(154.69769 -0.29441425 0)
(154.94021 -0.26088306 0)
(155.1427 -0.21755844 0)
(155.29547 -0.16527105 0)
(155.39002 -0.10546017 0)
(155.4196 -0.040138111 0)
(155.37983 0.028140537 0)
(155.26913 0.096482575 0)
(155.08972 0.16163666 0)
(154.84659 0.22027277 0)
(154.54808 0.26945715 0)
(154.20518 0.30696297 0)
(153.83076 0.331522 0)
(153.43843 0.34299973 0)
(153.04124 0.34233956 0)
(152.65079 0.33117104 0)
(152.27662 0.31166268 0)
(151.9259 0.2860182 0)
(151.60353 0.25639457 0)
(151.31237 0.22461203 0)
(151.05361 0.1921662 0)
(150.82713 0.16015155 0)
(150.63193 0.12932916 0)
(150.46646 0.10016207 0)
(150.32885 0.072910653 0)
(150.2171 0.047675563 0)
(150.12925 0.024795391 0)
(150.06382 0.0050544178 0)
(150.01828 -0.016043563 0)
(150.89308 -0.1859906 0)
(151.01245 -0.19768877 0)
(151.07206 -0.20425859 0)
(151.16297 -0.21732653 0)
(151.24946 -0.23237701 0)
(151.35029 -0.25137522 0)
(151.46068 -0.27359978 0)
(151.5859 -0.29926151 0)
(151.72687 -0.32801734 0)
(151.88619 -0.35950307 0)
(152.06542 -0.39304406 0)
(152.26599 -0.4276937 0)
(152.48858 -0.4621479 0)
(152.73301 -0.49473627 0)
(152.99795 -0.52342783 0)
(153.28067 -0.54589769 0)
(153.57692 -0.55965245 0)
(153.88074 -0.56220189 0)
(154.18462 -0.55130034 0)
(154.47966 -0.52513351 0)
(154.75591 -0.48252897 0)
(155.00284 -0.42307706 0)
(155.20985 -0.34726461 0)
(155.36681 -0.25651288 0)
(155.46475 -0.15326586 0)
(155.4964 -0.040927176 0)
(155.45693 0.076165927 0)
(155.34443 0.19293425 0)
(155.16039 0.3039273 0)
(154.90995 0.40372762 0)
(154.60181 0.48736021 0)
(154.24772 0.55105557 0)
(153.86148 0.59266817 0)
(153.45769 0.61202119 0)
(153.0502 0.61082316 0)
(152.65115 0.59191259 0)
(152.27033 0.55906331 0)
(151.9149 0.5160431 0)
(151.58961 0.46653293 0)
(151.29699 0.41359997 0)
(151.03791 0.35975574 0)
(150.81193 0.30681906 0)
(150.61775 0.2560473 0)
(150.45357 0.20818995 0)
(150.31732 0.16363839 0)
(150.20692 0.12250765 0)
(150.12052 0.084917947 0)
(150.05553 0.05125121 0)
(150.01396 0.019805907 0)
(150.91311 -0.20750074 0)
(151.02319 -0.21800063 0)
(151.08168 -0.22511265 0)
(151.16898 -0.24003498 0)
(151.25322 -0.25843299 0)
(151.35146 -0.28252763 0)
(151.45957 -0.31163628 0)
(151.58262 -0.34607834 0)
(151.72172 -0.38549113 0)
(151.87958 -0.42943427 0)
(152.05795 -0.47702747 0)
(152.25853 -0.52698057 0)
(152.48223 -0.57747199 0)
(152.72917 -0.6261267 0)
(152.99828 -0.67001911 0)
(153.28703 -0.70576505 0)
(153.59122 -0.72970499 0)
(153.90483 -0.73815251 0)
(154.22006 -0.72776605 0)
(154.5276 -0.69581118 0)
(154.81695 -0.64047533 0)
(155.07692 -0.561026 0)
(155.29618 -0.45801169 0)
(155.46385 -0.33330022 0)
(155.57015 -0.1902414 0)
(155.6071 -0.033569741 0)
(155.56922 0.13061807 0)
(155.45407 0.29516322 0)
(155.26294 0.45209799 0)
(155.00115 0.59336089 0)
(154.67812 0.71156314 0)
(154.30674 0.80110234 0)
(153.9023 0.85878394 0)
(153.48096 0.88438801 0)
(153.05779 0.88057474 0)
(152.6458 0.85155856 0)
(152.25513 0.80296531 0)
(151.8929 0.74026096 0)
(151.56356 0.66877441 0)
(151.26918 0.5928519 0)
(151.0101 0.5160265 0)
(150.7854 0.4408027 0)
(150.59336 0.36888357 0)
(150.43183 0.30124494 0)
(150.29854 0.23835543 0)
(150.19129 0.18031885 0)
(150.10831 0.1271465 0)
(150.04691 0.078908119 0)
(150.01055 0.03543276 0)
(150.94719 -0.28092065 0)
(151.05469 -0.29329537 0)
(151.11119 -0.30499997 0)
(151.19439 -0.3265036 0)
(151.27461 -0.35310826 0)
(151.36811 -0.38688329 0)
(151.47143 -0.42698902 0)
(151.58959 -0.4736819 0)
(151.72404 -0.5264824 0)
(151.8777 -0.58480544 0)
(152.05272 -0.64753426 0)
(152.25116 -0.71303131 0)
(152.47441 -0.77897661 0)
(152.72305 -0.84232197 0)
(152.99641 -0.89927955 0)
(153.29228 -0.94542781 0)
(153.60659 -0.97594997 0)
(153.93319 -0.98595494 0)
(154.26393 -0.97101642 0)
(154.5889 -0.92750286 0)
(154.8968 -0.85302147 0)
(155.17554 -0.74659747 0)
(155.41276 -0.60895976 0)
(155.59648 -0.44255001 0)
(155.71577 -0.25180051 0)
(155.76155 -0.042967575 0)
(155.72736 0.175867 0)
(155.60999 0.39513467 0)
(155.41033 0.60419986 0)
(155.13392 0.79224511 0)
(154.79109 0.94919791 0)
(154.39641 1.0674255 0)
(153.96728 1.142578 0)
(153.5222 1.1745094 0)
(153.07799 1.1672337 0)
(152.64879 1.1266512 0)
(152.24522 1.0606812 0)
(151.87426 0.97671927 0)
(151.5399 0.88196355 0)
(151.24349 0.78210861 0)
(150.98466 0.68174056 0)
(150.76176 0.58400873 0)
(150.57248 0.49099607 0)
(150.41418 0.40380324 0)
(150.28422 0.32284125 0)
(150.18021 0.24799562 0)
(150.10027 0.17886839 0)
(150.04168 0.1148685 0)
(150.00862 0.055319022 0)
(150.98717 -0.30562905 0)
(151.0815 -0.31672495 0)
(151.13394 -0.32802819 0)
(151.21135 -0.35004391 0)
(151.28747 -0.3785211 0)
(151.37677 -0.41579741 0)
(151.47634 -0.46121744 0)
(151.591 -0.5152305 0)
(151.72244 -0.5774746 0)
(151.87379 -0.64742471 0)
(152.04751 -0.72390396 0)
(152.24607 -0.80505952 0)
(152.47137 -0.88814486 0)
(152.72448 -0.96943258 0)
(153.00523 -1.0441752 0)
(153.31181 -1.106721 0)
(153.64029 -1.1508236 0)
(153.98441 -1.1700457 0)
(154.33552 -1.1585478 0)
(154.68294 -1.111476 0)
(155.0144 -1.025576 0)
(155.31663 -0.89935578 0)
(155.57601 -0.73347956 0)
(155.7792 -0.5306911 0)
(155.91386 -0.29630136 0)
(155.96958 -0.037926424 0)
(155.9387 0.23441073 0)
(155.81705 0.50873175 0)
(155.60506 0.7712398 0)
(155.30842 1.0076696 0)
(154.93867 1.2044935 0)
(154.51253 1.3514678 0)
(154.05029 1.442717 0)
(153.57371 1.4781954 0)
(153.1019 1.4638169 0)
(152.65048 1.4075147 0)
(152.2306 1.3200971 0)
(151.84892 1.2111334 0)
(151.50874 1.089953 0)
(151.21039 0.96363964 0)
(150.95254 0.83784693 0)
(150.73258 0.71630335 0)
(150.54742 0.60140832 0)
(150.39381 0.49432593 0)
(150.26865 0.39538592 0)
(150.16921 0.3042819 0)
(150.09341 0.22032028 0)
(150.03835 0.14250607 0)
(150.00775 0.069839441 0)
(151.04248 -0.35967207 0)
(151.13517 -0.37479733 0)
(151.18446 -0.39152927 0)
(151.25628 -0.42153115 0)
(151.32639 -0.45972814 0)
(151.40867 -0.50850416 0)
(151.50089 -0.567061 0)
(151.60791 -0.63583197 0)
(151.7318 -0.71438498 0)
(151.87605 -0.80209612 0)
(152.04367 -0.89759546 0)
(152.23779 -0.99870951 0)
(152.46104 -1.1021866 0)
(152.71533 -1.2035615 0)
(153.00128 -1.2970737 0)
(153.31769 -1.3757748 0)
(153.66101 -1.431909 0)
(154.02482 -1.4573701 0)
(154.39991 -1.4448536 0)
(154.77463 -1.3882514 0)
(155.13547 -1.2835055 0)
(155.46769 -1.1286909 0)
(155.75612 -0.92458378 0)
(155.98566 -0.67440269 0)
(156.14214 -0.38466107 0)
(156.21332 -0.064687867 0)
(156.18982 0.27316188 0)
(156.06584 0.61390875 0)
(155.84079 0.94022743 0)
(155.5204 1.2340492 0)
(155.11769 1.477788 0)
(154.65232 1.6581462 0)
(154.14851 1.7674101 0)
(153.63265 1.8058042 0)
(153.12687 1.7821266 0)
(152.64861 1.706839 0)
(152.20958 1.594568 0)
(151.81577 1.4573779 0)
(151.46954 1.3071135 0)
(151.16978 1.1522898 0)
(150.91389 0.99964265 0)
(150.69804 0.85336619 0)
(150.51822 0.7160491 0)
(150.3704 0.5887593 0)
(150.25096 0.47158495 0)
(150.15683 0.36386134 0)
(150.08567 0.26445623 0)
(150.03455 0.17187909 0)
(150.00675 0.084741744 0)
(151.10042 -0.39221786 0)
(151.17381 -0.40555158 0)
(151.2164 -0.42067006 0)
(151.27955 -0.44952416 0)
(151.34321 -0.48754173 0)
(151.419 -0.53749664 0)
(151.50533 -0.59889252 0)
(151.60676 -0.67250712 0)
(151.72569 -0.7582216 0)
(151.86587 -0.85570438 0)
(152.03081 -0.96378623 0)
(152.22424 -1.080339 0)
(152.44957 -1.2019045 0)
(152.70955 -1.323464 0)
(153.00567 -1.438267 0)
(153.33742 -1.5378988 0)
(153.70167 -1.6127557 0)
(154.09182 -1.6525345 0)
(154.49789 -1.6479985 0)
(154.90703 -1.591311 0)
(155.30418 -1.4772519 0)
(155.67282 -1.3030933 0)
(155.99593 -1.0694188 0)
(156.2563 -0.77944797 0)
(156.43756 -0.44052442 0)
(156.52538 -0.063262699 0)
(156.50841 0.33795663 0)
(156.37915 0.74558242 0)
(156.13588 1.1380917 0)
(155.78409 1.4924526 0)
(155.33851 1.7854583 0)
(154.82245 1.9996214 0)
(154.26524 2.1245684 0)
(153.69966 2.1608022 0)
(153.15169 2.1214979 0)
(152.64083 2.0201447 0)
(152.17933 1.8764732 0)
(151.77199 1.7053061 0)
(151.41975 1.5214374 0)
(151.11955 1.3347535 0)
(150.86717 1.1530324 0)
(150.65722 0.98075253 0)
(150.48455 0.82054028 0)
(150.34422 0.67321595 0)
(150.23199 0.53851793 0)
(150.14431 0.41534523 0)
(150.07853 0.30208183 0)
(150.03159 0.19670634 0)
(150.00617 0.097297488 0)
(151.17449 -0.41720968 0)
(151.24842 -0.43557944 0)
(151.28745 -0.45693753 0)
(151.34409 -0.49512162 0)
(151.40021 -0.54451453 0)
(151.46699 -0.60810658 0)
(151.54353 -0.68532646 0)
(151.63443 -0.77704388 0)
(151.74249 -0.8831728 0)
(151.87192 -1.0033863 0)
(152.02692 -1.1364154 0)
(152.21213 -1.2798771 0)
(152.43214 -1.4298174 0)
(152.69103 -1.5803931 0)
(152.9917 -1.723604 0)
(153.33484 -1.849296 0)
(153.71819 -1.9457548 0)
(154.13506 -2.0000967 0)
(154.57463 -2.0010101 0)
(155.02256 -1.9388141 0)
(155.46192 -1.8072151 0)
(155.87411 -1.6027466 0)
(156.23998 -1.3260485 0)
(156.53991 -0.98043653 0)
(156.7548 -0.57461896 0)
(156.86769 -0.1211425 0)
(156.86451 0.36280529 0)
(156.73463 0.85584398 0)
(156.4739 1.3315192 0)
(156.08692 1.7613544 0)
(155.59042 2.1153244 0)
(155.01263 2.3709307 0)
(154.38976 2.514309 0)
(153.76394 2.5463501 0)
(153.16599 2.4871893 0)
(152.61772 2.3538617 0)
(152.13174 2.1731553 0)
(151.71076 1.9628937 0)
(151.35385 1.7414443 0)
(151.05521 1.5199584 0)
(150.80866 1.3072206 0)
(150.60692 1.1077592 0)
(150.44354 0.92404419 0)
(150.31257 0.7564417 0)
(150.2091 0.60418098 0)
(150.12915 0.46560508 0)
(150.06977 0.33855798 0)
(150.02783 0.22050647 0)
(150.00537 0.1091168 0)
(151.2461 -0.46504784 0)
(151.29318 -0.48106965 0)
(151.32261 -0.49975801 0)
(151.36712 -0.53511574 0)
(151.41389 -0.58207206 0)
(151.47118 -0.64404868 0)
(151.53882 -0.72085764 0)
(151.62107 -0.81385905 0)
(151.7211 -0.92350509 0)
(151.84348 -1.0500749 0)
(151.99308 -1.1929007 0)
(152.17543 -1.3501056 0)
(152.39624 -1.5179925 0)
(152.66097 -1.6905362 0)
(152.97398 -1.858892 0)
(153.33722 -2.011206 0)
(153.74936 -2.1333526 0)
(154.20352 -2.2090102 0)
(154.68759 -2.2241659 0)
(155.18533 -2.1665929 0)
(155.67754 -2.0285368 0)
(156.14307 -1.8053366 0)
(156.56036 -1.497503 0)
(156.90686 -1.107703 0)
(157.16002 -0.64554876 0)
(157.29988 -0.12461915 0)
(157.30934 0.43617899 0)
(157.17481 1.0135536 0)
(156.88955 1.5755314 0)
(156.45664 2.0862582 0)
(155.89478 2.5055409 0)
(155.23807 2.8035878 0)
(154.53145 2.9610856 0)
(153.83043 2.9789949 0)
(153.1718 2.8887321 0)
(152.5795 2.71116 0)
(152.06633 2.4829515 0)
(151.63146 2.2248672 0)
(151.27142 1.9595055 0)
(150.97674 1.6988736 0)
(150.73879 1.4525553 0)
(150.54798 1.2246988 0)
(150.39638 1.0173025 0)
(150.27688 0.82998414 0)
(150.18388 0.66125036 0)
(150.11291 0.50872176 0)
(150.06074 0.36957872 0)
(150.02419 0.24067127 0)
(150.00468 0.11914742 0)
(151.33554 -0.44834612 0)
(151.38668 -0.4694507 0)
(151.41291 -0.49453128 0)
(151.45079 -0.53971279 0)
(151.48927 -0.59897891 0)
(151.53626 -0.67616194 0)
(151.59223 -0.77119693 0)
(151.66135 -0.88575752 0)
(151.74715 -1.0205643 0)
(151.85457 -1.1761421 0)
(151.98924 -1.351953 0)
(152.15784 -1.5460525 0)
(152.36769 -1.7543408 0)
(152.62633 -1.9698981 0)
(152.94054 -2.1822902 0)
(153.31455 -2.3771693 0)
(153.74906 -2.5373141 0)
(154.23736 -2.6418677 0)
(154.76587 -2.6738453 0)
(155.31612 -2.6182359 0)
(155.86612 -2.466128 0)
(156.39178 -2.2117138 0)
(156.86905 -1.8557966 0)
(157.27222 -1.3998731 0)
(157.57488 -0.85508296 0)
(157.75388 -0.23701597 0)
(157.78843 0.43214857 0)
(157.6592 1.1244896 0)
(157.35375 1.800669 0)
(156.87132 2.4171554 0)
(156.23262 2.9212649 0)
(155.47982 3.2746756 0)
(154.66966 3.4504337 0)
(153.8781 3.448876 0)
(153.14936 3.3201065 0)
(152.50865 3.088317 0)
(151.96859 2.8043118 0)
(151.52247 2.49132 0)
(151.16352 2.1771438 0)
(150.87729 1.8740957 0)
(150.65233 1.5923986 0)
(150.47633 1.3353662 0)
(150.3398 1.1042317 0)
(150.23446 0.89758792 0)
(150.15407 0.71304068 0)
(150.09375 0.54737187 0)
(150.05005 0.39704996 0)
(150.0198 0.2583106 0)
(150.00381 0.12782853 0)
(151.41649 -0.5212118 0)
(151.4327 -0.54006648 0)
(151.44611 -0.56221932 0)
(151.46784 -0.60369778 0)
(151.49329 -0.65892668 0)
(151.52675 -0.7320617 0)
(151.56949 -0.82338478 0)
(151.62525 -0.93509604 0)
(151.69799 -1.0686065 0)
(151.79311 -1.2253497 0)
(151.91714 -1.4058781 0)
(152.07799 -1.6094384 0)
(152.28471 -1.8330227 0)
(152.54696 -2.0703949 0)
(152.87407 -2.3109166 0)
(153.27249 -2.5385319 0)
(153.74523 -2.7331216 0)
(154.2852 -2.8677698 0)
(154.87636 -2.9218117 0)
(155.49707 -2.8763503 0)
(156.12197 -2.7209855 0)
(156.72342 -2.4480426 0)
(157.27499 -2.0589974 0)
(157.74724 -1.5529741 0)
(158.10826 -0.94290417 0)
(158.33076 -0.24537335 0)
(158.38973 0.51675857 0)
(158.26045 1.3172126 0)
(157.92514 2.1103806 0)
(157.37788 2.8422565 0)
(156.64071 3.4398909 0)
(155.76497 3.8516058 0)
(154.82141 4.0377939 0)
(153.91694 3.9959433 0)
(153.10447 3.8082029 0)
(152.4083 3.5003649 0)
(151.84063 3.143801 0)
(151.38532 2.7627589 0)
(151.03161 2.391156 0)
(150.75832 2.040333 0)
(150.55083 1.720569 0)
(150.39356 1.4334725 0)
(150.2754 1.1789491 0)
(150.18684 0.95409655 0)
(150.12107 0.75531219 0)
(150.07284 0.57832498 0)
(150.03857 0.41875607 0)
(150.0152 0.27214065 0)
(150.00293 0.13462994 0)
(151.51658 -0.44903393 0)
(151.54093 -0.47154773 0)
(151.55216 -0.49869196 0)
(151.56809 -0.54841961 0)
(151.58558 -0.61470741 0)
(151.60864 -0.7023913 0)
(151.63903 -0.81227166 0)
(151.68018 -0.94728739 0)
(151.73611 -1.1096194 0)
(151.81233 -1.3015038 0)
(151.91592 -1.5242121 0)
(152.05592 -1.777486 0)
(152.24329 -2.058343 0)
(152.49066 -2.3598034 0)
(152.81136 -2.6692751 0)
(153.21593 -2.9668931 0)
(153.71235 -3.2279396 0)
(154.29429 -3.4161539 0)
(154.94288 -3.5066843 0)
(155.63281 -3.4762685 0)
(156.33469 -3.3141891 0)
(157.01647 -3.0112295 0)
(157.64961 -2.5710668 0)
(158.20073 -1.9878134 0)
(158.63175 -1.2760865 0)
(158.91283 -0.45386702 0)
(159.01619 0.45308453 0)
(158.90744 1.4143855 0)
(158.55571 2.3716437 0)
(157.94248 3.2609699 0)
(157.08978 3.9846032 0)
(156.06208 4.4769856 0)
(154.94887 4.6801778 0)
(153.90731 4.5838132 0)
(153.00082 4.3249067 0)
(152.24715 3.9248362 0)
(151.65795 3.4849935 0)
(151.20149 3.0275589 0)
(150.86242 2.593988 0)
(150.61053 2.1930814 0)
(150.42787 1.8347759 0)
(150.29522 1.518199 0)
(150.20007 1.2415265 0)
(150.13179 1.000027 0)
(150.08324 0.78870897 0)
(150.04901 0.60214614 0)
(150.02552 0.43507784 0)
(150.00994 0.28234258 0)
(150.00191 0.1395917 0)
(151.60229 -0.55694679 0)
(151.58492 -0.5787306 0)
(151.58017 -0.60435721 0)
(151.57578 -0.65155904 0)
(151.57589 -0.71433307 0)
(151.58023 -0.79756014 0)
(151.59135 -0.90213571 0)
(151.61207 -1.0313174 0)
(151.64683 -1.1878639 0)
(151.70164 -1.3749736 0)
(151.78471 -1.595337 0)
(151.90681 -1.8506066 0)
(152.08148 -2.1400697 0)
(152.32482 -2.4590462 0)
(152.65474 -2.7964709 0)
(153.08578 -3.1315504 0)
(153.63186 -3.4373989 0)
(154.28589 -3.665367 0)
(155.02311 -3.7862596 0)
(155.8124 -3.7707874 0)
(156.61898 -3.608031 0)
(157.40559 -3.2851264 0)
(158.14358 -2.8094414 0)
(158.7962 -2.1665696 0)
(159.31572 -1.376571 0)
(159.6675 -0.4611932 0)
(159.81888 0.55355417 0)
(159.72434 1.6507862 0)
(159.34246 2.7694706 0)
(158.64067 3.8347289 0)
(157.63949 4.7046714 0)
(156.41704 5.2884914 0)
(155.0809 5.4962735 0)
(153.86794 5.2984704 0)
(152.85293 4.9302341 0)
(152.03589 4.3980551 0)
(151.42973 3.8480016 0)
(150.97835 3.2946419 0)
(150.6621 2.7878672 0)
(150.43881 2.3308364 0)
(150.28741 1.9317679 0)
(150.18445 1.5857419 0)
(150.11627 1.2882873 0)
(150.07123 1.0321842 0)
(150.04204 0.81067007 0)
(150.02328 0.61694091 0)
(150.01154 0.4447441 0)
(150.00437 0.28817932 0)
(150.00084 0.14239369 0)
(151.70605 -0.41790961 0)
(151.69962 -0.43983552 0)
(151.69397 -0.46652674 0)
(151.68522 -0.51686047 0)
(151.67882 -0.58528988 0)
(151.67416 -0.67768303 0)
(151.67409 -0.79603001 0)
(151.68079 -0.94499376 0)
(151.69832 -1.1289966 0)
(151.73222 -1.3531699 0)
(151.7906 -1.6223014 0)
(151.88472 -1.9400977 0)
(152.02974 -2.3074125 0)
(152.24517 -2.7200275 0)
(152.55505 -3.1652077 0)
(152.98046 -3.616164 0)
(153.54802 -4.0398274 0)
(154.25292 -4.3647839 0)
(155.06353 -4.5563418 0)
(155.94243 -4.5777327 0)
(156.84939 -4.4212127 0)
(157.7402 -4.0717517 0)
(158.58742 -3.5480255 0)
(159.34915 -2.8200415 0)
(159.96324 -1.9109209 0)
(160.39571 -0.84191061 0)
(160.62091 0.36418416 0)
(160.58128 1.6955212 0)
(160.20692 3.0615875 0)
(159.42723 4.3768699 0)
(158.25268 5.4450394 0)
(156.78271 6.1585868 0)
(155.14749 6.3819219 0)
(153.72077 6.0422727 0)
(152.59124 5.5467474 0)
(151.71615 4.8581012 0)
(151.11266 4.1878572 0)
(150.68492 3.5323397 0)
(150.40996 2.9516872 0)
(150.22979 2.4400288 0)
(150.12109 2.0031773 0)
(150.05614 1.6311403 0)
(150.02092 1.3164116 0)
(150.00326 1.0490289 0)
(149.99629 0.82037715 0)
(149.99494 0.62226795 0)
(149.99622 0.44749706 0)
(149.99825 0.28948715 0)
(149.99965 0.14294198 0)
(151.79291 -0.56703846 0)
(151.74214 -0.5917398 0)
(151.71841 -0.62074678 0)
(151.68614 -0.67305995 0)
(151.6581 -0.74237327 0)
(151.62902 -0.83424961 0)
(151.60225 -0.95031947 0)
(151.57897 -1.095066 0)
(151.56332 -1.2729361 0)
(151.56108 -1.4894877 0)
(151.58142 -1.750564 0)
(151.63775 -2.0618606 0)
(151.74894 -2.4273575 0)
(151.94019 -2.8472044 0)
(152.24454 -3.3136284 0)
(152.69008 -3.8013828 0)
(153.32056 -4.2818084 0)
(154.12968 -4.6537999 0)
(155.06956 -4.8801575 0)
(156.09087 -4.9150592 0)
(157.14436 -4.7575447 0)
(158.17499 -4.3836903 0)
(159.16415 -3.8264613 0)
(160.07195 -3.021948 0)
(160.81669 -2.0079927 0)
(161.36409 -0.82300897 0)
(161.68887 0.49702818 0)
(161.70321 1.9832675 0)
(161.31415 3.5637107 0)
(160.41738 5.163235 0)
(159.01682 6.4844211 0)
(157.23225 7.3695692 0)
(155.19444 7.5978821 0)
(153.50165 7.0022552 0)
(152.25446 6.3052926 0)
(151.32099 5.3859118 0)
(150.73671 4.5515108 0)
(150.34487 3.7653655 0)
(150.12439 3.0968003 0)
(149.9969 2.5246708 0)
(149.93856 2.0492783 0)
(149.91703 1.6530688 0)
(149.91865 1.3240884 0)
(149.93103 1.0488256 0)
(149.94805 0.81640092 0)
(149.96525 0.61706882 0)
(149.98026 0.44262795 0)
(149.99192 0.28585111 0)
(149.99844 0.14104894 0)
(151.88884 -0.35778168 0)
(151.84768 -0.37687413 0)
(151.82364 -0.40001496 0)
(151.78808 -0.44583344 0)
(151.75541 -0.50957218 0)
(151.71972 -0.59790058 0)
(151.68461 -0.71403098 0)
(151.65037 -0.86451255 0)
(151.62035 -1.056571 0)
(151.59916 -1.2994308 0)
(151.59479 -1.6035985 0)
(151.61971 -1.98038 0)
(151.69275 -2.4397711 0)
(151.84115 -2.9872875 0)
(152.1058 -3.6176729 0)
(152.5216 -4.2973231 0)
(153.16591 -4.9939685 0)
(154.0394 -5.5426685 0)
(155.07401 -5.9010933 0)
(156.20822 -6.0096714 0)
(157.38762 -5.8796783 0)
(158.54535 -5.4789295 0)
(159.68096 -4.8855968 0)
(160.74908 -3.9933517 0)
(161.61977 -2.8537328 0)
(162.25996 -1.5136052 0)
(162.68841 0.028720089 0)
(162.82294 1.8703182 0)
(162.52045 3.8523279 0)
(161.56713 5.8867734 0)
(159.91457 7.5316544 0)
(157.71505 8.6453648 0)
(155.09114 8.8959854 0)
(153.04519 7.9215781 0)
(151.70014 7.0066867 0)
(150.73368 5.8288785 0)
(150.21912 4.8345023 0)
(149.90211 3.9246662 0)
(149.77 3.1798867 0)
(149.71878 2.5583866 0)
(149.72751 2.0544956 0)
(149.7603 1.6425563 0)
(149.80582 1.3062731 0)
(149.85263 1.0288023 0)
(149.89636 0.79724802 0)
(149.93372 0.60055051 0)
(149.96342 0.42971851 0)
(149.98525 0.27705519 0)
(149.99715 0.13661561 0)
(151.97692 -0.54449612 0)
(151.89659 -0.57171596 0)
(151.85499 -0.6033144 0)
(151.79557 -0.65921248 0)
(151.73905 -0.73294659 0)
(151.67484 -0.8307812 0)
(151.60634 -0.95521549 0)
(151.53206 -1.1121452 0)
(151.45433 -1.3080534 0)
(151.37671 -1.5514779 0)
(151.30698 -1.8525195 0)
(151.25891 -2.2228657 0)
(151.25524 -2.6743576 0)
(151.33145 -3.2170591 0)
(151.54683 -3.8545603 0)
(151.94756 -4.5576502 0)
(152.66561 -5.3276483 0)
(153.70036 -5.9191902 0)
(154.9338 -6.2988407 0)
(156.28027 -6.3927376 0)
(157.67246 -6.2484273 0)
(159.01012 -5.8112952 0)
(160.32464 -5.2219092 0)
(161.59285 -4.2345433 0)
(162.6314 -2.9326013 0)
(163.44141 -1.4001546 0)
(164.09475 0.26581506 0)
(164.40277 2.2389478 0)
(164.1516 4.4446266 0)
(163.04261 6.9356163 0)
(161.03439 9.066165 0)
(158.32463 10.574745 0)
(154.89696 10.89083 0)
(152.42584 9.2421446 0)
(151.04236 7.9485618 0)
(150.05593 6.374104 0)
(149.64927 5.1431576 0)
(149.42332 4.069089 0)
(149.39484 3.2305575 0)
(149.42793 2.5554667 0)
(149.5094 2.0249358 0)
(149.59975 1.6018656 0)
(149.69116 1.2634903 0)
(149.77348 0.98883576 0)
(149.84446 0.76262405 0)
(149.90223 0.57244409 0)
(149.94667 0.40858064 0)
(149.97865 0.26299114 0)
(149.99589 0.12959186 0)
(152.02655 -0.27626055 0)
(151.9473 -0.29093804 0)
(151.90401 -0.30769003 0)
(151.84028 -0.34392064 0)
(151.7796 -0.39548176 0)
(151.71012 -0.46924396 0)
(151.63569 -0.56903554 0)
(151.55395 -0.70263607 0)
(151.46652 -0.87960294 0)
(151.3756 -1.1133456 0)
(151.28711 -1.4214727 0)
(151.21235 -1.8268104 0)
(151.17116 -2.356589 0)
(151.19615 -3.0403519 0)
(151.35421 -3.9038262 0)
(151.68122 -4.9153497 0)
(152.39925 -6.1047903 0)
(153.53081 -7.0271226 0)
(154.89475 -7.6521243 0)
(156.37556 -7.8904995 0)
(157.90733 -7.8205128 0)
(159.36057 -7.3381171 0)
(160.86385 -6.7200074 0)
(162.40847 -5.6222672 0)
(163.64719 -4.1636762 0)
(164.53783 -2.5986229 0)
(165.26914 -0.86083818 0)
(165.75948 1.6430795 0)
(165.79487 4.5799581 0)
(164.79839 7.9859026 0)
(162.49674 10.644633 0)
(159.10065 12.568038 0)
(154.3778 12.954086 0)
(151.25577 10.23184 0)
(149.95514 8.6077993 0)
(149.03153 6.6486311 0)
(148.85124 5.2467095 0)
(148.79673 4.058928 0)
(148.93142 3.169252 0)
(149.08611 2.4715288 0)
(149.26331 1.9366682 0)
(149.42454 1.5183731 0)
(149.56926 1.1892876 0)
(149.69104 0.92574452 0)
(149.79124 0.71104356 0)
(149.87029 0.5321109 0)
(149.9298 0.37897525 0)
(149.972 0.24358932 0)
(149.99461 0.11996207 0)
(152.02917 -0.48127277 0)
(151.92594 -0.5100677 0)
(151.86961 -0.54179174 0)
(151.78654 -0.59756831 0)
(151.70445 -0.67075587 0)
(151.60738 -0.76845679 0)
(151.49808 -0.89412526 0)
(151.37116 -1.0552989 0)
(151.22511 -1.2609502 0)
(151.058 -1.5234968 0)
(150.87118 -1.8589526 0)
(150.67179 -2.287963 0)
(150.47791 -2.8351904 0)
(150.32584 -3.5283298 0)
(150.31588 -4.3990273 0)
(150.49113 -5.4029424 0)
(151.26307 -6.7050702 0)
(152.66676 -7.6318577 0)
(154.34816 -8.2141842 0)
(156.14774 -8.3131797 0)
(158.00971 -8.1541372 0)
(159.69911 -7.5535411 0)
(161.41162 -7.1467346 0)
(163.22509 -5.9825097 0)
(164.55922 -4.3501831 0)
(165.53773 -2.3366936 0)
(166.79635 -0.251761 0)
(167.89869 2.3219404 0)
(168.27621 5.2552165 0)
(167.05198 9.1341554 0)
(164.13206 12.79286 0)
(159.98904 15.828836 0)
(153.53311 16.683308 0)
(149.73665 12.12574 0)
(148.82666 9.7042535 0)
(147.98309 7.1168709 0)
(148.08518 5.3847161 0)
(148.19806 4.0271035 0)
(148.49544 3.0610629 0)
(148.76486 2.339691 0)
(149.03277 1.8055555 0)
(149.26052 1.3998953 0)
(149.45532 1.0875002 0)
(149.61409 0.84151985 0)
(149.74164 0.64360682 0)
(149.84058 0.48021166 0)
(149.91415 0.34131699 0)
(149.96587 0.2191003 0)
(149.99343 0.10784355 0)
(151.58823 -0.18418317 0)
(151.46799 -0.19455311 0)
(151.40498 -0.20357022 0)
(151.31171 -0.22717277 0)
(151.22107 -0.26108567 0)
(151.11438 -0.31148041 0)
(150.99513 -0.38147521 0)
(150.85719 -0.47823151 0)
(150.69885 -0.61118983 0)
(150.51751 -0.79498591 0)
(150.31347 -1.0514173 0)
(150.09209 -1.4136729 0)
(149.86824 -1.930892 0)
(149.66936 -2.6734193 0)
(149.60974 -3.7531854 0)
(149.6332 -5.1805512 0)
(150.38488 -7.3587663 0)
(151.968 -8.9390367 0)
(153.84882 -9.945539 0)
(155.78212 -10.347213 0)
(157.73895 -10.409974 0)
(159.31162 -9.8139721 0)
(161.15298 -9.2860653 0)
(163.47577 -7.9394651 0)
(165.25237 -5.6226861 0)
(166.43282 -3.898225 0)
(167.54724 -2.9639968 0)
(168.60413 0.13693319 0)
(169.50655 4.3475854 0)
(169.07594 11.04545 0)
(166.35484 15.568999 0)
(161.38713 19.191254 0)
(151.98997 20.253215 0)
(146.82401 12.454428 0)
(146.738 9.8240975 0)
(146.27777 6.8566725 0)
(146.92438 5.0775971 0)
(147.38461 3.7110831 0)
(147.94625 2.7761866 0)
(148.3903 2.0948096 0)
(148.77886 1.6007698 0)
(149.08845 1.2320854 0)
(149.33998 0.95191805 0)
(149.53834 0.73373421 0)
(149.69378 0.55960727 0)
(149.81231 0.41674452 0)
(149.89939 0.29583265 0)
(149.96009 0.18975583 0)
(149.99232 0.093371304 0)
(150.66583 -0.36939494 0)
(150.54454 -0.39887804 0)
(150.47598 -0.42560162 0)
(150.37239 -0.47401984 0)
(150.26808 -0.536632 0)
(150.14186 -0.62143469 0)
(149.99561 -0.73238533 0)
(149.81936 -0.87834155 0)
(149.60616 -1.0706377 0)
(149.34521 -1.3261558 0)
(149.02458 -1.6689441 0)
(148.63188 -2.1337934 0)
(148.15853 -2.769581 0)
(147.59612 -3.6388116 0)
(147.08286 -4.8552447 0)
(146.45847 -6.2884773 0)
(147.06785 -8.7191746 0)
(149.17446 -10.128775 0)
(151.54786 -10.976288 0)
(153.86607 -10.80433 0)
(156.28112 -10.568916 0)
(158.23591 -9.0737387 0)
(160.33866 -9.7749919 0)
(163.23507 -8.229998 0)
(164.71322 -6.6533536 0)
(164.66736 -4.4054637 0)
(166.77899 -1.2627116 0)
(170.02731 2.1551854 0)
(172.82536 6.2981545 0)
(171.8606 10.976901 0)
(167.23239 17.109899 0)
(161.21501 24.421962 0)
(148.90127 28.195596 0)
(143.4578 15.745477 0)
(145.31167 10.751467 0)
(144.97544 7.0732044 0)
(146.12667 4.8236239 0)
(146.79069 3.3811775 0)
(147.54234 2.4335401 0)
(148.10467 1.7967196 0)
(148.58104 1.3506228 0)
(148.95153 1.0295261 0)
(149.24688 0.7902339 0)
(149.47654 0.60677465 0)
(149.65447 0.46168826 0)
(149.78901 0.34338157 0)
(149.8872 0.24358712 0)
(149.95534 0.15619433 0)
(149.99141 0.076846845 0)
(149.27197 -0.090602944 0)
(149.1115 -0.096781775 0)
(149.03324 -0.099107109 0)
(148.91278 -0.11009956 0)
(148.79453 -0.1252838 0)
(148.65172 -0.14897071 0)
(148.48728 -0.18233143 0)
(148.28994 -0.22950395 0)
(148.05248 -0.29593556 0)
(147.76365 -0.39101086 0)
(147.41167 -0.53037621 0)
(146.98533 -0.7416288 0)
(146.4813 -1.0771444 0)
(145.88411 -1.6242503 0)
(145.44025 -2.6247909 0)
(144.63717 -4.1838185 0)
(145.4103 -8.5695029 0)
(148.03037 -11.550576 0)
(150.93648 -12.770392 0)
(153.54933 -13.357875 0)
(156.37029 -13.347481 0)
(157.28999 -13.465276 0)
(159.18689 -12.746828 7.8592479e-18)
(161.41059 -11.687146 4.6002588e-18)
(163.21151 -6.2016827 4.9668394e-18)
(165.17756 -3.4543206 -2.6461569e-20)
(168.90899 -7.4253731 -3.9193421e-18)
(170.90803 -4.3413514 0)
(172.69985 -0.13327173 -4.8564697e-18)
(171.20856 16.230058 7.0710901e-18)
(169.99198 24.503253 0)
(159.71817 30.486925 8.3242495e-19)
(143.22938 33.442237 0)
(136.17151 11.084191 0)
(140.83719 8.9201033 0)
(142.33788 5.5884853 0)
(144.53152 3.8040529 0)
(145.87986 2.6277824 0)
(146.98644 1.8722109 0)
(147.76781 1.3738362 0)
(148.36817 1.0278714 0)
(148.81626 0.78203015 0)
(149.15992 0.59974116 0)
(149.42131 0.46066533 0)
(149.62034 0.35079438 0)
(149.76918 0.26119276 0)
(149.87695 0.18548303 0)
(149.95135 0.11904313 0)
(149.99064 0.058591668 0)
(146.43919 -0.20257004 0)
(146.31566 -0.24037086 0)
(146.24954 -0.25442652 0)
(146.14181 -0.28534556 0)
(146.03316 -0.32266263 0)
(145.89789 -0.37493445 0)
(145.73786 -0.44475466 0)
(145.53967 -0.53991807 0)
(145.29223 -0.67082136 0)
(144.97689 -0.85483944 0)
(144.56801 -1.1202882 0)
(144.02616 -1.5147731 0)
(143.29863 -2.1281229 0)
(142.24128 -3.0743902 0)
(140.97035 -4.7918425 0)
(137.88925 -7.0995407 0)
(137.38823 -12.13828 0)
(142.53527 -14.036566 -1.3050772e-18)
(145.85468 -15.40152 1.5129416e-19)
(145.30555 -13.970147 0)
(138.93359 -14.353061 -8.063874e-18)
(98.745321 -7.9647096 1.1866659e-17)
(0 0 0)
(0 0 0)
(0 0 0)
(0 0 0)
(0 0 0)
(0 0 0)
(0 0 0)
(0 0 0)
(0 0 0)
(0 0 0)
(126.84658 50.935038 1.1912543e-16)
(133.28405 20.256154 0)
(142.33374 7.8930412 0)
(141.71575 5.0862732 0)
(144.27516 2.7429471 0)
(145.58865 1.8425414 0)
(146.78684 1.2375743 0)
(147.61988 0.89883708 0)
(148.2642 0.66617031 0)
(148.74376 0.50758643 0)
(149.11037 0.39041608 0)
(149.3884 0.30142047 0)