/*--------------------------------*- C++ -*----------------------------------*\
| =========                 |                                                 |
| \\      /  F ield         | foam-extend: Open Source CFD                    |
|  \\    /   O peration     | Version:     4.1                                |
|   \\  /    A nd           | Web:         http://www.foam-extend.org         |
|    \\/     M anipulation  |                                                 |
\*---------------------------------------------------------------------------*/
FoamFile
{
    version     2.0;
    format      ascii;
    class       volScalarField;
    location    "0.1";
    object      p;
}
// * * * * * * * * * * * * * * * * * * * * * * * * * * * * * * * * * * * * * //

dimensions      [0 2 -2 0 0 0 0];

internalField   nonuniform List<scalar> 
16796
(
-9.3501773e-05
-2.158633e-05
-0.00012171301
-0.00010868532
-0.00017164981
-0.00018569891
-0.00023381755
-0.00026141944
-0.00030494815
-0.00034064721
-0.00038458238
-0.00042650785
-0.00047358431
-0.00052148947
-0.00057350646
-0.00062791728
-0.00068632969
-0.00074818085
-0.00081436806
-0.00088485291
-0.00096024577
-0.0010407597
-0.0011269047
-0.0012190284
-0.0013176232
-0.0014231218
-0.0015360356
-0.0016568622
-0.0017861459
-0.0019244425
-0.0020723296
-0.0022304188
-0.00239932
-0.0025796838
-0.002772154
-0.0029774035
-0.0031960951
-0.003428906
-0.0036764946
-0.0039395128
-0.0042185843
-0.0045142906
-0.0048271751
-0.0051576991
-0.0055062532
-0.0058731107
-0.0062584247
-0.0066621863
-0.0070842048
-0.0075240702
-0.0079811207
-0.0084544006
-0.0089426243
-0.0094441281
-0.0099568268
-0.010478168
-0.011005086
-0.011533954
-0.012060547
-0.012579999
-0.013086771
-0.013574633
-0.01403665
-0.014465182
-0.014851908
-0.015187858
-0.015463482
-0.015668715
-0.015793116
-0.015825961
-0.015756451
-0.015573842
-0.01526771
-0.0148281
-0.014245847
-0.013512709
-0.012621724
-0.01156729
-0.010345534
-0.0089542975
-0.0073934863
-0.0056649327
-0.0037726918
-0.001722762
0.0004767435
0.0028159422
0.0052831178
0.0078651931
0.010547696
0.013315334
0.016151968
0.019041219
0.021966433
0.024911264
0.027859612
0.03079613
0.033706133
0.036575999
0.039393048
0.042145823
0.044823958
0.047418333
0.049920953
0.052324982
0.054624655
0.056815195
0.058892801
0.060854416
0.062697883
0.064421444
0.066024305
0.067505507
0.068865545
0.07010363
0.071222067
0.07221924
0.07310107
0.073862406
0.074516868
0.075047611
0.075486486
0.075785043
0.076024091
0.076075495
-9.3272253e-05
-2.1527357e-05
-0.00012140921
-0.000108409
-0.00017121865
-0.00018523044
-0.00023323033
-0.00026076295
-0.00030418459
-0.00033979582
-0.00038362395
-0.00042544787
-0.00047241126
-0.00052020232
-0.00057209651
-0.00062638018
-0.00068465751
-0.00074636729
-0.00081240506
-0.0008827329
-0.00095796022
-0.0010383001
-0.0011242621
-0.0012161937
-0.001314587
-0.0014198747
-0.0015325681
-0.0016531652
-0.0017822104
-0.00192026
-0.0020678923
-0.0022257198
-0.0023943535
-0.0025744458
-0.0027666422
-0.0029716181
-0.0031900391
-0.0034225858
-0.0036699208
-0.0039327006
-0.0042115544
-0.0045070704
-0.0048197992
-0.0051502105
-0.0054987042
-0.0058655645
-0.006250956
-0.0066548831
-0.0070771693
-0.0075174198
-0.0079749895
-0.0084489402
-0.0089380047
-0.0094405379
-0.0099544737
-0.010477279
-0.011005905
-0.011536741
-0.012065578
-0.012587559
-0.013097154
-0.013588135
-0.014053563
-0.014485787
-0.014876467
-0.015216604
-0.015496612
-0.015706377
-0.015835399
-0.015872887
-0.015807963
-0.015629797
-0.015327872
-0.014892135
-0.014313323
-0.013583099
-0.012694407
-0.011641564
-0.010420628
-0.0090293849
-0.0074677093
-0.0057374208
-0.0038426303
-0.0017893695
0.00041419746
0.0027581274
0.0052306194
0.0078185103
0.010507221
0.013281359
0.01612467
0.019020674
0.021952609
0.02490404
0.027858777
0.030801401
0.033717165
0.036592399
0.039414386
0.042171647
0.044853803
0.047451735
0.049957455
0.052364146
0.054666063
0.056858459
0.058937565
0.060900358
0.06274472
0.064468929
0.066072232
0.067553708
0.068913895
0.070152046
0.071270504
0.07226769
0.073149538
0.073910896
0.074565358
0.075096074
0.075534887
0.075833385
0.076072368
0.076123762
-9.280851e-05
-2.1415656e-05
-0.00012080016
-0.00010786142
-0.000170358
-0.00018429866
-0.00023206005
-0.0002594563
-0.00030266405
-0.00033810133
-0.00038171641
-0.00042333905
-0.00047007788
-0.00051764288
-0.00056929373
-0.0006233258
-0.00068133594
-0.00074276644
-0.00080850925
-0.00087852759
-0.00095342898
-0.0010334267
-0.0011190294
-0.0012105844
-0.0013085834
-0.0014134593
-0.0015257235
-0.0016458744
-0.0017744573
-0.0019120295
-0.0020591711
-0.0022164966
-0.0023846198
-0.0025641964
-0.0027558761
-0.0029603395
-0.0031782581
-0.00341032
-0.0036571962
-0.0039195531
-0.0041980316
-0.0044932328
-0.0048057227
-0.005135988
-0.0054844477
-0.0058514073
-0.0062370553
-0.0066414219
-0.0070643588
-0.0075055018
-0.0079642381
-0.0084396634
-0.0089305459
-0.0094352766
-0.0099518255
-0.010477694
-0.011009868
-0.011544767
-0.012078206
-0.012605347
-0.013120673
-0.013617956
-0.014090246
-0.014529868
-0.014928442
-0.015276911
-0.015565613
-0.015784337
-0.01592247
-0.015969083
-0.015913148
-0.015743665
-0.01544994
-0.015021729
-0.014449584
-0.013724975
-0.012840677
-0.011790845
-0.010571408
-0.0091800433
-0.0076165641
-0.0058827524
-0.0039827657
-0.0019226873
0.00028921642
0.0026428766
0.0051263146
0.0077261854
0.010427683
0.013215205
0.016072251
0.018982134
0.021927861
0.024892812
0.027860607
0.030815688
0.03374317
0.036629296
0.039461269
0.042227573
0.044917805
0.04752285
0.050034741
0.052446699
0.05475303
0.056949049
0.059031054
0.060996097
0.062842134
0.064567522
0.066171582
0.067653468
0.069013785
0.070251852
0.071370067
0.072366903
0.073248333
0.074009248
0.074663261
0.075193571
0.075632011
0.075930244
0.076169001
0.076220344
-9.2115955e-05
-2.1247104e-05
-0.00011988849
-0.00010704035
-0.00016906877
-0.00018290216
-0.00023030652
-0.00025749804
-0.00030038532
-0.00033556161
-0.00037885724
-0.00042017783
-0.00046657976
-0.00051380541
-0.00056509092
-0.0006187451
-0.00067635384
-0.00073736462
-0.00080266397
-0.00087221679
-0.00094662775
-0.0010261104
-0.0011111718
-0.0012021592
-0.0012995636
-0.0014038181
-0.0015154339
-0.0016349103
-0.0017627936
-0.0018996426
-0.0020460399
-0.0022026028
-0.0023699493
-0.0025487397
-0.0027396301
-0.0029433083
-0.003160455
-0.0033917687
-0.0036379332
-0.0038996295
-0.0041775156
-0.0044722123
-0.0047843079
-0.0051143146
-0.0054626802
-0.0058297422
-0.0062157245
-0.0066206964
-0.0070445522
-0.0074869736
-0.0079473969
-0.0084249696
-0.0089185137
-0.0094264753
-0.0099468798
-0.010477283
-0.011014722
-0.011555664
-0.012095963
-0.012630813
-0.013154715
-0.013661446
-0.014144042
-0.014594791
-0.015005257
-0.015366294
-0.015668129
-0.015900405
-0.016052336
-0.016112788
-0.016070503
-0.015914223
-0.015632982
-0.015216247
-0.014654282
-0.013938267
-0.013060717
-0.012015535
-0.010798457
-0.0094069927
-0.0078408644
-0.0061018014
-0.0041940366
-0.0021237341
0.00010068061
0.0024689491
0.004968823
0.0075866842
0.010307384
0.013115004
0.015992678
0.0189234
0.021889833
0.024875082
0.027862479
0.030836257
0.033781325
0.036683793
0.039530748
0.042310617
0.04501296
0.047628673
0.050149815
0.052569669
0.054882614
0.057084061
0.059170408
0.06113882
0.062987367
0.064714524
0.066319724
0.067802236
0.069162771
0.070400752
0.071518662
0.072515057
0.073395961
0.074156323
0.074809767
0.075339557
0.075777502
0.076075382
0.076313828
0.076365109
-9.1193675e-05
-2.1024685e-05
-0.00011867587
-0.00010595012
-0.00016735501
-0.00018104681
-0.00022797609
-0.00025489603
-0.00029735722
-0.00033218701
-0.00037505812
-0.00041597761
-0.00046193201
-0.00050870704
-0.0005595074
-0.00061265988
-0.00066973571
-0.00073018937
-0.00079490014
-0.00086383523
-0.00093759546
-0.0010163949
-0.0011007383
-0.0011909731
-0.0012875892
-0.0013910199
-0.0015017767
-0.0016203596
-0.0017473165
-0.0018832084
-0.0020286209
-0.0021841755
-0.0023504954
-0.0025282476
-0.0027180963
-0.0029207395
-0.0031368697
-0.0033671997
-0.0036124302
-0.0038732619
-0.0041503755
-0.0044444181
-0.0047560079
-0.0050856912
-0.0054339538
-0.0058011761
-0.0061876293
-0.0065934348
-0.0070185435
-0.0074626982
-0.0079254006
-0.0084058671
-0.0089029916
-0.0094152933
-0.0099408716
-0.010477355
-0.011021848
-0.011570881
-0.012120364
-0.012665529
-0.013200906
-0.013720274
-0.014216653
-0.014682285
-0.015108655
-0.015486504
-0.015805907
-0.016056316
-0.016226713
-0.01630569
-0.016281683
-0.016143087
-0.015878574
-0.015477221
-0.014928909
-0.014224427
-0.013355937
-0.012317006
-0.011103106
-0.0097115158
-0.0081418358
-0.0063957139
-0.0044774661
-0.0023933587
-0.00015203369
0.0022359946
0.0047581069
0.0074003133
0.010146994
0.012981799
0.015887357
0.018846233
0.021840618
0.024853242
0.027867049
0.030865987
0.033834689
0.036759091
0.03962612
0.042424135
0.045142646
0.047772572
0.050306008
0.052736328
0.055058009
0.057266597
0.059358626
0.061331416
0.063183189
0.064912579
0.066519172
0.068002386
0.069363068
0.070600772
0.071718094
0.072713697
0.073593677
0.074353078
0.075005555
0.075534479
0.075971633
0.076268953
0.076506921
0.076558098
-9.0045835e-05
-2.0746947e-05
-0.00011716509
-0.00010459112
-0.00016521926
-0.00017873426
-0.00022507151
-0.0002516527
-0.00029358268
-0.00032798025
-0.00037032192
-0.00041074096
-0.00045613697
-0.00050234958
-0.00055254432
-0.00060507032
-0.00066148058
-0.00072123817
-0.00078521339
-0.00085337621
-0.00092632263
-0.0010042672
-0.001087712
-0.0011770043
-0.0012726328
-0.0013750308
-0.0014847099
-0.0016021712
-0.0017279642
-0.0018626526
-0.0020068256
-0.0021611095
-0.0023261341
-0.0025025743
-0.0026911045
-0.0028924346
-0.0031072721
-0.0033363473
-0.0035803814
-0.0038400996
-0.0041162106
-0.0044093943
-0.0047203059
-0.0050495338
-0.0053976118
-0.0057649733
-0.0061519489
-0.006558725
-0.0069853239
-0.0074315655
-0.0078970338
-0.0083810323
-0.0088825459
-0.0094001873
-0.0099321503
-0.010476155
-0.011029397
-0.011588487
-0.012149404
-0.012707438
-0.013257152
-0.013792338
-0.014305997
-0.014790314
-0.015236683
-0.015635703
-0.015977263
-0.016250571
-0.016444322
-0.016546759
-0.016545932
-0.016429796
-0.016186562
-0.015804806
-0.015273924
-0.0145842
-0.013727347
-0.012696494
-0.01148678
-0.010095183
-0.0085211475
-0.0067662172
-0.0048348133
-0.0027333313
-0.00047069378
0.0019422608
0.0044924362
0.0071653716
0.0099448424
0.012813952
0.015754684
0.018749061
0.021778671
0.024825771
0.027872812
0.030903389
0.033901782
0.036853712
0.039745908
0.042566647
0.045305379
0.047953054
0.050501819
0.052945162
0.055277693
0.057495124
0.059594167
0.061572337
0.063428051
0.065160143
0.066768393
0.06825241
0.069613213
0.070850527
0.071967083
0.072961682
0.073840509
0.07459872
0.075250007
0.075777866
0.076214044
0.076510674
0.076748049
0.076799107
-8.8673761e-05
-2.0415743e-05
-0.00011535974
-0.00010296788
-0.00016266745
-0.00017597159
-0.00022160117
-0.00024777778
-0.0002890729
-0.00032295405
-0.00036466297
-0.00040448399
-0.00044921262
-0.00049475303
-0.00054422389
-0.00059600102
-0.0006516156
-0.00071054101
-0.00077363672
-0.00084087603
-0.00091284916
-0.00098977116
-0.001072141
-0.0011603056
-0.0012547521
-0.0013559141
-0.001464303
-0.0015804212
-0.0017048201
-0.0018380665
-0.0019807538
-0.0021335142
-0.0022969851
-0.0024718507
-0.0026587974
-0.0028585496
-0.0030718322
-0.0032993965
-0.0035419882
-0.0038003615
-0.0040752586
-0.0043673984
-0.0046774801
-0.0050061431
-0.0053539777
-0.0057214816
-0.0061090559
-0.0065169657
-0.0069453188
-0.0073940276
-0.0078627757
-0.0083509717
-0.0088577109
-0.009381719
-0.0099213046
-0.010474301
-0.011038013
-0.01160915
-0.012183782
-0.012757266
-0.013324213
-0.013878431
-0.014412904
-0.014919754
-0.015390265
-0.015814871
-0.016183239
-0.016484287
-0.016706361
-0.016837287
-0.016864643
-0.01677585
-0.016558557
-0.01620073
-0.015691165
-0.015019528
-0.014176978
-0.013156104
-0.011951626
-0.01056015
-0.0089809261
-0.0072153566
-0.0052679848
-0.0031453591
-0.0008567504
0.001586607
0.0041710214
0.0068814543
0.0097009265
0.012611872
0.01559547
0.018633081
0.021705544
0.024794547
0.027881927
0.030950856
0.033985185
0.03697038
0.039892932
0.042741026
0.045504046
0.048172987
0.050740068
0.053198922
0.055544323
0.057772194
0.059879465
0.061863892
0.06372413
0.065459259
0.067069292
0.068554066
0.069914811
0.07115145
0.072266881
0.07326007
0.074137311
0.074893904
0.075543589
0.076070024
0.076504912
0.076800633
0.077037235
0.077088128
-8.7081183e-05
-2.0030868e-05
-0.00011326349
-0.00010108272
-0.00015970407
-0.00017276309
-0.00021757078
-0.00024327724
-0.00028383476
-0.00031711572
-0.00035808924
-0.00039721499
-0.00044116764
-0.00048592623
-0.00053455497
-0.00058546068
-0.00064014913
-0.00069810559
-0.00076017695
-0.00082634023
-0.0008971789
-0.00097290854
-0.0010540242
-0.0011408725
-0.0012339387
-0.0013336562
-0.0014405363
-0.0015550828
-0.0016778488
-0.0018094045
-0.0019503483
-0.0021013185
-0.0022629611
-0.0024359711
-0.0026210483
-0.0028189335
-0.0030303716
-0.0032561375
-0.0034970054
-0.0037537627
-0.0040271903
-0.0043180516
-0.0046270975
-0.0049550257
-0.0053024927
-0.0056700704
-0.0060582431
-0.0064673671
-0.0068976506
-0.007349115
-0.0078215611
-0.008314522
-0.0088272234
-0.0093585261
-0.0099068759
-0.010470242
-0.011046061
-0.011631165
-0.012221731
-0.012813205
-0.013400261
-0.013976731
-0.014535586
-0.01506888
-0.015567779
-0.016022524
-0.016422528
-0.01675637
-0.017011991
-0.017176716
-0.017237574
-0.017181345
-0.016995008
-0.016665796
-0.016181787
-0.015531901
-0.014706627
-0.013697898
-0.012499929
-0.011108867
-0.0095237269
-0.0077457339
-0.0057795767
-0.0036319813
-0.0013126436
0.0011667323
0.0037917298
0.0065466216
0.0094135115
0.012374037
0.015408402
0.018497181
0.021620311
0.024758806
0.027893772
0.031007883
0.034084483
0.037108745
0.04006688
0.042946979
0.045738352
0.04843206
0.05102041
0.05349722
0.055857461
0.058097314
0.06021397
0.062205474
0.064070766
0.065809218
0.067421118
0.068906578
0.070267072
0.071502761
0.072616738
0.07360816
0.07448345
0.075238074
0.075885822
0.076410545
0.076843886
0.07713852
0.077374196
0.077424901
-8.5271311e-05
-1.9593834e-05
-0.00011088146
-9.8940855e-05
-0.00015633674
-0.00016911731
-0.0002129908
-0.00023816292
-0.00027788197
-0.0003104806
-0.00035061797
-0.0003889531
-0.00043202323
-0.00047589254
-0.00052356325
-0.00057347741
-0.00062711183
-0.0006839653
-0.0007448703
-0.0008098081
-0.00087935435
-0.00095372517
-0.0010334112
-0.0011187583
-0.0012102497
-0.0013083185
-0.0014134756
-0.0015262262
-0.0016471253
-0.0017767468
-0.0019156942
-0.0020646128
-0.0022241582
-0.0023950371
-0.0025779642
-0.0027736988
-0.002983008
-0.0032066935
-0.0034455613
-0.0037004361
-0.0039721424
-0.0042614944
-0.0045693008
-0.004896326
-0.0052433016
-0.0056108842
-0.0059996524
-0.0064100674
-0.0068424523
-0.0072969537
-0.0077735074
-0.0082717903
-0.0087911795
-0.0093306929
-0.0098889365
-0.010464039
-0.011053594
-0.011654577
-0.012263299
-0.012875312
-0.013485369
-0.014087339
-0.014674189
-0.015237903
-0.015769518
-0.016259061
-0.016695661
-0.017067509
-0.017362081
-0.017566129
-0.017666037
-0.01764784
-0.017497735
-0.017202092
-0.01674814
-0.016123914
-0.015319109
-0.014324871
-0.013134814
-0.011744526
-0.010152743
-0.0083604617
-0.006372542
-0.0041959101
-0.0018407724
0.00068061793
0.0033529716
0.0061597539
0.0090819653
0.01210031
0.015193825
0.018342168
0.021524201
0.024720159
0.02791028
0.031076675
0.03420209
0.037271376
0.040270423
0.043187228
0.046011025
0.048732967
0.051345473
0.053842591
0.05621953
0.058472777
0.060599834
0.062599088
0.064469811
0.066211716
0.067825414
0.069311331
0.070671225
0.071905529
0.07301756
0.074006697
0.074879509
0.075631658
0.076276995
0.076799598
0.077231034
0.077524331
0.077758874
0.07780934
-8.3248014e-05
-1.910513e-05
-0.00010821847
-9.6546148e-05
-0.00015257196
-0.00016504097
-0.0002078698
-0.0002324441
-0.00027122522
-0.00030306029
-0.00034226195
-0.00037971201
-0.00042179407
-0.00046466738
-0.00051126488
-0.00056006788
-0.00061252079
-0.00066813739
-0.00072773399
-0.00079129647
-0.00085939164
-0.00093223608
-0.0010103152
-0.0010939743
-0.0011836935
-0.0012799056
-0.0013831211
-0.0014938459
-0.0016126373
-0.0017400726
-0.0018767609
-0.0020233549
-0.0021805202
-0.0023489762
-0.002529454
-0.0027227327
-0.0029296037
-0.0031508981
-0.0033874569
-0.0036401458
-0.0039098378
-0.0041974031
-0.004503715
-0.0048296118
-0.0051759093
-0.0055433589
-0.0059326454
-0.0063443478
-0.0067789194
-0.0072366487
-0.0077176249
-0.0082216891
-0.0087483922
-0.0092969326
-0.0098661021
-0.010454215
-0.011059048
-0.011677749
-0.012306786
-0.012941843
-0.013577774
-0.014208502
-0.014826998
-0.015425181
-0.015993953
-0.016523111
-0.017001467
-0.017416778
-0.017755997
-0.018005219
-0.018150096
-0.018175801
-0.018067624
-0.017810932
-0.017391966
-0.016797719
-0.016016954
-0.015039886
-0.013859419
-0.012470469
-0.010871441
-0.0090630498
-0.0070503526
-0.0048404978
-0.0024442993
0.00012535978
0.0028521504
0.005718606
0.0087044145
0.011789205
0.014950629
0.018167296
0.021416796
0.024678484
0.027931581
0.031157569
0.034338501
0.037458881
0.040504236
0.043462477
0.046322761
0.049076369
0.05171586
0.054235558
0.056630956
0.058898908
0.061037275
0.063044843
0.06492127
0.066666662
0.068281997
0.069768064
0.071126944
0.07235938
0.073468941
0.07445526
0.075325068
0.076074248
0.076716717
0.077236808
0.077665997
0.077957723
0.078190937
0.07824113
-8.1016063e-05
-1.8566224e-05
-0.00010528098
-9.3904698e-05
-0.00014841899
-0.00016054423
-0.00020222037
-0.00022613487
-0.00026388081
-0.00029487294
-0.00033304152
-0.00036951418
-0.00041050491
-0.00045227786
-0.00049768943
-0.00054526422
-0.0005964108
-0.00065065942
-0.00070880844
-0.00077084871
-0.00083733718
-0.00090849077
-0.00098478904
-0.0010665762
-0.0011543292
-0.0012484801
-0.0013495382
-0.0014580107
-0.0015744565
-0.0016994566
-0.0018336257
-0.0019776241
-0.0021321282
-0.0022978709
-0.0024756006
-0.0026661176
-0.0028702398
-0.0030888299
-0.0033227667
-0.0035729609
-0.0038403379
-0.0041258293
-0.0044303793
-0.0047549075
-0.0051003222
-0.0054674798
-0.0058571825
-0.0062701407
-0.0067069523
-0.0071680646
-0.0076537393
-0.0081640022
-0.008698601
-0.0092569391
-0.0098380209
-0.010440375
-0.011061988
-0.011700211
-0.012351699
-0.013012294
-0.013676978
-0.014339748
-0.014993595
-0.015630382
-0.016240873
-0.01681462
-0.017340095
-0.017804573
-0.018194425
-0.018495009
-0.018691144
-0.018767022
-0.018706897
-0.018494973
-0.018116349
-0.017556806
-0.01680402
-0.015847104
-0.014678131
-0.013291216
-0.011684373
-0.0098579622
-0.0078172743
-0.0055696996
-0.0031267734
-0.0005020958
0.0022867689
0.0052212882
0.0082795944
0.01144009
0.014678791
0.017973119
0.021299175
0.024635325
0.027959609
0.03125282
0.034496216
0.037673936
0.040771101
0.043775555
0.046676381
0.049465032
0.052134241
0.054678669
0.057094145
0.059377949
0.061528361
0.063544628
0.065426849
0.067175578
0.068792212
0.070277948
0.071635231
0.072865152
0.073971563
0.074954379
0.075820513
0.076566098
0.07720512
0.077722209
0.078148726
0.078438583
0.078670224
0.078720086
-7.858039e-05
-1.797803e-05
-0.00010207513
-9.1021772e-05
-0.00014388632
-0.00015563608
-0.00019605382
-0.00021924766
-0.0002558631
-0.00028593425
-0.00032297409
-0.00035837843
-0.00039817611
-0.00043874569
-0.00048285997
-0.00052909069
-0.00057880722
-0.00063155766
-0.00068812065
-0.00074849232
-0.00081321867
-0.0008825168
-0.00095685964
-0.0010365901
-0.0011221809
-0.0012140635
-0.0013127455
-0.0014187347
-0.0015325915
-0.0016549005
-0.0017862819
-0.0019274038
-0.0020789534
-0.0022416778
-0.0024163434
-0.0026037732
-0.0028048128
-0.0030203584
-0.0032513294
-0.0034986845
-0.0037634056
-0.0040464907
-0.0043489604
-0.0046718228
-0.0050160869
-0.0053827238
-0.0057726647
-0.006186764
-0.00662578
-0.0070903356
-0.0075808843
-0.0080976586
-0.0086406268
-0.0092094242
-0.0098032958
-0.010421014
-0.011060811
-0.011720271
-0.01239627
-0.013084841
-0.013781123
-0.014479213
-0.015172148
-0.01585174
-0.016508626
-0.017132101
-0.017710271
-0.018229891
-0.018676689
-0.019035201
-0.019289314
-0.019422107
-0.019416658
-0.01925584
-0.018923442
-0.018403836
-0.017683442
-0.016750087
-0.015594868
-0.014210949
-0.01259589
-0.010749606
-0.008677661
-0.0063877002
-0.0038921095
-0.001205292
0.0016537274
0.0046652113
0.0078054552
0.011051477
0.014377369
0.017759221
0.021171397
0.024591165
0.027995204
0.031363558
0.03467658
0.037918037
0.041072597
0.04412807
0.047073469
0.049900477
0.05260204
0.055173224
0.05761025
0.059910898
0.06207393
0.064099121
0.065987067
0.067738835
0.06935629
0.070841086
0.072196077
0.073422741
0.07452524
0.075503806
0.076365548
0.077106877
0.077741848
0.078255425
0.078678833
0.07896652
0.079196338
0.079245822
-7.5946589e-05
-1.7342152e-05
-9.8608556e-05
-8.7904421e-05
-0.0001389848
-0.00015032832
-0.00018938486
-0.00021179888
-0.00024719104
-0.00027626529
-0.00031208324
-0.00034633069
-0.0003848362
-0.00042410198
-0.00046681034
-0.00051158391
-0.00055974955
-0.00061087454
-0.00066571604
-0.00072427574
-0.00078708759
-0.00085436869
-0.00092658455
-0.0010040763
-0.0010873122
-0.001176722
-0.0012728115
-0.0013760887
-0.0014871151
-0.0016064785
-0.0017348045
-0.0018727688
-0.00202107
-0.0021804691
-0.0023517517
-0.0025357638
-0.0027333803
-0.0029455328
-0.0031731831
-0.0034173411
-0.0036790487
-0.0039593747
-0.0042594214
-0.0045802923
-0.0049231049
-0.0052889542
-0.0056789115
-0.0060939884
-0.0065351181
-0.0070031167
-0.0074986493
-0.0080221773
-0.0085739147
-0.0091537561
-0.0097612182
-0.01039535
-0.011054664
-0.011737015
-0.012439537
-0.013158493
-0.013889213
-0.01462593
-0.015361752
-0.016088464
-0.016796585
-0.017475145
-0.018111875
-0.018692963
-0.019203438
-0.019626928
-0.019946282
-0.020143327
-0.020199809
-0.02009708
-0.019817433
-0.019343608
-0.018660572
-0.017754645
-0.016615792
-0.01523604
-0.013612423
-0.011744299
-0.0096375601
-0.007300117
-0.0047453652
-0.0019886062
0.00094940421
0.004047574
0.0072800282
0.010622234
0.014046025
0.017526012
0.021034532
0.024547662
0.028040503
0.031492309
0.034882404
0.038194192
0.041411841
0.044523173
0.047517144
0.050385735
0.053122154
0.055721954
0.058181812
0.06050009
0.062676098
0.064710214
0.066603599
0.06835789
0.06997548
0.071458531
0.072810346
0.074032832
0.075130494
0.076103908
0.076960399
0.077696684
0.078326891
0.078836356
0.079256137
0.079541296
0.079768997
0.079818038
-7.3120365e-05
-1.6659855e-05
-9.488872e-05
-8.455922e-05
-0.00013372489
-0.00014463213
-0.00018222751
-0.00020380398
-0.0002378825
-0.0002658857
-0.0003003908
-0.00033339471
-0.000370511
-0.00040837448
-0.00044957023
-0.0004927754
-0.00053927107
-0.00058864497
-0.00064163103
-0.00069823668
-0.00075898272
-0.00082408599
-0.00089400369
-0.00096907472
-0.0010497621
-0.0011364935
-0.001229772
-0.0013301055
-0.0014380558
-0.0015542136
-0.0016792095
-0.0018137267
-0.0019584745
-0.0021142286
-0.0022817934
-0.0024620389
-0.0026558699
-0.0028642546
-0.0030881995
-0.0033287676
-0.0035870642
-0.0038642326
-0.0041614622
-0.0044799574
-0.0048209521
-0.0051856741
-0.0055753456
-0.0059911481
-0.0064342047
-0.0069055421
-0.0074060572
-0.0079364631
-0.0084972461
-0.009088589
-0.0097103129
-0.010361779
-0.011041818
-0.011748595
-0.012479548
-0.013231207
-0.013999141
-0.014777754
-0.015560261
-0.016338447
-0.017102731
-0.017841882
-0.018543242
-0.019192396
-0.019773625
-0.020269552
-0.020661887
-0.020931053
-0.021057303
-0.021020261
-0.020800518
-0.02037894
-0.019738825
-0.018864734
-0.017745323
-0.016371272
-0.014739001
-0.012847177
-0.010702077
-0.008311869
-0.0056911384
-0.00285617
0.00017023344
0.003365476
0.006701119
0.01015091
0.013684025
0.017273454
0.020889165
0.02450595
0.028097094
0.031641026
0.035115907
0.038504794
0.041791311
0.044963356
0.048009841
0.050923136
0.053696765
0.056326858
0.058810627
0.061147104
0.063336224
0.065379048
0.067277371
0.069033468
0.070650316
0.072130641
0.07347824
0.074695489
0.075787268
0.076754527
0.077604823
0.078335207
0.078959878
0.079464586
0.07988019
0.080162445
0.08038772
0.080436255
-7.0107926e-05
-1.5932945e-05
-9.0924343e-05
-8.0994193e-05
-0.000128119
-0.00013856099
-0.00017459858
-0.00019528168
-0.00022795914
-0.00025481949
-0.00028792366
-0.00031960004
-0.00035523299
-0.00039159853
-0.00043117803
-0.0004727066
-0.0005174164
-0.00056491675
-0.00061591666
-0.00067042943
-0.00072896161
-0.00079172941
-0.00085918093
-0.00093165226
-0.0010096003
-0.0010934502
-0.0011837016
-0.0012808613
-0.0013854912
-0.0014981841
-0.001619575
-0.001750354
-0.0018912413
-0.0020430264
-0.0022065329
-0.0023826549
-0.0025723279
-0.0027765574
-0.0029963959
-0.0032329616
-0.0034874257
-0.0037610096
-0.004054994
-0.0043706901
-0.0047094548
-0.0050726573
-0.005461681
-0.0058778896
-0.0063226113
-0.0067971006
-0.0073025067
-0.0078398183
-0.008409821
-0.0090130172
-0.009649567
-0.010319182
-0.011021055
-0.011753708
-0.012514928
-0.013301564
-0.014109476
-0.014933284
-0.01576636
-0.016600521
-0.017426117
-0.018231669
-0.019004125
-0.019728437
-0.020388084
-0.020964598
-0.021438432
-0.021788443
-0.021993211
-0.022030399
-0.021878656
-0.021516691
-0.020925875
-0.020088716
-0.018992344
-0.017625836
-0.015984898
-0.014067341
-0.011879901
-0.0094310045
-0.0067366577
-0.0038142264
-0.00068895265
0.0026149042
0.0060658646
0.0096357853
0.013290713
0.017001876
0.020736484
0.024467964
0.028167508
0.031812714
0.035380421
0.038853394
0.042214661
0.045452283
0.048555154
0.051516138
0.054329139
0.056990983
0.05949949
0.061854469
0.064056563
0.066107605
0.068010095
0.069767024
0.071382008
0.072858398
0.074200526
0.075411284
0.076495953
0.077455891
0.078298901
0.079022399
0.079640654
0.080139868
0.080550669
0.080829588
0.081052084
0.081100035
-6.6916074e-05
-1.5162954e-05
-8.6724224e-05
-7.7217141e-05
-0.00012217946
-0.00013212811
-0.00016651464
-0.00018625032
-0.00021744216
-0.00024309007
-0.00027470789
-0.00030497511
-0.00033903319
-0.00037380761
-0.00041166977
-0.00045141599
-0.00049422644
-0.00053973314
-0.00058861842
-0.00064090159
-0.00069707373
-0.00075735012
-0.00082216873
-0.00089186229
-0.00096688074
-0.0010476458
-0.0011346529
-0.0012284072
-0.0013294694
-0.0014384339
-0.0015559394
-0.0016826819
-0.001819392
-0.0019668726
-0.0021259662
-0.0022975906
-0.0024827121
-0.0026823741
-0.0028976759
-0.0031297924
-0.0033799625
-0.0036494888
-0.003939747
-0.0042521598
-0.0045882137
-0.0049494271
-0.0053373544
-0.0057535536
-0.0061995721
-0.0066769099
-0.0071869889
-0.0077310975
-0.0083103488
-0.0089255963
-0.0095773765
-0.010265792
-0.010990443
-0.011750256
-0.012543422
-0.013367165
-0.014217692
-0.015089893
-0.015977352
-0.016871962
-0.017764045
-0.018641889
-0.019492059
-0.020298845
-0.021044885
-0.021710524
-0.022274852
-0.022714984
-0.023007643
-0.023128276
-0.023053343
-0.022759079
-0.022224655
-0.021430192
-0.020361059
-0.019004435
-0.017355201
-0.0154101
-0.013176415
-0.010662778
-0.0078868778
-0.0048672272
-0.0016319658
0.0017928383
0.0053720943
0.0090756043
0.012865716
0.01671177
0.02057774
0.024435632
0.028254215
0.032010272
0.035679139
0.039243369
0.042685334
0.045993374
0.049156394
0.052167883
0.055022201
0.057716995
0.06025079
0.062624287
0.064838926
0.06689741
0.068803025
0.07055955
0.072171309
0.073642331
0.074977536
0.076180369
0.077256546
0.078207863
0.079042382
0.079757913
0.080368788
0.08086171
0.081267033
0.081542152
0.081761494
0.081808783
-6.3552026e-05
-1.4351853e-05
-8.2298196e-05
-7.3237055e-05
-0.00011592023
-0.00012534865
-0.00015799461
-0.00017673097
-0.00020635596
-0.00023072446
-0.00026077373
-0.00028955317
-0.00032194812
-0.00035504149
-0.00039108859
-0.00042895013
-0.00046975129
-0.00051314778
-0.00055979357
-0.00060971399
-0.00066338355
-0.0007210161
-0.00078303854
-0.00084977954
-0.00092168115
-0.00099916085
-0.001082709
-0.0011728279
-0.0012700765
-0.0013750495
-0.0014883883
-0.0016107944
-0.0017430074
-0.001885843
-0.0020401618
-0.0022069049
-0.0023870689
-0.0025817354
-0.0027920507
-0.003019247
-0.0032646327
-0.0035295936
-0.0038156034
-0.0041242009
-0.0044570072
-0.0048156977
-0.0052020067
-0.0056176978
-0.0060645522
-0.0065443323
-0.007058754
-0.0076094298
-0.0081978299
-0.0088251932
-0.0094924723
-0.010200206
-0.010948452
-0.011736598
-0.012563303
-0.013426227
-0.014321994
-0.015245834
-0.01619161
-0.017151351
-0.018115404
-0.019071859
-0.020006918
-0.020904195
-0.021745447
-0.022509742
-0.023174686
-0.023715468
-0.024106737
-0.024321435
-0.024333531
-0.024116412
-0.023646707
-0.022901744
-0.021864833
-0.02052089
-0.01886383
-0.016889068
-0.014604555
-0.012019104
-0.0091524344
-0.0060242985
-0.0026663231
0.0008934617
0.004615646
0.008467825
0.01240796
0.016403403
0.020414336
0.024411324
0.028360334
0.032237392
0.036016138
0.039679026
0.043207719
0.04659099
0.04981779
0.052882395
0.05577971
0.058508352
0.061067658
0.063459347
0.065685761
0.067750575
0.069657947
0.071412527
0.073019412
0.074483369
0.075809954
0.077003209
0.078069312
0.079010532
0.079835199
0.080541548
0.081143966
0.081629704
0.082028796
0.082299598
0.082515364
0.082561901
-6.0023712e-05
-1.3501432e-05
-7.7656324e-05
-6.9062899e-05
-0.00010935544
-0.00011823777
-0.00014905749
-0.00016674469
-0.0001947249
-0.00021774961
-0.00024615129
-0.00027336715
-0.00030401383
-0.00033533917
-0.00036947662
-0.00040535421
-0.00044403924
-0.00048521199
-0.00052949644
-0.00057692389
-0.00062795107
-0.00068278993
-0.00074185526
-0.00080547091
-0.00087406999
-0.00094806485
-0.0010279396
-0.0011141927
-0.0012073802
-0.0013080961
-0.0014169832
-0.001534747
-0.0016621354
-0.0017999754
-0.0019491448
-0.002110607
-0.0022853883
-0.0024746076
-0.002679458
-0.0029012296
-0.0031413006
-0.0034011414
-0.0036823263
-0.0039865133
-0.0043154633
-0.0046710144
-0.0050550894
-0.0054696684
-0.0059167794
-0.0063984639
-0.006916752
-0.0074736051
-0.0080708797
-0.0087102346
-0.0093930789
-0.010120433
-0.010892867
-0.011710288
-0.012571887
-0.013475829
-0.014419232
-0.01539774
-0.016405574
-0.017434964
-0.018476354
-0.019517675
-0.020544804
-0.021540668
-0.02248612
-0.023358864
-0.024134911
-0.02478733
-0.02528848
-0.025608492
-0.025718535
-0.025588749
-0.025192865
-0.024504973
-0.023506016
-0.022178228
-0.020514414
-0.018508336