/*--------------------------------*- C++ -*----------------------------------*\
| =========                 |                                                 |
| \\      /  F ield         | foam-extend: Open Source CFD                    |
|  \\    /   O peration     | Version:     4.1                                |
|   \\  /    A nd           | Web:         http://www.foam-extend.org         |
|    \\/     M anipulation  |                                                 |
\*---------------------------------------------------------------------------*/
FoamFile
{
    version     2.0;
    format      ascii;
    class       surfaceScalarField;
    location    "0.1";
    object      phi;
}
// * * * * * * * * * * * * * * * * * * * * * * * * * * * * * * * * * * * * * //

dimensions      [0 3 -1 0 0 0 0];

internalField   nonuniform List<scalar> 
32976
(
-0.001614309
5.487627e-08
-0.0016143721
6.3080796e-08
-0.0016144432
7.1134057e-08
-0.0016145233
8.0093159e-08
-0.0016146125
8.9158354e-08
-0.0016147114
9.8932303e-08
-0.0016148205
1.0910038e-07
-0.0016149405
1.1995912e-07
-0.0016150719
1.3140398e-07
-0.0016152155
1.4360143e-07
-0.001615372
1.5654267e-07
-0.0016155424
1.70342e-07
-0.0016157274
1.8503596e-07
-0.0016159281
2.0071988e-07
-0.0016161456
2.1745386e-07
-0.0016163809
2.3533026e-07
-0.0016166353
2.5442458e-07
-0.0016169102
2.7483377e-07
-0.0016172068
2.9664466e-07
-0.0016175268
3.1996093e-07
-0.0016178716
3.4487793e-07
-0.0016182432
3.7150705e-07
-0.0016186431
3.9995198e-07
-0.0016190734
4.3033338e-07
-0.0016195362
4.6276222e-07
-0.0016200336
4.9736659e-07
-0.0016205678
5.3426205e-07
-0.0016211414
5.7358247e-07
-0.0016217569
6.1544581e-07
-0.0016224168
6.5998821e-07
-0.0016231242
7.0732431e-07
-0.0016238818
7.5758432e-07
-0.0016246926
8.1088784e-07
-0.00162556
8.6733798e-07
-0.001626487
9.2705252e-07
-0.0016274771
9.9010959e-07
-0.0016285337
1.0566025e-06
-0.0016296603
1.1265749e-06
-0.0016308604
1.2000829e-06
-0.0016321375
1.2771205e-06
-0.0016334952
1.3576901e-06
-0.0016349369
1.4417187e-06
-0.0016364661
1.5291248e-06
-0.0016380858
1.6197595e-06
-0.0016397992
1.7134278e-06
-0.0016416091
1.8098739e-06
-0.0016435179
1.908775e-06
-0.0016455276
2.0097383e-06
-0.0016476399
2.1122863e-06
-0.0016498558
2.2158586e-06
-0.0016521756
2.319802e-06
-0.0016545989
2.4233667e-06
-0.0016571246
2.5257017e-06
-0.0016597505
2.6258574e-06
-0.0016624733
2.7227753e-06
-0.0016652886
2.8152997e-06
-0.0016681908
2.9021764e-06
-0.0016711728
2.9820605e-06
-0.0016742263
3.0535255e-06
-0.0016773414
3.1150826e-06
-0.0016805066
3.1651873e-06
-0.0016837089
3.2022718e-06
-0.0016869336
3.2247648e-06
-0.0016901648
3.2311212e-06
-0.0016933846
3.2198561e-06
-0.0016965742
3.1895796e-06
-0.0016997132
3.1390449e-06
-0.0017027804
3.0671754e-06
-0.0017057535
2.9731246e-06
-0.0017086099
2.8563076e-06
-0.0017113263
2.7164409e-06
-0.0017138798
2.5535491e-06
-0.0017162478
2.3679565e-06
-0.001718408
2.160207e-06
-0.001720339
1.931001e-06
-0.0017220201
1.6811372e-06
-0.0017234318
1.4116208e-06
-0.0017245557
1.1239175e-06
-0.001725376
8.2029776e-07
-0.0017258799
5.0391859e-07
-0.0017260585
1.7858169e-07
-0.0017259067
-1.5176977e-07
-0.0017254234
-4.8330084e-07
-0.0017246111
-8.1234942e-07
-0.0017234757
-1.1353637e-06
-0.0017220267
-1.4489553e-06
-0.0017202768
-1.7499521e-06
-0.0017182413
-2.0355089e-06
-0.0017159381
-2.3031309e-06
-0.0017133874
-2.5507645e-06
-0.0017106106
-2.7767869e-06
-0.0017076305
-2.980059e-06
-0.0017044706
-3.1598881e-06
-0.0017011546
-3.316055e-06
-0.0016977058
-3.4487443e-06
-0.0016941473
-3.5585488e-06
-0.0016905009
-3.646385e-06
-0.0016867874
-3.713485e-06
-0.0016830261
-3.7612993e-06
-0.0016792346
-3.7914853e-06
-0.0016754288
-3.8058252e-06
-0.0016716226
-3.8061972e-06
-0.0016678281
-3.7945126e-06
-0.0016640554
-3.772696e-06
-0.0016603128
-3.7426224e-06
-0.0016566067
-3.7061053e-06
-0.0016529418
-3.6648408e-06
-0.0016493215
-3.620349e-06
-0.0016457477
-3.5738297e-06
-0.0016422218
-3.5258602e-06
-0.0016387461
-3.4757035e-06
-0.0016353261
-3.4200481e-06
-0.0016319751
-3.3509915e-06
-0.0016287213
-3.2538112e-06
-0.001625615
-3.1063008e-06
-0.001622732
-2.8829678e-06
-0.0016201653
-2.5666619e-06
-0.0016180005
-2.1648188e-06
-0.0016162825
-1.718015e-06
-0.001614996
-1.2864924e-06
-0.0016140788
-9.1721866e-07
-0.0016134583
-6.2047973e-07
-0.0016130787
-3.796284e-07
-1.7566862e-07
-0.0016143054
1.0961061e-07
-0.0016143683
1.260052e-07
-0.0016144393
1.4208704e-07
-0.0016145192
1.5998683e-07
-0.0016146081
1.7809228e-07
-0.0016147068
1.9761752e-07
-0.0016148156
2.1792694e-07
-0.0016149353
2.3961799e-07
-0.0016150663
2.6247907e-07
-0.0016152096
2.8684503e-07
-0.0016153657
3.1269668e-07
-0.0016155357
3.4026288e-07
-0.0016157202
3.6961584e-07
-0.0016159205
4.0094679e-07
-0.0016161374
4.3437606e-07
-0.0016163721
4.7008858e-07
-0.001616626
5.0823485e-07
-0.0016169001
5.4900818e-07
-0.0016171961
5.9258183e-07
-0.0016175153
6.3916325e-07
-0.0016178593
6.8894356e-07
-0.00161823
7.4214602e-07
-0.001618629
7.9897791e-07
-0.0016190583
8.5968004e-07
-0.0016195201
9.2447422e-07
-0.0016200163
9.9361708e-07
-0.0016205494
1.0673403e-06
-0.0016211217
1.1459114e-06
-0.0016217358
1.2295659e-06
-0.0016223944
1.3185765e-06
-0.0016231003
1.4131737e-06
-0.0016238563
1.5136194e-06
-0.0016246656
1.6201534e-06
-0.0016255312
1.7329822e-06
-0.0016264565
1.8523419e-06
-0.0016274448
1.9783898e-06
-0.0016284995
2.1113144e-06
-0.0016296241
2.2512049e-06
-0.0016308222
2.3981753e-06
-0.0016320973
2.5522157e-06
-0.001633453
2.713333e-06
-0.0016348926
2.8813837e-06
-0.0016364197
3.0562084e-06
-0.0016380375
3.2375131e-06
-0.0016397489
3.4249117e-06
-0.001641557
3.617897e-06
-0.001643464
3.8158272e-06
-0.0016454722
4.0179202e-06
-0.0016475831
4.2232253e-06
-0.0016497979
4.4306256e-06
-0.0016521169
4.6388195e-06
-0.0016545399
4.8463115e-06
-0.0016570656
5.0514032e-06
-0.0016596919
5.2521985e-06
-0.0016624157
5.4465823e-06
-0.0016652327
5.6322434e-06
-0.0016681372
5.8066718e-06
-0.0016711223
5.9671744e-06
-0.0016741796
6.1108929e-06
-0.0016772994
6.2348435e-06
-0.0016804701
6.335927e-06
-0.0016836789
6.4109951e-06
-0.001686911
6.4568893e-06
-0.0016901504
6.4705005e-06
-0.0016933793
6.4488378e-06
-0.0016965789
6.3890966e-06
-0.0016997286
6.2887561e-06
-0.001702807
6.1456321e-06
-0.0017057919
5.9579972e-06
-0.0017086602
5.7246405e-06
-0.0017113887
5.4449462e-06
-0.0017139541
5.1189093e-06
-0.0017163333
4.7471284e-06
-0.0017185037
4.3306656e-06
-0.0017204437
3.8709496e-06
-0.0017221322
3.3696815e-06
-0.0017235496
2.8290404e-06
-0.0017246779
2.252127e-06
-0.0017255011
1.6435646e-06
-0.0017260068
1.0096216e-06
-0.001726186
3.5778919e-07
-0.0017260337
-3.0412188e-07
-0.0017255485
-9.6843748e-07
-0.0017247331
-1.6277908e-06
-0.0017235934
-2.2750308e-06
-0.001722139
-2.9033444e-06
-0.0017203826
-3.5063565e-06
-0.0017183398
-4.0783538e-06
-0.0017160286
-4.6143277e-06
-0.0017134692
-5.1101593e-06
-0.0017106834
-5.5625955e-06
-0.0017076941
-5.9693581e-06
-0.0017045249
-6.3290647e-06
-0.0017011997
-6.6412867e-06
-0.001697742
-6.9064049e-06
-0.001694175
-7.1256208e-06
-0.0016905206
-7.3007848e-06
-0.0016867997
-7.4343813e-06
-0.0016830316
-7.5293309e-06
-0.0016792341
-7.5889684e-06
-0.0016754231
-7.6168762e-06
-0.0016716125
-7.6168284e-06
-0.0016678143
-7.5926631e-06
-0.0016640388
-7.5482435e-06
-0.0016602941
-7.4873301e-06
-0.0016565866
-7.4135589e-06
-0.0016529211
-7.3303291e-06
-0.0016493008
-7.2406864e-06
-0.0016457276
-7.1470338e-06
-0.0016422029
-7.0505291e-06
-0.0016387289
-6.9497025e-06
-0.001635311
-6.8379418e-06
-0.0016319625
-6.6994672e-06
-0.0016287115
-6.5048822e-06
-0.0016256079
-6.2098448e-06
-0.0016227274
-5.7634369e-06
-0.0016201627
-5.1313602e-06
-0.0016179992
-4.3283686e-06
-0.0016162818
-3.4353925e-06
-0.0016149956
-2.5727281e-06
-0.0016140785
-1.8342971e-06
-0.0016134582
-1.2408298e-06
-0.0016130786
-7.5915408e-07
-3.5129815e-07
-0.0016142992
1.6407296e-07
-0.0016143618
1.8861648e-07
-0.0016144324
2.1268774e-07
-0.0016145119
2.3948435e-07
-0.0016146004
2.6658595e-07
-0.0016146986
2.9581504e-07
-0.0016148069
3.2621671e-07
-0.001614926
3.5868796e-07
-0.0016150564
3.9291082e-07
-0.001615199
4.2938793e-07
-0.0016153543
4.6808982e-07
-0.0016155234
5.0935927e-07
-0.0016157071
5.5330396e-07
-0.0016159064
6.0021064e-07
-0.0016161223
6.5025994e-07
-0.0016163559
7.0372945e-07
-0.0016166085
7.6084475e-07
-0.0016168814
8.2189518e-07
-0.001617176
8.8713985e-07
-0.0016174937
9.5688955e-07
-0.0016178362
1.0314313e-06
-0.0016182051
1.1111005e-06
-0.0016186024
1.1962084e-06
-0.0016190298
1.287116e-06
-0.0016194895
1.3841558e-06
-0.0016199836
1.4877133e-06
-0.0016205144
1.5981368e-06
-0.0016210843
1.7158283e-06
-0.0016216959
1.8411418e-06
-0.0016223518
1.9744868e-06
-0.0016230548
2.1162109e-06
-0.0016238079
2.2667087e-06
-0.0016246141
2.426342e-06
-0.0016254765
2.5954227e-06
-0.0016263985
2.7743074e-06
-0.0016273834
2.9632359e-06
-0.0016284345
3.1624942e-06
-0.0016295555
3.3722201e-06
-0.00163075
3.5925892e-06
-0.0016320213
3.8235919e-06
-0.0016333732
4.0652442e-06
-0.0016348092
4.3173377e-06
-0.0016363326
4.5796412e-06
-0.0016379468
4.8517223e-06
-0.0016396549
5.1330109e-06
-0.0016414598
5.4227551e-06
-0.001643364
5.7200016e-06
-0.0016453696
6.023587e-06
-0.0016474785
6.3320948e-06
-0.0016496917
6.6438592e-06
-0.0016520099
6.9569366e-06
-0.0016544326
7.2690926e-06
-0.001656959
7.5777867e-06
-0.001659587
7.8801807e-06
-0.0016623135
8.1731049e-06
-0.0016651344
8.4530915e-06
-0.0016680441
8.7163714e-06
-0.0016710358
8.9588963e-06
-0.0016741013
9.1763657e-06
-0.0016772307
9.3642851e-06
-0.0016804128
9.5179812e-06
-0.0016836345
9.6326999e-06
-0.0016868813
9.7036659e-06
-0.0016901369
9.7261713e-06
-0.0016933838
9.6956798e-06
-0.0016966026
9.607928e-06
-0.0016997729
9.4590724e-06
-0.001702873
9.2457684e-06
-0.0017058804
8.9653495e-06
-0.0017087717
8.6159162e-06
-0.0017115232
8.1964526e-06
-0.0017141111
7.7068547e-06
-0.0017165119
7.1479366e-06
-0.0017187025
6.5212506e-06
-0.0017206606
5.828988e-06
-0.0017223647
5.0738683e-06
-0.0017237951
4.2594295e-06
-0.0017249336
3.3905947e-06
-0.0017257645
2.4744459e-06
-0.0017262752
1.5203461e-06
-0.0017264568
5.3939432e-07
-0.0017263041
-4.5678471e-07
-0.0017258159
-1.4566543e-06
-0.0017249947
-2.4490681e-06
-0.0017238465
-3.4231865e-06
-0.0017223811
-4.3686988e-06
-0.0017206115
-5.2759622e-06
-0.0017185535
-6.1363458e-06
-0.0017162256
-6.9422856e-06
-0.0017136482
-7.6875723e-06
-0.0017108435
-8.3673057e-06
-0.0017078348
-8.9780684e-06
-0.001704646
-9.5177963e-06
-0.0017013014
-9.9858729e-06
-0.0016978249
-1.0382902e-05
-0.0016942398
-1.0710729e-05
-0.0016905684
-1.0972176e-05
-0.0016868318
-1.1171024e-05
-0.0016830494
-1.1311704e-05
-0.0016792391
-1.1399271e-05
-0.0016754169
-1.1439147e-05
-0.0016715966
-1.1437039e-05
-0.0016677906
-1.1398745e-05
-0.0016640087
-1.1330095e-05
-0.0016602593
-1.123676e-05
-0.0016565486
-1.1124217e-05
-0.0016528814
-1.0997583e-05
-0.0016492606
-1.0861442e-05
-0.0016456882
-1.071941e-05
-0.0016421655
-1.0573234e-05
-0.0016386945
-1.0420722e-05
-0.0016352805
-1.0251985e-05
-0.0016319365
-1.0043405e-05
-0.0016286904
-9.750982e-06
-0.0016255919
-9.3083286e-06
-0.0016227162
-8.6391775e-06
-0.0016201555
-7.6920761e-06
-0.0016179949
-6.4889432e-06
-0.0016162795
-5.1507835e-06
-0.0016149946
-3.8576961e-06
-0.0016140783
-2.7505121e-06
-0.0016134586
-1.8605644e-06
-0.0016130795
-1.138294e-06
-5.2675961e-07
-0.0016142875
2.1813022e-07
-0.0016143497
2.5076131e-07
-0.0016144197
2.8276253e-07
-0.0016144986
3.1839026e-07
-0.0016145865
3.5442276e-07
-0.001614684
3.9328614e-07
-0.0016147914
4.3370827e-07
-0.0016149096
4.7688335e-07
-0.0016150391
5.2238789e-07
-0.0016151806
5.7089127e-07
-0.0016153349
6.2235386e-07
-0.0016155028
6.7723177e-07
-0.0016156851
7.3566829e-07
-0.001615883
7.9804549e-07
-0.0016160973
8.6460411e-07
-0.0016163293
9.3571406e-07
-0.0016165801
1.0116758e-06
-0.0016168511
1.0928745e-06
-0.0016171436
1.179655e-06
-0.0016174592
1.2724311e-06
-0.0016177993
1.3715857e-06
-0.0016181658
1.4775662e-06
-0.0016185604
1.5907881e-06
-0.001618985
1.711733e-06
-0.0016194417
1.8408456e-06
-0.0016199326
1.9786397e-06
-0.00162046
2.1255805e-06
-0.0016210264
2.2822053e-06
-0.0016216343
2.4489879e-06
-0.0016222862
2.6264765e-06
-0.0016229852
2.8151373e-06
-0.001623734
3.0154996e-06
-0.0016245357
3.2280498e-06
-0.0016253934
3.4532081e-06
-0.0016263106
3.691455e-06
-0.0016272905
3.9431161e-06
-0.0016283366
4.2085793e-06
-0.0016294524
4.4880361e-06
-0.0016306415
4.7817296e-06
-0.0016319076
5.0896572e-06
-0.0016332542
5.4118506e-06
-0.0016346849
5.7480445e-06
-0.0016362032
6.0979441e-06
-0.0016378125
6.4609875e-06
-0.0016395159
6.8364303e-06
-0.0016413164
7.2232863e-06
-0.0016432167
7.6203012e-06
-0.0016452191
8.0259409e-06
-0.0016473253
8.4383342e-06
-0.0016495367
8.8552767e-06
-0.001651854
9.2741927e-06
-0.001654277
9.6921168e-06
-0.0016568049
1.0105673e-05
-0.0016594358
1.0511086e-05
-0.0016621668
1.0904131e-05
-0.0016649939
1.1280184e-05
-0.0016679118
1.163421e-05
-0.0016709137
1.1960796e-05
-0.0016739915
1.2254183e-05
-0.0016771355
1.2508344e-05
-0.0016803345
1.2717001e-05
-0.0016835756
1.2873758e-05
-0.0016868441
1.2972182e-05
-0.0016901239
1.3005916e-05
-0.001693397
1.2968823e-05
-0.0016966442
1.2855119e-05
-0.0016998447
1.2659571e-05
-0.0017029765
1.23776e-05
-0.0017060167
1.2005525e-05
-0.0017089415
1.1540679e-05
-0.0017117266
1.0981567e-05
-0.0017143476
1.0327912e-05
-0.0017167804
9.580685e-06
-0.001719001
8.7419041e-06
-0.0017209866
7.8145516e-06
-0.0017227152
6.802458e-06
-0.0017241664
5.7106671e-06
-0.0017253219
4.5460783e-06
-0.0017261658
3.3183407e-06
-0.0017266854
2.0399464e-06
-0.0017268716
7.2560182e-07
-0.0017267192
-6.0923347e-07
-0.0017262267
-1.9490836e-06
-0.0017253969
-3.2789171e-06
-0.001724236
-4.5840899e-06
-0.001722754
-5.8506899e-06
-0.0017209642
-7.0657102e-06
-0.0017188831
-8.2175277e-06
-0.0017165294
-9.2959596e-06
-0.0017139243
-1.0292669e-05
-0.0017110905
-1.1201083e-05
-0.0017080519
-1.2016648e-05
-0.0017048331
-1.2736631e-05
-0.0017014587
-1.3360262e-05
-0.0016979532
-1.388841e-05
-0.0016943403
-1.4323623e-05
-0.0016906427
-1.4669753e-05
-0.0016868818
-1.4931943e-05
-0.0016830773
-1.5116202e-05
-0.0016792472
-1.522937e-05
-0.0016754076
-1.5278769e-05
-0.0016715725
-1.5272097e-05
-0.0016677541
-1.521716e-05
-0.0016639624
-1.5121801e-05
-0.0016602055
-1.4993633e-05
-0.0016564898
-1.4840009e-05
-0.0016528196
-1.4667786e-05
-0.0016491979
-1.4483104e-05
-0.0016456265
-1.4290804e-05
-0.0016421065
-1.4093234e-05
-0.0016386397
-1.3887498e-05
-0.0016352312
-1.3660456e-05
-0.0016318939
-1.3380713e-05
-0.0016286552
-1.2989756e-05
-0.0016255642
-1.2399276e-05
-0.0016226956
-1.1507767e-05
-0.0016201411
-1.024663e-05
-0.0016179853
-8.6447588e-06
-0.0016162732
-6.8628677e-06
-0.0016149904
-5.1405045e-06
-0.0016140756
-3.6652992e-06
-0.0016134568
-2.4793459e-06
-0.0016130782
-1.5168675e-06
-7.0198485e-07
-0.0016142733
2.7164856e-07
-0.0016143348
3.1228751e-07
-0.0016144042
3.5214154e-07
-0.0016144823
3.9651446e-07
-0.0016145693
4.4139106e-07
-0.0016146658
4.8979542e-07
-0.0016147722
5.4014154e-07
-0.0016148893
5.9391822e-07
-0.0016150175
6.5059748e-07
-0.0016151576
7.11014e-07
-0.0016153104
7.7511839e-07
-0.0016154766
8.4347958e-07
-0.0016156572
9.1627656e-07
-0.0016158532
9.93986e-07
-0.0016160655
1.0769082e-06
-0.0016162953
1.1655045e-06
-0.0016165437
1.2601503e-06
-0.0016168122
1.3613263e-06
-0.001617102
1.4694634e-06
-0.0016174146
1.5850787e-06
-0.0016177517
1.7086504e-06
-0.0016181149
1.8407382e-06
-0.001618506
1.9818617e-06
-0.0016189268
2.1326243e-06
-0.0016193796
2.2935825e-06
-0.0016198663
2.4653794e-06
-0.0016203893
2.6485978e-06
-0.001620951
2.8439112e-06
-0.001621554
3.0519148e-06
-0.0016222008
3.2732979e-06
-0.0016228943
3.5086483e-06
-0.0016236374
3.7586329e-06
-0.0016244333
4.0238657e-06
-0.0016252849
4.3048786e-06
-0.0016261957
4.6022796e-06
-0.0016271691
4.9164852e-06
-0.0016282085
5.2479914e-06
-0.0016293175
5.5970513e-06
-0.0016304998
5.9639824e-06
-0.0016317589
6.3487978e-06
-0.0016330986
6.7515544e-06
-0.0016345225
7.1719399e-06
-0.0016360342
7.6096065e-06
-0.0016376371
8.0638749e-06
-0.0016393345
8.5338387e-06
-0.0016411295
9.0182907e-06
-0.0016430249
9.5156897e-06
-0.0016450231
1.0024145e-05
-0.0016471261
1.0541344e-05
-0.0016493354
1.1064557e-05
-0.0016516518
1.1590588e-05
-0.0016540754
1.2115752e-05
-0.0016566056
1.2635845e-05
-0.0016592407
1.3146159e-05
-0.0016619779
1.3641419e-05
-0.0016648136
1.4115838e-05
-0.0016677425
1.456311e-05
-0.0016707581
1.4976441e-05
-0.0016738526
1.5348592e-05
-0.0016770162
1.5671974e-05
-0.0016802378
1.5938668e-05
-0.0016835047
1.6140589e-05
-0.0016868021
1.626959e-05
-0.0016901138
1.63176e-05
-0.0016934218
1.627681e-05
-0.0016967065
1.6139834e-05
-0.0016999469
1.5899963e-05
-0.0017031206
1.5551295e-05
-0.0017062041
1.508904e-05
-0.0017091731
1.4509665e-05
-0.0017120026
1.3811108e-05
-0.0017146675
1.2992837e-05
-0.0017171428
1.2055921e-05
-0.0017194037
1.1002814e-05
-0.0017214264
9.8373079e-06
-0.0017231884
8.5644173e-06
-0.0017246685
7.1908101e-06
-0.0017258479
5.7254942e-06
-0.0017267104
4.1808032e-06
-0.0017272429
2.5724369e-06
-0.0017274361
9.1877714e-07
-0.0017272845
-7.608009e-07
-0.0017267868
-2.446759e-06
-0.0017259457
-4.1200376e-06
-0.0017247678
-5.7620328e-06
-0.0017232634
-7.35509e-06
-0.0017214464
-8.8827057e-06
-0.0017193337
-1.0330162e-05
-0.0017169451
-1.1684569e-05
-0.0017143024
-1.2935412e-05
-0.0017114291
-1.4074415e-05
-0.0017083498
-1.5095888e-05
-0.00170509
-1.599645e-05
-0.001701675
-1.6775226e-05
-0.00169813
-1.7433409e-05
-0.0016944793
-1.7974329e-05
-0.0016907461
-1.8402953e-05
-0.0016869522
-1.872588e-05
-0.0016831176
-1.8950784e-05
-0.0016792606
-1.9086384e-05
-0.0016753974
-1.9141982e-05
-0.0016715421
-1.9127346e-05
-0.0016677069
-1.9052357e-05
-0.0016639018
-1.8926929e-05
-0.0016601348
-1.8760671e-05
-0.0016564119
-1.8562849e-05
-0.0016527376
-1.8342093e-05
-0.0016491146
-1.8106122e-05
-0.0016455444
-1.7861021e-05
-0.0016420279
-1.7609755e-05
-0.0016385666
-1.7348744e-05
-0.0016351654
-1.7061637e-05
-0.0016318368
-1.6709325e-05
-0.0016286077
-1.6218893e-05
-0.0016255267
-1.5480258e-05
-0.0016226677
-1.4366807e-05
-0.0016201215
-1.2792803e-05
-0.0016179723
-1.0793914e-05
-0.0016162651
-8.5701404e-06
-0.0016149855
-6.4200502e-06
-0.0016140729
-4.5779002e-06
-0.0016134556
-3.0966849e-06
-0.0016130779
-1.8945883e-06
-8.7684184e-07
-0.0016142556
3.2449727e-07
-0.0016143164
3.7304486e-07
-0.0016143849
4.2065414e-07
-0.001614462
4.7366448e-07
-0.0016145479
5.2727666e-07
-0.0016146432
5.8510599e-07
-0.0016147483
6.4525657e-07
-0.0016148639
7.0950834e-07
-0.0016149906
7.7723e-07
-0.001615129
8.4941973e-07
-0.0016152799
9.2601884e-07
-0.0016154441
1.0077081e-06
-0.0016156225
1.094702e-06
-0.0016158161
1.187571e-06
-0.0016160259
1.2866747e-06
-0.0016162529
1.3925656e-06
-0.0016164985
1.5056934e-06
-0.0016167638
1.6266349e-06
-0.0016170502
1.7559068e-06
-0.0016173593
1.894129e-06
-0.0016176925
2.0418756e-06
-0.0016180516
2.1998181e-06
-0.0016184383
2.3685812e-06
-0.0016188546
2.5488895e-06
-0.0016193024
2.7414116e-06
-0.0016197839
2.9469209e-06
-0.0016203015
3.1661192e-06
-0.0016208574
3.3998182e-06
-0.0016214542
3.6487372e-06
-0.0016220946
3.9137085e-06
-0.0016227814
4.1954448e-06
-0.0016235175
4.4947536e-06
-0.001624306
4.8123799e-06
-0.0016251501
5.1489722e-06
-0.0016260531
5.5052718e-06
-0.0016270184
5.881793e-06
-0.0016280496
6.2791475e-06
-0.0016291502
6.6976575e-06
-0.0016303239
7.1377247e-06
-0.0016315745
7.599388e-06
-0.0016329057
8.0827409e-06
-0.0016343212
8.587437e-06
-0.0016358247
9.1130891e-06
-0.0016374197
9.6589153e-06
-0.0016391097
1.0223863e-05
-0.001640898
1.0806521e-05
-0.0016427874
1.1405076e-05
-0.0016447805
1.20173e-05
-0.0016468796
1.2640454e-05
-0.0016490864
1.32713e-05
-0.0016514018
1.3906036e-05
-0.0016538263
1.4540269e-05
-0.0016563595
1.5168982e-05
-0.0016589998
1.5786537e-05
-0.001661745
1.6386611e-05
-0.0016645915
1.6962253e-05
-0.0016675342
1.7505874e-05
-0.0016705671
1.8009281e-05
-0.0016736822
1.846373e-05
-0.0016768703
1.8860032e-05
-0.0016801202
1.9188581e-05
-0.0016834191
1.9439549e-05
-0.0016867525
1.9603002e-05
-0.001690104
1.966908e-05
-0.0016934554
1.9628209e-05
-0.0016967869
1.9471305e-05
-0.001700077
1.9190077e-05
-0.0017033029
1.8777187e-05
-0.0017064405
1.8226622e-05
-0.0017094647
1.7533873e-05
-0.0017123498
1.6696205e-05
-0.0017150697
1.5712736e-05
-0.0017175983
1.4584565e-05
-0.00171991
1.3314544e-05
-0.00172198
1.1907286e-05
-0.0017237847
1.036904e-05
-0.001725302
8.7081959e-06
-0.0017265125
6.9359897e-06
-0.0017273993
5.0675674e-06
-0.0017279488
3.1219563e-06
-0.0017281514
1.1213437e-06
-0.0017280013
-9.1083557e-07
-0.0017274973
-2.9508023e-06
-0.0017266421
-4.9752827e-06
-0.0017254426
-6.9615155e-06
-0.0017239097
-8.8879248e-06
-0.0017220581
-1.0734341e-05
-0.0017199054
-1.248282e-05
-0.0017174724
-1.4117655e-05
-0.0017147817
-1.5626088e-05
-0.001711858
-1.6998098e-05
-0.001708727
-1.822687e-05
-0.0017054151
-1.9308396e-05
-0.0017019485
-2.0241765e-05
-0.0016983534
-2.1028571e-05
-0.0016946547
-2.1673034e-05
-0.0016908763
-2.2181339e-05
-0.0016870405
-2.2561664e-05
-0.0016831678
-2.2823463e-05
-0.0016792768
-2.297745e-05
-0.0016753837
-2.3035016e-05
-0.001671503
-2.3008094e-05
-0.0016676466
-2.2908729e-05
-0.0016638245
-2.2748981e-05
-0.0016600447
-2.2540516e-05
-0.001656313
-2.2294562e-05
-0.0016526335
-2.2021562e-05
-0.0016490088
-2.1730844e-05
-0.0016454401
-2.1429757e-05
-0.0016419279
-2.1121905e-05
-0.0016384736
-2.0803049e-05
-0.0016350816
-2.0453667e-05
-0.0016317639
-2.0027017e-05
-0.0016285469
-1.9435915e-05
-0.0016254784
-1.8548678e-05
-0.0016226315
-1.7213742e-05
-0.001620096
-1.5328266e-05
-0.0016179555
-1.2934456e-05
-0.0016162545
-1.0271113e-05
-0.0016149793
-7.6952961e-06
-0.0016140695
-5.4876446e-06
-0.001613454
-3.7121752e-06
-0.0016130774
-2.2712344e-06
-1.0512433e-06
-0.0016142355
3.7654567e-07
-0.0016142953
4.3288293e-07
-0.0016143628
4.8812996e-07
-0.0016144388
5.4964889e-07
-0.0016145234
6.1186753e-07
-0.0016146172
6.7898422e-07
-0.0016147208
7.4879724e-07
-0.0016148346
8.2337338e-07
-0.0016149594
9.0197939e-07
-0.0016150957
9.8577493e-07
-0.0016152444
1.0746926e-06
-0.0016154062
1.1695241e-06
-0.001615582
1.2705194e-06
-0.0016157728
1.3783419e-06
-0.0016159796
1.4934101e-06
-0.0016162034
1.6163669e-06
-0.0016164454
1.7477367e-06
-0.001616707
1.8881912e-06
-0.0016169894
2.0383329e-06
-0.0016172941
2.1988846e-06
-0.0016176228
2.370516e-06
-0.001617977
2.5540107e-06
-0.0016183585
2.7500986e-06
-0.0016187692
2.9596257e-06
-0.0016192112
3.1833744e-06
-0.0016196865
3.4222494e-06
-0.0016201975
3.6770734e-06
-0.0016207464
3.9487976e-06
-0.001621336
4.2382675e-06
-0.0016219687
4.5464614e-06
-0.0016226475
4.8742198e-06
-0.0016233752
5.222495e-06
-0.001624155
5.5921683e-06
-0.0016249901
5.9840109e-06
-0.0016258837
6.3989039e-06
-0.0016268394
6.8374673e-06
-0.0016278607
7.3004365e-06
-0.0016289512
7.7882132e-06
-0.0016301148
8.3012941e-06
-0.0016313552
8.8397568e-06
-0.0016326762
9.4037448e-06
-0.0016340816
9.9928928e-06
-0.0016355753
1.0606791e-05
-0.001637161
1.1244572e-05
-0.0016388422
1.1905056e-05
-0.0016406223
1.2586647e-05
-0.0016425045
1.3287281e-05
-0.0016444916
1.4004409e-05
-0.001646586
1.473489e-05
-0.0016487897
1.5474994e-05
-0.001651104
1.6220335e-05
-0.0016535296
1.6965828e-05
-0.0016560663
1.7705649e-05
-0.001658713
1.8433246e-05
-0.0016614676
1.9141247e-05
-0.0016643269
1.9821534e-05
-0.0016672862
2.0465221e-05
-0.0016703397
2.10627e-05
-0.0016734796
2.1603688e-05
-0.0016766969
2.2077354e-05
-0.0016799807
2.2472351e-05
-0.0016833182
2.2777036e-05
-0.0016866948
2.2979612e-05
-0.0016900941
2.3068333e-05
-0.0016934976
2.3031756e-05
-0.0016968853
2.2858977e-05
-0.0017002352
2.2539998e-05
-0.0017035239
2.2065912e-05
-0.0017067267
2.142935e-05
-0.0017098175
2.0624693e-05
-0.0017127697
1.9648408e-05
-0.0017155561
1.8499157e-05
-0.0017181495
1.7177987e-05
-0.0017205231
1.5688099e-05
-0.0017226507
1.4034921e-05
-0.0017245076
1.2225975e-05
-0.0017260709
1.027146e-05
-0.0017273199
8.1849555e-06
-0.0017282369
5.9845643e-06
-0.0017288077
3.6927976e-06
-0.0017290222
1.3358317e-06
-0.0017288744
-1.05864e-06
-0.0017283628
-3.462364e-06
-0.0017274905
-5.8476163e-06
-0.0017262648
-8.1872319e-06
-0.0017246972
-1.0455492e-05
-0.0017228032
-1.262835e-05
-0.0017206016
-1.4684473e-05
-0.001718114
-1.6605198e-05
-0.0017153646
-1.8375448e-05
-0.0017123793
-1.9983407e-05
-0.0017091851
-2.1421144e-05
-0.0017058094
-2.2684062e-05
-0.0017022799
-2.3771299e-05
-0.0016986235
-2.4684948e-05
-0.0016948663
-2.5430251e-05
-0.0016910329
-2.6014748e-05
-0.0016871462
-2.6448346e-05
-0.0016832272
-2.6742422e-05
-0.0016792948
-2.6909829e-05
-0.0016753657
-2.6964176e-05
-0.0016714541
-2.6919685e-05
-0.0016675722
-2.6790667e-05
-0.0016637297
-2.6591421e-05
-0.0016599345
-2.6335744e-05
-0.0016561922
-2.6036887e-05
-0.0016525066
-2.5707151e-05
-0.0016488799
-2.5357507e-05
-0.0016453131
-2.4996597e-05
-0.0016418063
-2.4628683e-05
-0.0016383604
-2.4248897e-05
-0.0016349795
-2.3834596e-05
-0.001631675
-2.3331493e-05
-0.0016284727
-2.263828e-05
-0.0016254195
-2.1601872e-05
-0.0016225873
-2.0045946e-05
-0.0016200649
-1.7850592e-05
-0.0016179351
-1.5064314e-05
-0.001616242
-1.1964155e-05
-0.0016149723
-8.9650598e-06
-0.0016140662
-6.3937286e-06
-0.0016134531
-4.3253003e-06
-0.0016130778
-2.6465014e-06
-1.2250479e-06
-0.0016142099
4.2766544e-07
-0.0016142687
4.916555e-07
-0.001614335
5.5440551e-07
-0.0016144096
6.2428436e-07
-0.0016144927
6.9495929e-07
-0.0016145849
7.712021e-07
-0.0016146866
8.5051059e-07
-0.0016147985
9.3523431e-07
-0.0016149211
1.0245403e-06
-0.001615055
1.1197473e-06
-0.0016152011
1.2207796e-06
-0.0016153601
1.328538e-06
-0.0016155329
1.443308e-06
-0.0016157204
1.5658447e-06
-0.0016159236
1.6966257e-06
-0.0016161437
1.8363836e-06
-0.0016163816
1.9857166e-06
-0.0016166388
2.145391e-06
-0.0016169166
2.3160951e-06
-0.0016172164
2.4986538e-06
-0.0016175397
2.6938327e-06
-0.0016178882
2.9025273e-06
-0.0016182637
3.1255731e-06
-0.001618668
3.3639388e-06
-0.0016191031
3.6185213e-06
-0.0016195712
3.890358e-06
-0.0016200746
4.1803945e-06
-0.0016206155
4.4897237e-06
-0.0016211965
4.8193195e-06
-0.0016218204
5.1703092e-06
-0.0016224898
5.5436649e-06
-0.0016232078
5.9404884e-06
-0.0016239775
6.3618032e-06
-0.001624802
6.8085103e-06
-0.0016256847
7.2816385e-06
-0.0016266291
7.7819218e-06
-0.0016276389
8.3102295e-06
-0.0016287178
8.8670543e-06
-0.0016298695
9.4530007e-06
-0.0016310979
1.00682e-05
-0.001632407
1.0712861e-05
-0.0016338008
1.1386617e-05
-0.001635283
1.2089055e-05
-0.0016368577
1.2819243e-05
-0.0016385285
1.3575896e-05
-0.0016402992
1.4357253e-05
-0.0016421729
1.5161025e-05
-0.0016441529
1.5984368e-05
-0.0016462417
1.6823759e-05
-0.0016484417
1.7675005e-05
-0.0016507546
1.8533151e-05
-0.0016531812
1.9392441e-05
-0.0016557218
2.0246263e-05
-0.0016583757
2.1087155e-05
-0.0016611411
2.1906705e-05
-0.0016640152
2.2695622e-05
-0.0016669937
2.3443717e-05
-0.001670071
2.4139936e-05
-0.0016732397
2.4772426e-05
-0.001676491
2.5328666e-05
-0.0016798142
2.5795502e-05
-0.0016831965
2.6159401e-05
-0.0016866235
2.6406608e-05
-0.0016900786
2.652338e-05
-0.0016935431
2.649628e-05
-0.0016969966
2.6312448e-05
-0.0017004166
2.596003e-05
-0.0017037791
2.5428393e-05
-0.0017070584
2.4708652e-05
-0.0017102276
2.3793925e-05
-0.0017132589
2.2679734e-05
-0.0017161239
2.136416e-05
-0.0017187941
1.9848096e-05
-0.001721241
1.8135026e-05
-0.0017234372
1.6231175e-05
-0.0017253566
1.4145365e-05
-0.0017269748
1.1889678e-05
-0.00172827
9.4801545e-06
-0.0017292235
6.9380195e-06
-0.0017298202
4.2894613e-06
-0.0017300492
1.5648822e-06
-0.0017299043
-1.2035099e-06
-0.001729384
-3.9826935e-06
-0.0017284914
-6.7402045e-06
-0.0017272345
-9.4441727e-06
-0.0017256255
-1.2064468e-05
-0.0017236809
-1.4572909e-05
-0.0017214208
-1.6944581e-05
-0.0017188683
-1.9157698e-05
-0.001716049
-2.1194772e-05
-0.0017129903
-2.3042136e-05
-0.0017097207
-2.469076e-05
-0.0017062692
-2.6135503e-05
-0.0017026649
-2.7375662e-05
-0.0016989359
-2.841395e-05
-0.0016951093
-2.9256794e-05
-0.0016912108
-2.9913255e-05
-0.001687264
-3.0395152e-05
-0.0016832905
-3.0715958e-05
-0.0016793095
-3.0890839e-05
-0.0016753379
-3.0935776e-05
-0.0016713901
-3.0867428e-05
-0.0016674783
-3.0702493e-05
-0.0016636121
-3.0457617e-05
-0.001659799
-3.0148812e-05
-0.0016560445
-2.9791426e-05
-0.001652352
-2.9399667e-05
-0.0016487233
-2.898619e-05
-0.0016451589
-2.8560957e-05
-0.0016416587
-2.8128917e-05
-0.001638223
-2.7684597e-05
-0.0016348553
-2.7202289e-05
-0.0016315665
-2.6620263e-05
-0.0016283816
-2.5823253e-05
-0.0016253464
-2.4636995e-05
-0.0016225318
-2.2860623e-05
-0.0016200251
-2.0357221e-05
-0.0016179081
-1.7181317e-05
-0.0016162247
-1.3647586e-05
-0.0016149616
-1.0228145e-05
-0.00161406
-7.2953609e-06
-0.0016134497
-4.9355691e-06
-0.0016130761
-3.0201133e-06
-1.3981418e-06
-0.0016141821
4.777299e-07
-0.0016142396
5.4921747e-07
-0.0016143045
6.1931738e-07
-0.0016143776
6.973869e-07
-0.001614459
7.7634702e-07
-0.0016145494
8.6153258e-07
-0.001614649
9.5014701e-07
-0.0016147586
1.0448179e-06
-0.0016148787
1.1446146e-06
-0.0016150099
1.2510122e-06
-0.0016151531
1.3639272e-06
-0.0016153089
1.4843677e-06
-0.0016154782
1.6126544e-06
-0.001615662
1.7496334e-06
-0.0016158612
1.8958405e-06
-0.001616077
2.0520972e-06
-0.0016163103
2.2190753e-06
-0.0016165626
2.3976353e-06
-0.001616835
2.5885506e-06
-0.0016171291
2.7927484e-06
-0.0016174464
3.0110896e-06
-0.0016177884
3.244582e-06
-0.001618157
3.4941675e-06
-0.001618554
3.7609379e-06
-0.0016189814
4.0459063e-06
-0.0016194413
4.3502434e-06
-0.0016199359
4.6750194e-06
-0.0016204677
5.0214713e-06
-0.001621039
5.3907049e-06
-0.0016216527
5.784e-06
-0.0016223115
6.2024649e-06
-0.0016230184
6.6473562e-06
-0.0016237764
7.1198457e-06
-0.0016245889
7.6209718e-06
-0.0016254592
8.1519193e-06
-0.0016263908
8.7135468e-06
-0.0016273875
9.3068684e-06
-0.0016284529
9.9324815e-06
-0.001629591
1.0591113e-05
-0.0016308058
1.1282963e-05
-0.0016321012
1.2008325e-05
-0.0016334815
1.2766852e-05
-0.0016349505
1.3558148e-05
-0.0016365125
1.4381239e-05
-0.0016381714
1.523476e-05
-0.001639931
1.6116814e-05
-0.0016417949
1.7024914e-05
-0.0016437664
1.7955946e-05