/*--------------------------------*- C++ -*----------------------------------*\
| =========                 |                                                 |
| \\      /  F ield         | foam-extend: Open Source CFD                    |
|  \\    /   O peration     | Version:     4.1                                |
|   \\  /    A nd           | Web:         http://www.foam-extend.org         |
|    \\/     M anipulation  |                                                 |
\*---------------------------------------------------------------------------*/
FoamFile
{
    version     2.0;
    format      ascii;
    class       volScalarField;
    location    "0.1";
    object      rAU;
}
// * * * * * * * * * * * * * * * * * * * * * * * * * * * * * * * * * * * * * //

dimensions      [0 0 1 0 0 0 0];

internalField   nonuniform List<scalar> 
16796
(
0.00048792756
0.00048752082
0.00048752035
0.00048751991
0.00048751932
0.00048751876
0.00048751805
0.00048751737
0.00048751653
0.0004875157
0.0004875147
0.00048751371
0.00048751254
0.00048751136
0.00048750999
0.00048750861
0.00048750701
0.00048750539
0.00048750354
0.00048750164
0.00048749949
0.00048749728
0.0004874948
0.00048749223
0.00048748937
0.00048748639
0.00048748309
0.00048747965
0.00048747586
0.00048747189
0.00048746754
0.00048746293
0.00048745804
0.00048745272
0.00048744713
0.00048744106
0.00048743468
0.00048742778
0.00048742052
0.00048741271
0.0004874045
0.0004873957
0.00048738641
0.00048737655
0.00048736613
0.00048735513
0.00048734351
0.00048733129
0.00048731845
0.00048730498
0.00048729087
0.00048727613
0.00048726077
0.00048724481
0.00048722826
0.00048721114
0.0004871935
0.00048717537
0.00048715681
0.00048713788
0.00048711864
0.00048709917
0.00048707958
0.00048705994
0.00048704037
0.00048702099
0.00048700192
0.00048698328
0.00048696522
0.00048694786
0.00048693136
0.00048691584
0.00048690146
0.00048688833
0.0004868766
0.00048686638
0.0004868578
0.00048685096
0.00048684598
0.00048684291
0.00048684181
0.00048684181
0.00048684272
0.00048684564
0.00048685056
0.00048685745
0.00048686623
0.00048687685
0.0004868892
0.00048690317
0.00048691866
0.00048693552
0.00048695361
0.0004869728
0.00048699293
0.00048701388
0.00048703549
0.00048705764
0.0004870802
0.00048710306
0.0004871261
0.00048714922
0.00048717235
0.00048719542
0.00048721835
0.00048724111
0.00048726364
0.00048728592
0.00048730793
0.00048732967
0.00048735111
0.00048737225
0.00048739305
0.00048741344
0.00048743325
0.00048745217
0.00048746974
0.0004874854
0.00048749862
0.00048750911
0.00048751697
0.00048752257
0.00048752636
0.00048712294
0.00048762239
0.00048721611
0.00048721559
0.00048721509
0.00048721445
0.00048721384
0.00048721307
0.00048721232
0.00048721141
0.00048721051
0.00048720944
0.00048720837
0.00048720712
0.00048720585
0.00048720438
0.00048720289
0.00048720119
0.00048719944
0.00048719747
0.00048719543
0.00048719315
0.00048719078
0.00048718814
0.00048718539
0.00048718234
0.00048717916
0.00048717565
0.00048717198
0.00048716795
0.00048716372
0.0004871591
0.0004871542
0.00048714901
0.00048714336
0.00048713742
0.00048713099
0.00048712422
0.00048711692
0.00048710924
0.00048710098
0.0004870923
0.00048708301
0.00048707321
0.00048706284
0.00048705187
0.0004870403
0.00048702812
0.00048701531
0.00048700187
0.00048698779
0.00048697307
0.00048695773
0.00048694177
0.00048692521
0.00048690809
0.00048689042
0.00048687226
0.00048685365
0.00048683465
0.00048681535
0.0004867958
0.00048677609
0.00048675634
0.00048673664
0.00048671711
0.00048669787
0.00048667907
0.00048666083
0.00048664328
0.00048662659
0.00048661088
0.0004865963
0.00048658299
0.00048657108
0.0004865607
0.00048655196
0.00048654499
0.00048653988
0.00048653672
0.00048653556
0.00048653644
0.00048653662
0.00048653552
0.00048653646
0.00048653943
0.00048654443
0.00048655142
0.00048656033
0.00048657108
0.00048658358
0.00048659773
0.00048661338
0.00048663042
0.00048664869
0.00048666805
0.00048668835
0.00048670945
0.00048673122
0.0004867535
0.00048677618
0.00048679914
0.00048682227
0.00048684546
0.00048686866
0.00048689176
0.00048691472
0.00048693748
0.00048696
0.00048698227
0.00048700426
0.00048702597
0.00048704741
0.00048706859
0.00048708952
0.00048711017
0.0004871304
0.00048714984
0.00048716791
0.00048718382
0.00048719693
0.00048720703
0.00048721444
0.00048721969
0.00048681802
0.0004876221
0.00048721578
0.00048721521
0.00048721466
0.00048721397
0.0004872133
0.00048721247
0.00048721166
0.00048721069
0.00048720972
0.00048720857
0.00048720742
0.00048720608
0.00048720472
0.00048720317
0.00048720157
0.00048719976
0.0004871979
0.0004871958
0.00048719363
0.0004871912
0.00048718868
0.00048718588
0.00048718296
0.00048717973
0.00048717635
0.00048717263
0.00048716874
0.00048716447
0.00048715999
0.0004871551
0.00048714991
0.00048714441
0.00048713844
0.00048713216
0.00048712536
0.00048711821
0.00048711051
0.00048710241
0.0004870937
0.00048708456
0.00048707478
0.00048706447
0.00048705357
0.00048704205
0.00048702992
0.00048701715
0.00048700374
0.00048698969
0.00048697499
0.00048695965
0.00048694368
0.00048692708
0.00048690991
0.00048689218
0.00048687393
0.0004868552
0.00048683607
0.00048681658
0.00048679684
0.00048677691
0.0004867569
0.00048673691
0.00048671707
0.0004866975
0.00048667832
0.0004866597
0.00048664176
0.00048662465
0.00048660852
0.00048659352
0.00048657979
0.00048656748
0.00048655671
0.00048654762
0.00048654031
0.00048653491
0.00048653149
0.00048653013
0.00048653087
0.00048653371
0.00048653408
0.00048653096
0.00048652991
0.00048653096
0.0004865341
0.00048653932
0.00048654657
0.00048655579
0.00048656688
0.00048657976
0.0004865943
0.00048661036
0.0004866278
0.00048664647
0.00048666622
0.0004866869
0.00048670836
0.00048673045
0.00048675304
0.00048677599
0.00048679919
0.00048682251
0.00048684589
0.00048686922
0.00048689243
0.00048691546
0.00048693827
0.00048696082
0.0004869831
0.00048700511
0.00048702687
0.00048704844
0.00048706993
0.00048709143
0.00048711297
0.00048713429
0.00048715477
0.00048717338
0.0004871891
0.00048720145
0.00048721067
0.00048721738
0.00048681696
0.00048762183
0.00048721546
0.00048721485
0.00048721425
0.00048721351
0.00048721278
0.0004872119
0.00048721103
0.00048720999
0.00048720895
0.00048720774
0.00048720651
0.00048720509
0.00048720365
0.000487202
0.00048720031
0.00048719839
0.00048719642
0.0004871942
0.0004871919
0.00048718934
0.00048718667
0.00048718372
0.00048718063
0.00048717722
0.00048717365
0.00048716973
0.00048716562
0.00048716112
0.00048715639
0.00048715124
0.00048714578
0.00048713998
0.0004871337
0.00048712708
0.00048711994
0.00048711242
0.00048710432
0.0004870958
0.00048708666
0.00048707706
0.00048706681
0.000487056
0.00048704457
0.00048703252
0.00048701982
0.00048700647
0.00048699247
0.00048697781
0.00048696248
0.00048694651
0.0004869299
0.00048691267
0.00048689487
0.00048687651
0.00048685765
0.00048683833
0.00048681864
0.00048679863
0.00048677841
0.00048675806
0.0004867377
0.00048671743
0.00048669739
0.00048667771
0.00048665853
0.00048664002
0.00048662231
0.00048660557
0.00048658994
0.00048657558
0.00048656265
0.00048655128
0.0004865416
0.00048653375
0.00048652784
0.00048652397
0.00048652221
0.00048652264
0.00048652526
0.00048653007
0.00048653064
0.00048652549
0.00048652244
0.00048652156
0.00048652285
0.00048652633
0.00048653195
0.00048653967
0.00048654941
0.00048656108
0.00048657455
0.0004865897
0.00048660637
0.00048662442
0.00048664369
0.00048666401
0.00048668524
0.0004867072
0.00048672975
0.00048675274
0.00048677605
0.00048679955
0.00048682315
0.00048684673
0.00048687022
0.00048689355
0.00048691666
0.0004869395
0.00048696208
0.00048698438
0.00048700646
0.00048702842
0.00048705045
0.00048707279
0.00048709563
0.00048711881
0.00048714167
0.00048716296
0.0004871813
0.00048719588
0.0004872069
0.00048721508
0.00048681589
0.00048762159
0.00048721518
0.00048721452
0.00048721387
0.00048721308
0.0004872123
0.00048721136
0.00048721043
0.00048720934
0.00048720823
0.00048720695
0.00048720565
0.00048720415
0.00048720263
0.00048720089
0.0004871991
0.00048719709
0.00048719501
0.00048719268
0.00048719026
0.00048718756
0.00048718476
0.00048718165
0.0004871784
0.00048717482
0.00048717107
0.00048716696
0.00048716263
0.00048715791
0.00048715295
0.00048714755
0.00048714181
0.00048713573
0.00048712915
0.00048712221
0.00048711472
0.00048710684
0.00048709836
0.00048708944
0.00048707988
0.00048706982
0.0004870591
0.0004870478
0.00048703586
0.00048702327
0.00048701002
0.0004869961
0.0004869815
0.00048696623
0.00048695028
0.00048693367
0.00048691642
0.00048689854
0.00048688008
0.00048686108
0.00048684158
0.00048682165
0.00048680136
0.0004867808
0.00048676006
0.00048673924
0.00048671846
0.00048669785
0.00048667755
0.0004866577
0.00048663846
0.00048661999
0.00048660244
0.00048658599
0.00048657079
0.00048655702
0.00048654481
0.00048653432
0.00048652569
0.00048651904
0.00048651448
0.00048651211
0.00048651201
0.00048651421
0.00048651872
0.00048652551
0.0004865263
0.00048651908
0.00048651403
0.0004865112
0.00048651065
0.0004865124
0.00048651642
0.00048652268
0.0004865311
0.00048654161
0.00048655408
0.00048656838
0.00048658435
0.00048660186
0.00048662071
0.00048664074
0.0004866618
0.00048668369
0.00048670627
0.00048672937
0.00048675285
0.00048677657
0.00048680043
0.0004868243
0.0004868481
0.00048687174
0.00048689517
0.00048691833
0.00048694121
0.00048696381
0.0004869862
0.00048700854
0.00048703111
0.00048705429
0.0004870784
0.00048710342
0.00048712865
0.0004871526
0.00048717352
0.00048719033
0.00048720314
0.00048721278
0.00048681483
0.00048762137
0.00048721492
0.00048721421
0.00048721352
0.00048721268
0.00048721185
0.00048721086
0.00048720988
0.00048720872
0.00048720756
0.00048720621
0.00048720484
0.00048720327
0.00048720166
0.00048719984
0.00048719797
0.00048719586
0.00048719367
0.00048719123
0.00048718869
0.00048718587
0.00048718293
0.00048717968
0.00048717628
0.00048717254
0.00048716861
0.00048716431
0.00048715979
0.00048715486
0.00048714967
0.00048714402
0.00048713803
0.00048713167
0.00048712479
0.00048711754
0.00048710973
0.00048710149
0.00048709264
0.00048708333
0.00048707335
0.00048706286
0.00048705168
0.0004870399
0.00048702745
0.00048701433
0.00048700053
0.00048698603
0.00048697084
0.00048695495
0.00048693838
0.00048692112
0.00048690321
0.00048688467
0.00048686555
0.00048684588
0.00048682572
0.00048680514
0.00048678422
0.00048676305
0.00048674175
0.0004867204
0.00048669916
0.00048667815
0.00048665752
0.00048663743
0.00048661804
0.00048659954
0.00048658208
0.00048656585
0.00048655102
0.00048653775
0.0004865262
0.00048651655
0.00048650891
0.00048650341
0.00048650017
0.00048649929
0.00048650082
0.0004865048
0.0004865112
0.00048651999
0.00048652106
0.00048651173
0.00048650463
0.00048649985
0.00048649745
0.00048649747
0.00048649991
0.00048650474
0.00048651189
0.00048652129
0.00048653281
0.00048654633
0.00048656168
0.0004865787
0.00048659722
0.00048661704
0.000486638
0.0004866599
0.00048668256
0.00048670583
0.00048672954
0.00048675353
0.0004867777
0.00048680191
0.00048682605
0.00048685004
0.00048687381
0.0004868973
0.00048692049
0.0004869434
0.00048696611
0.00048698883
0.00048701194
0.00048703592
0.00048706129
0.00048708813
0.0004871157
0.00048714229
0.00048716578
0.0004871848
0.0004871994
0.00048721049
0.00048681377
0.00048762118
0.00048721468
0.00048721394
0.0004872132
0.00048721232
0.00048721144
0.0004872104
0.00048720936
0.00048720815
0.00048720693
0.00048720551
0.00048720408
0.00048720244
0.00048720076
0.00048719885
0.0004871969
0.00048719469
0.00048719241
0.00048718987
0.00048718722
0.00048718428
0.00048718121
0.00048717783
0.00048717428
0.00048717038
0.00048716629
0.00048716181
0.0004871571
0.00048715196
0.00048714655
0.00048714067
0.00048713443
0.00048712781
0.00048712064
0.00048711309
0.00048710496
0.00048709638
0.00048708717
0.00048707747
0.00048706709
0.00048705618
0.00048704454
0.00048703229
0.00048701934
0.0004870057
0.00048699135
0.00048697628
0.0004869605
0.000486944
0.00048692679
0.00048690888
0.00048689031
0.00048687108
0.00048685127
0.00048683091
0.00048681006
0.00048678879
0.00048676721
0.00048674539
0.00048672346
0.00048670154
0.00048667977
0.00048665829
0.00048663726
0.00048661686
0.00048659725
0.00048657864
0.00048656119
0.0004865451
0.00048653055
0.00048651771
0.00048650677
0.00048649788
0.00048649118
0.0004864868
0.00048648485
0.00048648543
0.00048648858
0.00048649434
0.00048650266
0.00048651348
0.00048651489
0.0004865034
0.00048649422
0.00048648745
0.00048648319
0.00048648149
0.00048648236
0.00048648578
0.0004864917
0.00048650004
0.00048651068
0.00048652348
0.00048653828
0.0004865549
0.00048657316
0.00048659285
0.00048661379
0.00048663578
0.00048665861
0.00048668211
0.00048670611
0.00048673044
0.00048675497
0.00048677955
0.00048680408
0.00048682845
0.00048685259
0.00048687643
0.00048689995
0.00048692318
0.00048694621
0.00048696931
0.00048699294
0.00048701773
0.00048704434
0.00048707297
0.00048710285
0.00048713204
0.00048715808
0.0004871793
0.00048719568
0.0004872082
0.00048681271
0.00048762102
0.00048721447
0.00048721369
0.00048721291
0.00048721198
0.00048721106
0.00048720997
0.00048720888
0.00048720762
0.00048720634
0.00048720487
0.00048720337
0.00048720166
0.00048719991
0.00048719793
0.00048719589
0.0004871936
0.00048719123
0.00048718859
0.00048718583
0.00048718278
0.00048717959
0.00048717608
0.00048717239
0.00048716834
0.00048716409
0.00048715944
0.00048715455
0.00048714922
0.0004871436
0.00048713749
0.00048713102
0.00048712414
0.00048711671
0.00048710887
0.00048710042
0.00048709152
0.00048708196
0.00048707189
0.00048706111
0.00048704978
0.00048703771
0.00048702498
0.00048701155
0.00048699739
0.0004869825
0.00048696686
0.00048695049
0.00048693337
0.00048691552
0.00048689695
0.00048687769
0.00048685777
0.00048683725
0.00048681616
0.00048679459
0.0004867726
0.0004867503
0.00048672778
0.00048670518
0.00048668262
0.00048666025
0.00048663823
0.00048661673
0.00048659593
0.00048657602
0.00048655721
0.00048653969
0.00048652366
0.00048650931
0.00048649684
0.00048648642
0.00048647823
0.00048647242
0.00048646911
0.00048646843
0.00048647045
0.00048647523
0.00048648278
0.00048649304
0.00048650593
0.00048650777
0.00048649406
0.00048648274
0.00048647396
0.00048646781
0.00048646438
0.00048646369
0.00048646574
0.00048647046
0.0004864778
0.00048648761
0.00048649977
0.00048651409
0.0004865304
0.00048654848
0.00048656813
0.00048658914
0.00048661129
0.00048663437
0.00048665818
0.00048668254
0.00048670727
0.00048673222
0.00048675723
0.00048678218
0.00048680697
0.00048683151
0.00048685572
0.0004868796
0.00048690315
0.00048692651
0.00048694999
0.00048697413
0.00048699971
0.00048702754
0.00048705794
0.00048709011
0.00048712187
0.00048715044
0.00048717384
0.00048719197
0.00048720593
0.00048681166
0.00048762087
0.00048721429
0.00048721347
0.00048721265
0.00048721168
0.00048721071
0.00048720958
0.00048720845
0.00048720713
0.0004872058
0.00048720427
0.00048720271
0.00048720094
0.00048719912
0.00048719708
0.00048719496
0.00048719259
0.00048719013
0.00048718739
0.00048718454
0.00048718138
0.00048717808
0.00048717444
0.00048717063
0.00048716644
0.00048716204
0.00048715723
0.00048715216
0.00048714664
0.00048714083
0.00048713451
0.0004871278
0.00048712068
0.00048711299
0.00048710487
0.00048709613
0.00048708691
0.00048707701
0.00048706659
0.00048705543
0.00048704369
0.00048703118
0.000487018
0.00048700408
0.00048698941
0.00048697398
0.00048695778
0.00048694081
0.00048692307
0.00048690457
0.00048688533
0.00048686538
0.00048684474
0.00048682349
0.00048680165
0.00048677932
0.00048675657
0.00048673351
0.00048671024
0.00048668691
0.00048666364
0.0004866406
0.00048661795
0.0004865959
0.00048657462
0.00048655432
0.00048653522
0.00048651753
0.00048650147
0.00048648724
0.00048647505
0.00048646509
0.00048645754
0.00048645256
0.00048645029
0.00048645084
0.00048645429
0.0004864607
0.00048647006
0.0004864823
0.00048649731
0.00048649968
0.00048648367
0.00048647016
0.00048645931
0.00048645125
0.00048644608
0.00048644383
0.00048644452
0.00048644809
0.00048645447
0.00048646352
0.00048647511
0.00048648904
0.00048650512
0.00048652312
0.00048654282
0.00048656399
0.0004865864
0.00048660981
0.00048663403
0.00048665883
0.00048668402
0.00048670945
0.00048673495
0.00048676038
0.00048678562
0.00048681059
0.0004868352
0.00048685945
0.00048688334
0.00048690704
0.0004869309
0.00048695555
0.00048698191
0.00048701094
0.00048704307
0.00048707749
0.0004871118
0.00048714285
0.00048716841
0.00048718829
0.00048720367
0.00048681061
0.00048762076
0.00048721414
0.00048721329
0.00048721242
0.00048721142
0.00048721041
0.00048720923
0.00048720805
0.00048720669
0.00048720531
0.00048720373
0.00048720211
0.00048720028
0.0004871984
0.00048719629
0.0004871941
0.00048719166
0.00048718912
0.00048718629
0.00048718335
0.00048718009
0.00048717668
0.00048717293
0.00048716899
0.00048716467
0.00048716013
0.00048715516
0.00048714994
0.00048714424
0.00048713824
0.00048713172
0.0004871248
0.00048711745
0.00048710951
0.00048710112
0.0004870921
0.00048708257
0.00048707235
0.00048706157
0.00048705004
0.00048703791
0.00048702498
0.00048701135
0.00048699695
0.00048698178
0.00048696582
0.00048694905
0.00048693149
0.00048691312
0.00048689397
0.00048687405
0.00048685338
0.00048683201
0.00048680999
0.00048678738
0.00048676425
0.0004867407
0.00048671682
0.00048669274
0.00048666861
0.00048664456
0.00048662078
0.00048659744
0.00048657473
0.00048655288
0.0004865321
0.00048651262
0.00048649467
0.00048647847
0.00048646427
0.00048645227
0.00048644269
0.00048643571
0.00048643151
0.00048643023
0.00048643198
0.00048643686
0.0004864449
0.0004864561
0.00048647036
0.00048648755
0.00048649058
0.00048647219
0.00048645641
0.00048644344
0.00048643343
0.0004864265
0.0004864227
0.00048642205
0.0004864245
0.00048642998
0.00048643834
0.00048644943
0.00048646306
0.000486479
0.00048649703
0.00048651687
0.00048653831
0.00048656108
0.00048658492
0.00048660962
0.00048663494
0.00048666068
0.00048668666
0.0004867127
0.00048673866
0.00048676441
0.00048678984
0.00048681489
0.00048683952
0.00048686377
0.00048688782
0.00048691206
0.00048693722
0.00048696434
0.00048699454
0.00048702838
0.000487065
0.00048710182
0.00048713534
0.00048716303
0.00048718463
0.00048720143
0.00048680957
0.00048762067
0.00048721402
0.00048721313
0.00048721223
0.00048721119
0.00048721014
0.00048720892
0.0004872077
0.00048720629
0.00048720487
0.00048720324
0.00048720157
0.00048719969
0.00048719775
0.00048719557
0.00048719332
0.00048719081
0.00048718819
0.00048718529
0.00048718225
0.00048717891
0.0004871754
0.00048717154
0.00048716748
0.00048716304
0.00048715837
0.00048715326
0.00048714788
0.00048714202
0.00048713584
0.00048712913
0.00048712201
0.00048711444
0.00048710626
0.00048709762
0.00048708832
0.00048707851
0.00048706797
0.00048705686
0.00048704497
0.00048703245
0.00048701911
0.00048700504
0.00048699018
0.00048697451
0.00048695802
0.00048694069
0.00048692253
0.00048690354
0.00048688373
0.00048686311
0.00048684172
0.00048681959
0.00048679678
0.00048677335
0.00048674939
0.00048672498
0.00048670024
0.00048667529
0.00048665029
0.0004866254
0.00048660078
0.00048657665
0.00048655321
0.00048653068
0.00048650931
0.00048648934
0.00048647102
0.0004864546
0.00048644032
0.00048642843
0.00048641914
0.00048641266
0.00048640918
0.00048640884
0.00048641178
0.00048641807
0.00048642776
0.00048644082
0.00048645715
0.0004864766
0.00048648045
0.00048645957
0.00048644143
0.00048642627
0.00048641427
0.00048640555
0.0004864002
0.00048639823
0.00048639959
0.00048640423
0.00048641197
0.00048642266
0.00048643608
0.00048645199
0.00048647014
0.00048649025
0.00048651206
0.00048653529
0.00048655967
0.00048658495
0.00048661088
0.00048663724
0.00048666385
0.0004866905
0.00048671705
0.00048674335
0.00048676929
0.0004867948
0.00048681985
0.00048684447
0.00048686888
0.0004868935
0.00048691916
0.00048694703
0.00048697838
0.00048701389
0.00048705268
0.00048709197
0.0004871279
0.0004871577
0.00048718101
0.0004871992
0.00048680854
0.00048762061
0.00048721393
0.00048721301
0.00048721207
0.00048721099
0.00048720991
0.00048720866
0.00048720739
0.00048720595
0.00048720448
0.0004872028
0.00048720109
0.00048719916
0.00048719717
0.00048719493
0.00048719262
0.00048719004
0.00048718735
0.00048718438
0.00048718127
0.00048717783
0.00048717423
0.00048717027
0.00048716611
0.00048716156
0.00048715676
0.00048715152
0.000487146
0.00048713999
0.00048713364
0.00048712675
0.00048711944
0.00048711166
0.00048710326
0.00048709438
0.00048708483
0.00048707473
0.00048706389
0.00048705246
0.00048704022
0.00048702733
0.00048701359
0.0004869991
0.00048698377
0.00048696761
0.00048695059
0.00048693271
0.00048691396
0.00048689433
0.00048687385
0.00048685253
0.00048683039
0.00048680748
0.00048678386
0.00048675959
0.00048673474
0.00048670943
0.00048668377
0.00048665789
0.00048663195
0.00048660612
0.00048658059
0.00048655557
0.00048653129
0.00048650799
0.00048648592
0.00048646535
0.00048644655
0.00048642979
0.00048641533
0.00048640344
0.00048639434
0.00048638829
0.00048638546
0.00048638602
0.00048639011
0.00048639782
0.00048640917
0.00048642414
0.00048644261
0.0004864644
0.00048646924
0.00048644575
0.00048642516
0.00048640774
0.00048639368
0.00048638315
0.00048637623
0.00048637296
0.00048637328
0.00048637712
0.00048638432
0.0004863947
0.00048640801
0.00048642401
0.0004864424
0.00048646289
0.0004864852
0.000486509
0.00048653403
0.00048655999
0.00048658664
0.00048661372
0.00048664103
0.00048666837
0.00048669556
0.00048672246
0.00048674896
0.00048677496
0.00048680045
0.00048682547
0.00048685024
0.00048687525
0.00048690141
0.00048693
0.00048696248
0.00048699962
0.00048704054
0.00048708224
0.00048712056
0.00048715243
0.00048717743
0.000487197
0.00048680751
0.00048762058
0.00048721386
0.00048721291
0.00048721194
0.00048721083
0.00048720971
0.00048720843
0.00048720713
0.00048720565
0.00048720414
0.00048720242
0.00048720067
0.00048719869
0.00048719665
0.00048719436
0.00048719199
0.00048718935
0.00048718661
0.00048718356
0.00048718038
0.00048717687
0.00048717318
0.00048716913
0.00048716488
0.00048716022
0.00048715531
0.00048714995
0.00048714429
0.00048713814
0.00048713164
0.00048712459
0.00048711709
0.00048710912
0.00048710051
0.00048709141
0.0004870816
0.00048707125
0.00048706012
0.00048704838
0.00048703581
0.00048702256
0.00048700843
0.00048699352
0.00048697775
0.0004869611
0.00048694356
0.00048692512
0.00048690578
0.00048688552
0.00048686436
0.00048684232
0.00048681942
0.00048679571
0.00048677124
0.00048674609
0.00048672032
0.00048669406
0.00048666742
0.00048664053
0.00048661358
0.00048658673
0.00048656019
0.00048653419
0.00048650896
0.00048648476
0.00048646187
0.00048644059
0.00048642118
0.00048640395
0.0004863892
0.0004863772
0.00048636821
0.00048636249
0.00048636025
0.00048636166
0.00048636688
0.00048637599
0.00048638902
0.00048640595
0.00048642663
0.00048645087
0.0004864569
0.00048643067
0.00048640751
0.00048638773
0.00048637155
0.00048635917
0.00048635068
0.00048634611
0.00048634543
0.00048634855
0.00048635529
0.00048636546
0.00048637878
0.00048639498
0.00048641374
0.00048643475
0.00048645768
0.00048648219
0.00048650798
0.00048653475
0.00048656221
0.00048659011
0.00048661821
0.0004866463
0.00048667421
0.00048670177
0.00048672886
0.0004867554
0.00048678136
0.00048680679
0.00048683194
0.00048685734
0.00048688399
0.0004869133
0.00048694687
0.0004869856
0.0004870286
0.00048707267
0.00048711332
0.00048714723
0.00048717389
0.00048719482
0.0004868065
0.00048762057
0.00048721382
0.00048721285
0.00048721185
0.00048721071
0.00048720956
0.00048720825
0.00048720691
0.0004872054
0.00048720385
0.0004872021
0.00048720031
0.00048719829
0.0004871962
0.00048719387
0.00048719145
0.00048718876
0.00048718596
0.00048718285
0.0004871796
0.00048717602
0.00048717226
0.00048716813
0.00048716378
0.00048715903
0.00048715401
0.00048714854
0.00048714277
0.00048713649
0.00048712984
0.00048712264
0.00048711498
0.00048710683
0.00048709802
0.00048708871
0.00048707867
0.00048706806
0.00048705667
0.00048704463
0.00048703174
0.00048701815
0.00048700365
0.00048698833
0.00048697211
0.00048695499
0.00048693695
0.00048691795
0.00048689801
0.00048687712
0.00048685527
0.0004868325
0.00048680883
0.00048678429
0.00048675895
0.00048673287
0.00048670615
0.00048667888
0.00048665119
0.00048662324
0.00048659519
0.00048656723
0.00048653958
0.00048651248
0.00048648619
0.00048646098
0.00048643714
0.000486415
0.00048639486
0.00048637704
0.00048636186
0.00048634963
0.00048634064
0.00048633516
0.00048633343
0.00048633564
0.00048634195
0.00048635247
0.00048636721
0.00048638616
0.00048640913
0.00048643591
0.00048644337
0.00048641425
0.0004863884
0.00048636615
0.00048634778
0.0004863335
0.00048632342
0.00048631758
0.00048631594
0.00048631841
0.00048632478
0.00048633484
0.0004863483
0.00048636484
0.00048638412
0.00048640578
0.00048642947
0.00048645483
0.00048648152
0.00048650922
0.00048653761
0.00048656642
0.0004865954
0.00048662433
0.00048665302
0.0004866813
0.00048670904
0.00048673615
0.00048676261
0.00048678847
0.00048681401
0.00048683981
0.00048686693
0.00048689694
0.00048693158
0.00048697186
0.00048701688
0.00048706326
0.0004871062
0.0004871421
0.00048717039
0.00048719266
0.00048680549
0.00048762059
0.00048721382
0.00048721281
0.00048721179
0.00048721063
0.00048720945
0.00048720811
0.00048720674
0.0004872052
0.00048720362
0.00048720184
0.00048720001
0.00048719795
0.00048719583
0.00048719345
0.00048719099
0.00048718825
0.0004871854
0.00048718224
0.00048717893
0.00048717529
0.00048717146
0.00048716726
0.00048716284
0.000487158
0.00048715289
0.00048714732
0.00048714143
0.00048713503
0.00048712826
0.00048712092
0.0004871131
0.00048710479
0.0004870958
0.00048708629
0.00048707604
0.0004870652
0.00048705355
0.00048704123
0.00048702804
0.00048701411
0.00048699925
0.00048698354
0.0004869669
0.00048694931
0.00048693076
0.00048691122
0.00048689069
0.00048686915
0.00048684662
0.00048682311
0.00048679864
0.00048677325
0.00048674701
0.00048671997
0.00048669224
0.00048666391
0.00048663511
0.00048660601
0.00048657678
0.00048654762
0.00048651876
0.00048649045
0.00048646296
0.0004864366
0.00048641168
0.00048638855
0.00048636752
0.00048634897
0.00048633323
0.00048632064
0.00048631153
0.00048630619
0.00048630488
0.00048630783
0.0004863152
0.00048632712
0.00048634361
0.00048636463
0.00048638999
0.00048641945
0.0004864286
0.00048639642
0.00048636772
0.00048634289
0.00048632224
0.00048630601
0.00048629432
0.00048628722
0.00048628467
0.00048628656
0.00048629267
0.00048630275
0.00048631648
0.00048633351
0.00048635345
0.00048637593
0.00048640054
0.0004864269
0.00048645463
0.00048648338
0.00048651283
0.00048654266
0.00048657263
0.00048660249
0.00048663203
0.00048666109
0.00048668953
0.00048671725
0.00048674424
0.00048677056
0.0004867965
0.00048682269
0.00048685029
0.00048688097
0.00048691665
0.00048695842
0.00048700541
0.00048705404
0.00048709921
0.00048713706
0.00048716695
0.00048719054
0.0004868045
0.00048762064
0.00048721384
0.00048721282
0.00048721177
0.00048721058
0.00048720938
0.00048720801
0.00048720662
0.00048720505
0.00048720344
0.00048720163
0.00048719977
0.00048719768
0.00048719553
0.00048719312
0.00048719062
0.00048718784
0.00048718494
0.00048718174
0.00048717838
0.00048717468
0.0004871708
0.00048716653
0.00048716204
0.00048715712
0.00048715193
0.00048714627
0.00048714029
0.00048713379
0.0004871269
0.00048711943
0.00048711148
0.00048710301
0.00048709386
0.00048708416
0.00048707372
0.00048706266
0.00048705077
0.00048703819
0.00048702471
0.00048701046
0.00048699525
0.00048697916
0.00048696211
0.00048694407
0.00048692502
0.00048690494
0.00048688382
0.00048686164
0.00048683842
0.00048681415
0.00048678888
0.00048676262
0.00048673544
0.00048670741
0.00048667862
0.00048664917
0.0004866192
0.00048658887
0.00048655837
0.0004865279
0.00048649772
0.00048646807
0.00048643927
0.00048641162
0.00048638546
0.00048636118
0.00048633912
0.00048631967
0.00048630322
0.00048629013
0.00048628075
0.00048627544
0.00048627446
0.00048627808
0.00048628649
0.0004862998
0.00048631807
0.00048634123
0.00048636909
0.00048640137
0.00048641251
0.00048637707
0.00048634536
0.00048631782
0.00048629479
0.00048627654
0.00048626322
0.00048625489
0.00048625149
0.00048625289
0.00048625884
0.00048626908
0.00048628323
0.00048630091
0.0004863217
0.00048634516
0.00048637086
0.00048639838
0.00048642731
0.00048645726
0.00048648789
0.00048651886
0.00048654992
0.00048658079
0.00048661127
0.00048664117
0.00048667036
0.00048669874
0.00048672629
0.00048675308
0.00048677943
0.00048680603
0.00048683409
0.00048686543
0.0004869021
0.00048694532
0.00048699421
0.00048704502
0.00048709236
0.00048713212
0.00048716357
0.00048718845
0.00048680353
0.00048762071
0.00048721389
0.00048721285
0.00048721177
0.00048721057
0.00048720934
0.00048720795
0.00048720655
0.00048720495
0.00048720332
0.00048720148
0.0004871996
0.00048719748
0.0004871953
0.00048719286
0.00048719033
0.00048718752
0.00048718458
0.00048718134
0.00048717794
0.00048717419
0.00048717026
0.00048716594
0.00048716139
0.00048715641
0.00048715115
0.00048714541
0.00048713935
0.00048713275
0.00048712576
0.00048711818
0.0004871101
0.0004871015
0.00048709219
0.00048708234
0.00048707171
0.00048706044
0.00048704833
0.00048703551
0.00048702176
0.00048700721
0.00048699167
0.00048697522
0.00048695776
0.00048693928
0.00048691975
0.00048689913
0.00048687743
0.00048685461
0.00048683069
0.00048680567
0.00048677956
0.00048675241
0.00048672428
0.00048669521
0.00048666531
0.00048663468
0.00048660347
0.00048657183
0.00048653997
0.0004865081
0.00048647646
0.00048644536
0.00048641509
0.000486386
0.00048635845
0.00048633284
0.00048630957
0.00048628906
0.00048627172
0.00048625797
0.0004862482
0.00048624278
0.00048624204
0.00048624625
0.00048625564
0.00048627035
0.00048629042
0.00048631581
0.00048634628
0.00048638154
0.00048639503
0.00048635611
0.0004863212
0.00048629079
0.00048626527
0.00048624494
0.00048622997
0.00048622042
0.00048621622
0.00048621722
0.00048622316
0.0004862337
0.00048624844
0.00048626696
0.00048628878
0.00048631341
0.00048634039
0.00048636925
0.00048639953
0.00048643085
0.0004864628
0.00048649504
0.0004865273
0.00048655928
0.00048659077
0.00048662159
0.00048665159
0.00048668066
0.0004867088
0.00048673609
0.00048676287
0.00048678986
0.00048681838