/*--------------------------------*- C++ -*----------------------------------*\
| =========                 |                                                 |
| \\      /  F ield         | foam-extend: Open Source CFD                    |
|  \\    /   O peration     | Version:     4.1                                |
|   \\  /    A nd           | Web:         http://www.foam-extend.org         |
|    \\/     M anipulation  |                                                 |
\*---------------------------------------------------------------------------*/
FoamFile
{
    version     2.0;
    format      ascii;
    class       volVectorField;
    location    "0.1";
    object      U;
}
// * * * * * * * * * * * * * * * * * * * * * * * * * * * * * * * * * * * * * //

dimensions      [0 1 -1 0 0 0 0];

internalField   nonuniform List<vector> 
16796
(
(1.0008403 -1.1348823e-05 0)
(1.0008988 -1.3044693e-05 0)
(1.0009258 -1.4710957e-05 0)
(1.0009822 -1.6563243e-05 0)
(1.0010282 -1.8438404e-05 0)
(1.0010907 -2.045941e-05 0)
(1.0011523 -2.2562507e-05 0)
(1.0012251 -2.4807994e-05 0)
(1.0013017 -2.7174987e-05 0)
(1.0013876 -2.96972e-05 0)
(1.00148 -3.2373555e-05 0)
(1.0015815 -3.5227148e-05 0)
(1.0016913 -3.8266181e-05 0)
(1.0018109 -4.1509614e-05 0)
(1.0019403 -4.4970454e-05 0)
(1.0020805 -4.8667046e-05 0)
(1.0022321 -5.2615893e-05 0)
(1.002396 -5.6836287e-05 0)
(1.0025729 -6.1347107e-05 0)
(1.0027638 -6.6168757e-05 0)
(1.0029697 -7.1321949e-05 0)
(1.0031915 -7.6828562e-05 0)
(1.0034303 -8.2711295e-05 0)
(1.0036874 -8.8993828e-05 0)
(1.0039639 -9.5700532e-05 0)
(1.0042612 -0.00010285631 0)
(1.0045807 -0.00011048668 0)
(1.0049237 -0.00011861759 0)
(1.0052919 -0.00012727541 0)
(1.0056869 -0.00013648624 0)
(1.0061103 -0.00014627586 0)
(1.006564 -0.00015666939 0)
(1.0070497 -0.00016769141 0)
(1.0075695 -0.00017936538 0)
(1.0081252 -0.00019171284 0)
(1.008719 -0.00020475301 0)
(1.0093529 -0.00021850181 0)
(1.0100292 -0.00023297167 0)
(1.0107499 -0.00024817039 0)
(1.0115173 -0.00026410069 0)
(1.0123335 -0.00028075874 0)
(1.0132008 -0.00029813351 0)
(1.0141213 -0.00031620502 0)
(1.0150969 -0.00033494359 0)
(1.0161298 -0.00035430843 0)
(1.0172216 -0.00037424643 0)
(1.018374 -0.00039469088 0)
(1.0195885 -0.00041555988 0)
(1.0208661 -0.00043675502 0)
(1.0222077 -0.00045815992 0)
(1.0236138 -0.00047963923 0)
(1.0250843 -0.00050103763 0)
(1.0266187 -0.00052217905 0)
(1.0282161 -0.00054286619 0)
(1.0298748 -0.00056288054 0)
(1.0315924 -0.00058198266 0)
(1.0333658 -0.00059991317 0)
(1.0351911 -0.00061639401 0)
(1.0370635 -0.00063113046 0)
(1.0389775 -0.00064381405 0)
(1.0409262 -0.00065412641 0)
(1.0429023 -0.00066174358 0)
(1.0448971 -0.00066634141 0)
(1.046901 -0.0006676013 0)
(1.0489037 -0.00066521745 0)
(1.0508936 -0.00065890419 0)
(1.0528588 -0.00064840466 0)
(1.0547861 -0.00063349913 0)
(1.0566621 -0.0006140149 0)
(1.0584727 -0.00058983431 0)
(1.0602039 -0.00056090282 0)
(1.0618411 -0.00052723048 0)
(1.0633703 -0.00048888835 0)
(1.0647774 -0.00044599238 0)
(1.0660489 -0.00039868587 0)
(1.0671718 -0.0003471265 0)
(1.0681335 -0.00029150933 0)
(1.0689222 -0.00023212462 0)
(1.0695272 -0.00016943558 0)
(1.0699394 -0.00010409938 0)
(1.070152 -3.6910523e-05 0)
(1.0701608 3.1312205e-05 0)
(1.0699638 9.97813e-05 0)
(1.0695615 0.00016774311 0)
(1.0689565 0.0002344651 0)
(1.0681536 0.00029924768 0)
(1.0671597 0.00036143574 0)
(1.0659836 0.00042044123 0)
(1.0646357 0.00047574839 0)
(1.0631277 0.00052693244 0)
(1.0614727 0.00057365674 0)
(1.0596845 0.00061568565 0)
(1.0577775 0.00065287496 0)
(1.0557663 0.00068517846 0)
(1.0536656 0.0007126335 0)
(1.0514898 0.00073536172 0)
(1.049253 0.00075355204 0)
(1.0469683 0.00076745727 0)
(1.0446483 0.00077737733 0)
(1.0423043 0.00078365376 0)
(1.0399468 0.00078665443 0)
(1.0375851 0.00078676707 0)
(1.0352272 0.00078438665 0)
(1.0328799 0.00077990973 0)
(1.030549 0.00077372465 0)
(1.0282391 0.00076620588 0)
(1.0259535 0.00075770404 0)
(1.0236947 0.00074853337 0)
(1.0214642 0.00073894231 0)
(1.0192631 0.00072904951 0)
(1.0170922 0.0007187035 0)
(1.0149533 0.00070721861 0)
(1.0128513 0.00069295863 0)
(1.0107981 0.00067287454 0)
(1.0088165 0.00064236753 0)
(1.0069463 0.00059615866 0)
(1.0052415 0.0005307028 0)
(1.0037639 0.00044755083 0)
(1.0025569 0.00035511726 0)
(1.001634 0.00026587717 0)
(1.0009608 0.0001895409 0)
(1.000498 0.00012821612 0)
(1.0001893 7.8446234e-05 0)
(1.0000299 3.6298642e-05 0)
(1.0008381 -3.4015582e-05 0)
(1.0008965 -3.9102082e-05 0)
(1.0009234 -4.4093295e-05 0)
(1.0009797 -4.964704e-05 0)
(1.0010256 -5.5266013e-05 0)
(1.0010879 -6.1324536e-05 0)
(1.0011493 -6.7627387e-05 0)
(1.0012219 -7.4358105e-05 0)
(1.0012983 -8.1452629e-05 0)
(1.0013841 -8.9013196e-05 0)
(1.0014762 -9.703546e-05 0)
(1.0015775 -0.00010558879 0)
(1.001687 -0.00011469739 0)
(1.0018063 -0.0001244187 0)
(1.0019354 -0.00013479204 0)
(1.0020753 -0.00014587253 0)
(1.0022265 -0.00015770921 0)
(1.00239 -0.00017035956 0)
(1.0025665 -0.00018388011 0)
(1.0027569 -0.00019833226 0)
(1.0029623 -0.00021377833 0)
(1.0031836 -0.00023028399 0)
(1.0034219 -0.00024791716 0)
(1.0036784 -0.00026674861 0)
(1.0039543 -0.0002868514 0)
(1.0042509 -0.00030830041 0)
(1.0045696 -0.00033117223 0)
(1.0049119 -0.0003555445 0)
(1.0052793 -0.00038149596 0)
(1.0056734 -0.00040910492 0)
(1.0060959 -0.0004384491 0)
(1.0065487 -0.00046960425 0)
(1.0070334 -0.00050264417 0)
(1.0075522 -0.00053763893 0)
(1.0081068 -0.00057465288 0)
(1.0086995 -0.00061374369 0)
(1.0093323 -0.00065495947 0)
(1.0100073 -0.00069833785 0)
(1.0107268 -0.00074390246 0)
(1.011493 -0.00079166164 0)
(1.012308 -0.00084160419 0)
(1.013174 -0.00089369735 0)
(1.0140932 -0.00094788169 0)
(1.0150676 -0.001004069 0)
(1.0160992 -0.0010621379 0)
(1.0171898 -0.0011219301 0)
(1.0183411 -0.001183246 0)
(1.0195545 -0.001245841 0)
(1.0208313 -0.0013094206 0)
(1.0221721 -0.0013736373 0)
(1.0235776 -0.0014380865 0)
(1.0250477 -0.0015023036 0)
(1.026582 -0.001565762 0)
(1.0281796 -0.0016278714 0)
(1.0298387 -0.001687978 0)
(1.0315571 -0.0017453647 0)
(1.0333317 -0.0017992542 0)
(1.0351587 -0.0018488128 0)
(1.0370333 -0.0018931568 0)
(1.0389498 -0.0019313609 0)
(1.0409018 -0.0019624697 0)
(1.0428816 -0.00198551 0)
(1.0448806 -0.0019995069 0)
(1.0468894 -0.0020035018 0)
(1.0488974 -0.001996573 0)
(1.0508933 -0.001977858 0)
(1.0528648 -0.00194658 0)
(1.054799 -0.0019020718 0)
(1.0566821 -0.0018438053 0)
(1.0585002 -0.0017714147 0)
(1.0602389 -0.0016847203 0)
(1.0618836 -0.0015837332 0)
(1.0634199 -0.0014686479 0)
(1.0648337 -0.001339801 0)
(1.0661113 -0.0011976272 0)
(1.0672393 -0.0010426294 0)
(1.0682051 -0.00087544338 0)
(1.0689968 -0.00069699115 0)
(1.069604 -0.00050868531 0)
(1.0700177 -0.0003124799 0)
(1.0702311 -0.00011072247 0)
(1.0702399 9.4146126e-05 0)
(1.0700421 0.00029974417 0)
(1.0696383 0.00050379815 0)
(1.069031 0.00070410451 0)
(1.0682251 0.00089856163 0)
(1.0672275 0.0010852022 0)
(1.0660471 0.0012622622 0)
(1.0646944 0.0014281947 0)
(1.0631812 0.0015817277 0)
(1.0615207 0.0017218534 0)
(1.0597268 0.0018478683 0)
(1.057814 0.0019593429 0)
(1.055797 0.0020561421 0)
(1.0536907 0.0021383811 0)
(1.0515095 0.0022064282 0)
(1.0492676 0.0022608533 0)
(1.0469781 0.0023024184 0)
(1.0446537 0.0023320265 0)
(1.0423057 0.0023507048 0)
(1.0399448 0.0023595589 0)
(1.0375801 0.0023597538 0)
(1.0352196 0.0023524757 0)
(1.0328704 0.0023389155 0)
(1.0305379 0.0023202386 0)
(1.0282269 0.0022975685 0)
(1.0259407 0.0022719568 0)
(1.0236817 0.002244346 0)
(1.0214515 0.0022154806 0)
(1.019251 0.0021857156 0)
(1.0170809 0.0021545968 0)
(1.0149432 0.0021200712 0)
(1.0128427 0.0020772419 0)
(1.0107911 0.002016987 0)
(1.0088113 0.0019255488 0)
(1.0069428 0.001787129 0)
(1.0052394 0.0015910985 0)
(1.0037628 0.0013420529 0)
(1.0025563 0.0010651218 0)
(1.0016337 0.00079763133 0)
(1.0009606 0.00056869787 0)
(1.0004978 0.00038471592 0)
(1.0001893 0.00023538062 0)
(1.0000299 0.00010892101 0)
(1.0008339 -5.6596122e-05 0)
(1.0008919 -6.5061944e-05 0)
(1.0009187 -7.3365607e-05 0)
(1.0009747 -8.2608437e-05 0)
(1.0010204 -9.1957259e-05 0)
(1.0010824 -0.00010203892 0)
(1.0011435 -0.00011252592 0)
(1.0012157 -0.00012372567 0)
(1.0012918 -0.0001355305 0)
(1.0013771 -0.00014811151 0)
(1.0014688 -0.00016146096 0)
(1.0015696 -0.00017569456 0)
(1.0016786 -0.00019085228 0)
(1.0017973 -0.00020702987 0)
(1.0019257 -0.00022429281 0)
(1.0020649 -0.00024273309 0)
(1.0022154 -0.0002624323 0)
(1.0023782 -0.00028348606 0)
(1.0025538 -0.0003059883 0)
(1.0027434 -0.0003300413 0)
(1.0029478 -0.00035574916 0)
(1.0031681 -0.00038322169 0)
(1.0034053 -0.0004125721 0)
(1.0036607 -0.00044391814 0)
(1.0039353 -0.00047738147 0)
(1.0042307 -0.00051308715 0)
(1.004548 -0.00055116319 0)
(1.0048889 -0.00059173908 0)
(1.0052547 -0.00063494593 0)
(1.0056472 -0.00068091445 0)
(1.006068 -0.00072977503 0)
(1.006519 -0.0007816548 0)
(1.0070019 -0.00083667733 0)
(1.0075186 -0.00089495974 0)
(1.0080713 -0.00095660984 0)
(1.0086619 -0.0010217247 0)
(1.0092925 -0.0010903857 0)
(1.0099653 -0.001162657 0)
(1.0106826 -0.0012385792 0)
(1.0114464 -0.0013181677 0)
(1.0122591 -0.0014014056 0)
(1.0131228 -0.00148824 0)
(1.0140397 -0.0015785743 0)
(1.0150118 -0.0016722644 0)
(1.0160413 -0.0017691104 0)
(1.0171299 -0.0018688513 0)
(1.0182793 -0.0019711574 0)
(1.0194911 -0.002075623 0)
(1.0207663 -0.0021817605 0)
(1.022106 -0.002288993 0)
(1.0235107 -0.0023966489 0)
(1.0249805 -0.0025039565 0)
(1.026515 -0.0026100402 0)
(1.0281132 -0.0027139178 0)
(1.0297737 -0.0028144999 0)
(1.0314941 -0.002910591 0)
(1.0332715 -0.0030008938 0)
(1.0351022 -0.0030840157 0)
(1.0369813 -0.0031584796 0)
(1.0389034 -0.0032227379 0)
(1.0408618 -0.0032751906 0)
(1.0428491 -0.0033142061 0)
(1.0448567 -0.0033381482 0)
(1.0468751 -0.0033454056 0)
(1.0488938 -0.0033344275 0)
(1.0509012 -0.0033037599 0)
(1.0528851 -0.0032520895 0)
(1.0548324 -0.0031782844 0)
(1.0567293 -0.0030814424 0)
(1.0585615 -0.0029609283 0)
(1.0603145 -0.0028164126 0)
(1.0619734 -0.0026478818 0)
(1.0635235 -0.0024556308 0)
(1.0649504 -0.0022402063 0)
(1.0662398 -0.0020023526 0)
(1.0673783 -0.0017429729 0)
(1.068353 -0.0014632328 0)
(1.069152 -0.001164774 0)
(1.0697647 -0.00085000337 0)
(1.0701823 -0.00052215155 0)
(1.070398 -0.00018506223 0)
(1.0704074 0.00015724814 0)
(1.0702086 0.00050081674 0)
(1.069802 0.00084182699 0)
(1.0691902 0.0011765709 0)
(1.0683783 0.0015015179 0)
(1.0673732 0.0018133652 0)
(1.066184 0.0021091539 0)
(1.0648213 0.0023862906 0)
(1.0632973 0.0026426443 0)
(1.0616253 0.0028765282 0)
(1.0598194 0.0030867679 0)
(1.0578945 0.0032726485 0)
(1.0558654 0.0034339506 0)
(1.0537472 0.0035708741 0)
(1.0515546 0.0036840439 0)
(1.0493017 0.003774422 0)
(1.047002 0.0038432931 0)
(1.0446683 0.003892176 0)
(1.0423119 0.0039227974 0)
(1.0399435 0.0039370135 0)
(1.0375723 0.0039367791 0)
(1.0352065 0.0039240832 0)
(1.0328528 0.003900921 0)
(1.030517 0.0038692433 0)
(1.0282035 0.0038309298 0)
(1.0259158 0.0037877388 0)
(1.0236561 0.0037412457 0)
(1.021426 0.0036926949 0)
(1.0192264 0.0036426811 0)
(1.0170579 0.0035904508 0)
(1.0149223 0.0035325889 0)
(1.0128245 0.0034609475 0)
(1.0107759 0.0033603476 0)
(1.0087993 0.0032078934 0)
(1.0069338 0.0029772847 0)
(1.0052332 0.0026508034 0)
(1.0037587 0.0022360479 0)
(1.0025538 0.0017747904 0)
(1.0016322 0.001329149 0)
(1.0009596 0.00094764961 0)
(1.0004973 0.00064103316 0)
(1.0001891 0.00039218431 0)
(1.0000299 0.00018148347 0)
(1.0008275 -7.9037772e-05 0)
(1.0008851 -9.0860719e-05 0)
(1.0009116 -0.00010245663 0)
(1.0009673 -0.00011536492 0)
(1.0010126 -0.00012842095 0)
(1.0010741 -0.00014250107 0)
(1.0011348 -0.00015714718 0)
(1.0012065 -0.00017278919 0)
(1.001282 -0.00018927654 0)
(1.0013667 -0.00020684856 0)
(1.0014577 -0.00022549422 0)
(1.0015578 -0.00024537505 0)
(1.001666 -0.00026654678 0)
(1.0017838 -0.00028914344 0)
(1.0019113 -0.00031325675 0)
(1.0020496 -0.00033901564 0)
(1.002199 -0.00036653428 0)
(1.0023606 -0.00039594622 0)
(1.002535 -0.00042738254 0)
(1.0027233 -0.00046098619 0)
(1.0029263 -0.00049690295 0)
(1.0031451 -0.00053528674 0)
(1.0033807 -0.0005762962 0)
(1.0036344 -0.00062009622 0)
(1.0039073 -0.00066685716 0)
(1.0042007 -0.00071675424 0)
(1.004516 -0.00076996699 0)
(1.0048547 -0.0008266772 0)
(1.0052183 -0.00088706903 0)
(1.0056084 -0.00095132603 0)
(1.0060268 -0.0010196313 0)
(1.0064751 -0.0010921635 0)
(1.0069553 -0.0011690967 0)
(1.0074692 -0.0012505964 0)
(1.0080189 -0.0013368155 0)
(1.0086065 -0.0014278917 0)
(1.009234 -0.0015239408 0)
(1.0099036 -0.0016250545 0)
(1.0106176 -0.0017312926 0)
(1.0113782 -0.0018426794 0)
(1.0121875 -0.0019591945 0)
(1.0130479 -0.0020807679 0)
(1.0139616 -0.0022072688 0)
(1.0149306 -0.0023384998 0)
(1.0159571 -0.0024741864 0)
(1.0170429 -0.0026139682 0)
(1.0181898 -0.0027573887 0)
(1.0193993 -0.002903886 0)
(1.0206727 -0.0030527826 0)
(1.022011 -0.0032032763 0)
(1.0234148 -0.0033544322 0)
(1.0248844 -0.0035051745 0)
(1.0264194 -0.0036542817 0)
(1.028019 -0.0038003817 0)
(1.0296817 -0.0039419513 0)
(1.0314055 -0.0040773169 0)
(1.0331873 -0.0042046599 0)
(1.0350236 -0.0043220263 0)
(1.0369097 -0.0044273412 0)
(1.0388401 -0.0045184273 0)
(1.0408083 -0.0045930308 0)
(1.0428069 -0.0046488501 0)
(1.0448272 -0.0046835737 0)
(1.0468598 -0.0046949211 0)
(1.0488941 -0.0046806932 0)
(1.0509186 -0.0046388227 0)
(1.0529207 -0.0045674358 0)
(1.0548872 -0.0044649093 0)
(1.0568041 -0.0043299381 0)
(1.058657 -0.004161587 0)
(1.0604308 -0.0039593456 0)
(1.0621105 -0.0037231443 0)
(1.0636809 -0.0034533531 0)
(1.0651271 -0.0031507166 0)
(1.0664345 -0.0028162994 0)
(1.0675892 -0.0024514462 0)
(1.068578 -0.0020579164 0)
(1.0693887 -0.0016381391 0)
(1.0700108 -0.0011955581 0)
(1.0704351 -0.0007346872 0)
(1.0706551 -0.00026085554 0)
(1.070666 0.00022034325 0)
(1.070466 0.00070333538 0)
(1.0700554 0.001182723 0)
(1.069437 0.0016532538 0)
(1.0686158 0.0021099344 0)
(1.0675993 0.002548096 0)
(1.0663965 0.0029635627 0)
(1.0650186 0.003352675 0)
(1.063478 0.0037124331 0)
(1.0617883 0.0040404649 0)
(1.0599641 0.0043351276 0)
(1.0580204 0.0045954271 0)
(1.0559727 0.0048210727 0)
(1.0538362 0.0050123636 0)
(1.0516259 0.0051702011 0)
(1.0493562 0.0052959593 0)
(1.0470409 0.0053914673 0)
(1.0446927 0.0054588814 0)
(1.0423234 0.0055006494 0)
(1.0399434 0.0055193976 0)
(1.0375622 0.0055178894 0)
(1.0351879 0.0054989323 0)
(1.0328274 0.0054653395 0)
(1.0304862 0.0054198588 0)
(1.0281689 0.0053651352 0)
(1.0258787 0.0053036408 0)
(1.0236178 0.0052375892 0)
(1.0213878 0.0051687287 0)
(1.0191893 0.0050978978 0)
(1.017023 0.0050240499 0)
(1.0148905 0.0049424199 0)
(1.0127965 0.0048416331 0)
(1.0107523 0.0047004939 0)
(1.0087804 0.004487021 0)
(1.0069196 0.0041644579 0)
(1.0052232 0.0037079977 0)
(1.0037521 0.0031281589 0)
(1.0025497 0.0024832003 0)
(1.0016297 0.0018598862 0)
(1.0009582 0.0013261119 0)
(1.0004966 0.00089703551 0)
(1.0001888 0.00054880642 0)
(1.0000298 0.00025397172 0)
(1.0008189 -0.00010128363 0)
(1.000876 -0.00011643483 0)
(1.0009023 -0.00013129424 0)
(1.0009574 -0.00014783713 0)
(1.0010022 -0.00016456916 0)
(1.0010632 -0.00018261481 0)
(1.0011233 -0.00020138575 0)
(1.0011942 -0.00022143358 0)
(1.001269 -0.00024256502 0)
(1.0013528 -0.00026508726 0)
(1.001443 -0.00028898604 0)
(1.0015421 -0.00031446872 0)
(1.0016492 -0.00034160692 0)
(1.001766 -0.00037057279 0)
(1.0018923 -0.00040148409 0)
(1.0020292 -0.00043450633 0)
(1.0021772 -0.00046978607 0)
(1.0023373 -0.00050749477 0)
(1.0025101 -0.00054780079 0)
(1.0026966 -0.00059088783 0)
(1.0028978 -0.00063694333 0)
(1.0031146 -0.00068616521 0)
(1.0033481 -0.00073875763 0)
(1.0035995 -0.00079493309 0)
(1.00387 -0.00085491112 0)
(1.0041609 -0.00091891723 0)
(1.0044736 -0.00098718247 0)
(1.0048095 -0.0010599411 0)
(1.0051701 -0.0011374307 0)
(1.0055571 -0.0012198887 0)
(1.0059722 -0.0013075522 0)
(1.0064171 -0.001400653 0)
(1.0068936 -0.0014994169 0)
(1.0074039 -0.0016040591 0)
(1.0079497 -0.0017147783 0)
(1.0085333 -0.0018317545 0)
(1.0091567 -0.0019551405 0)
(1.0098222 -0.0020850588 0)
(1.0105319 -0.0022215909 0)
(1.0112881 -0.0023647736 0)
(1.0120932 -0.0025145864 0)
(1.0129494 -0.0026709456 0)
(1.0138589 -0.0028336902 0)
(1.0148238 -0.003002574 0)
(1.0158464 -0.0031772524 0)
(1.0169286 -0.0033572703 0)
(1.0180722 -0.00354205 0)
(1.0192789 -0.0037308776 0)
(1.02055 -0.0039228913 0)
(1.0218866 -0.0041170685 0)
(1.0232895 -0.004312215 0)
(1.024759 -0.0045069549 0)
(1.0262948 -0.0046997229 0)
(1.0278964 -0.0048887587 0)
(1.0295623 -0.0050721049 0)
(1.0312906 -0.005247608 0)
(1.0330785 -0.0054129253 0)
(1.0349225 -0.0055655354 0)
(1.036818 -0.0057027569 0)
(1.0387596 -0.0058217718 0)
(1.0407409 -0.0059196574 0)
(1.0427544 -0.0059934243 0)
(1.0447917 -0.0060400646 0)
(1.0468432 -0.0060566048 0)
(1.0488982 -0.0060401705 0)
(1.0509451 -0.0059880518 0)
(1.0529713 -0.0058977831 0)
(1.0549632 -0.0057672165 0)
(1.0569067 -0.0055946094 0)
(1.0587868 -0.0053786914 0)
(1.0605882 -0.0051187376 0)
(1.0622954 -0.0048145919 0)
(1.0638927 -0.0044666769 0)
(1.0653647 -0.004075926 0)
(1.0666962 -0.0036437364 0)
(1.0678729 -0.0031719299 0)
(1.0688811 -0.0026629166 0)
(1.0697083 -0.0021199723 0)
(1.0703435 -0.0015476245 0)
(1.0707777 -0.00095169215 0)
(1.0710038 -0.00033900048 0)
(1.0710172 0.00028326371 0)
(1.0708158 0.00090788056 0)
(1.0704001 0.0015278217 0)
(1.0697728 0.002136234 0)
(1.0689394 0.0027266096 0)
(1.0679073 0.0032928648 0)
(1.0666863 0.0038295675 0)
(1.0652877 0.0043319593 0)
(1.0637244 0.0047961513 0)
(1.0620107 0.0052190723 0)
(1.0601615 0.0055986105 0)
(1.0581924 0.0059334973 0)
(1.0561193 0.0062233872 0)
(1.0539579 0.0064686986 0)
(1.0517235 0.0066706371 0)
(1.049431 0.0068310182 0)
(1.0470943 0.0069522492 0)
(1.0447265 0.0070371557 0)
(1.0423395 0.0070889399 0)
(1.0399439 0.0071110283 0)
(1.0375491 0.0071070208 0)
(1.0351634 0.0070805686 0)
(1.0327935 0.0070353254 0)
(1.030445 0.0069748544 0)
(1.0281224 0.0069025815 0)
(1.0258287 0.0068217049 0)
(1.0235662 0.0067350857 0)
(1.0213362 0.006644983 0)
(1.0191392 0.0065524845 0)
(1.0169757 0.0064562579 0)
(1.0148472 0.0063502006 0)
(1.0127582 0.0062197336 0)
(1.0107198 0.0060376823 0)
(1.008754 0.005763031 0)
(1.0068994 0.005348612 0)
(1.0052087 0.0047625343 0)
(1.0037424 0.0040181626 0)
(1.0025434 0.0031900939 0)
(1.0016258 0.0023895901 0)
(1.000956 0.0017038644 0)
(1.0004955 0.0011525527 0)
(1.0001884 0.00070513384 0)
(1.0000298 0.00032633262 0)
(1.0008084 -0.00012327964 0)
(1.0008647 -0.00014172232 0)
(1.0008906 -0.00015981007 0)
(1.000945 -0.00017994752 0)
(1.0009894 -0.00020031493 0)
(1.0010495 -0.00022228198 0)
(1.0011089 -0.00024513228 0)
(1.001179 -0.00026953791 0)
(1.0012528 -0.00029526347 0)
(1.0013356 -0.00032268325 0)
(1.0014247 -0.00035177999 0)
(1.0015226 -0.00038280649 0)
(1.0016284 -0.00041585015 0)
(1.0017437 -0.00045112085 0)
(1.0018685 -0.00048876212 0)
(1.0020038 -0.00052897574 0)
(1.0021501 -0.00057194066 0)
(1.0023083 -0.00061786635 0)
(1.0024791 -0.00066695856 0)
(1.0026635 -0.00071944162 0)
(1.0028623 -0.00077554447 0)
(1.0030767 -0.00083550912 0)
(1.0033076 -0.0008995854 0)
(1.0035562 -0.00096803339 0)
(1.0038237 -0.0010411217 0)
(1.0041115 -0.0011191263 0)
(1.0044208 -0.0012023305 0)
(1.0047532 -0.0012910217 0)
(1.0051102 -0.0013854918 0)
(1.0054933 -0.0014860331 0)
(1.0059043 -0.0015929377 0)
(1.0063449 -0.0017064914 0)
(1.0068171 -0.0018269734 0)
(1.0073227 -0.0019546496 0)
(1.0078637 -0.0020897669 0)
(1.0084424 -0.0022325504 0)
(1.0090607 -0.0023831924 0)
(1.009721 -0.002541849 0)
(1.0104255 -0.0027086271 0)
(1.0111765 -0.0028835797 0)
(1.0119762 -0.0030666903 0)
(1.0128271 -0.0032578664 0)
(1.0137314 -0.0034569217 0)
(1.0146914 -0.0036635666 0)
(1.0157093 -0.003877392 0)
(1.0167871 -0.0040978548 0)
(1.0179267 -0.0043242618 0)
(1.0191299 -0.0045557543 0)
(1.0203982 -0.0047912921 0)
(1.0217328 -0.005029638 0)
(1.0231346 -0.0052693444 0)
(1.024604 -0.0055087402 0)
(1.026141 -0.005745921 0)
(1.0277451 -0.0059787408 0)
(1.0294151 -0.0062048097 0)
(1.0311491 -0.0064214933 0)
(1.0329446 -0.0066259211 0)
(1.0347981 -0.0068149982 0)
(1.0367053 -0.0069854275 0)
(1.0386609 -0.0071337368 0)
(1.0406585 -0.0072563184 0)
(1.0426908 -0.0073494741 0)
(1.0447493 -0.0074094746 0)
(1.0468243 -0.0074326237 0)
(1.0489051 -0.0074153387 0)
(1.05098 -0.0073542303 0)
(1.0530361 -0.0072462013 0)
(1.0550597 -0.007088537 0)
(1.0570362 -0.006879014 0)
(1.0589504 -0.0066159837 0)
(1.0607863 -0.0062984654 0)
(1.0625279 -0.0059261798 0)
(1.0641589 -0.005499575 0)
(1.0656634 -0.0050197587 0)
(1.0670255 -0.0044884653 0)
(1.0682301 -0.0039080171 0)
(1.0692632 -0.0032815166 0)
(1.0701117 -0.0026131363 0)
(1.0707642 -0.0019085378 0)
(1.0712112 -0.0011748883 0)
(1.0714456 -0.00042055403 0)
(1.0714624 0.00034563419 0)
(1.0712595 0.0011147448 0)
(1.0708374 0.0018780502 0)
(1.070199 0.0026270247 0)
(1.06935 0.003353581 0)
(1.0682983 0.0040501598 0)
(1.0670539 0.0047100262 0)
(1.065629 0.0053272838 0)
(1.0640369 0.0058971325 0)
(1.0622925 0.0064157887 0)
(1.0604115 0.0068806745 0)
(1.0584101 0.0072902574 0)
(1.0563047 0.0076441607 0)
(1.0541116 0.0079429511 0)
(1.0518467 0.0081881768 0)
(1.0495252 0.008382134 0)
(1.0471615 0.0085278518 0)
(1.0447689 0.0086288673 0)
(1.0423594 0.0086891794 0)
(1.039944 0.0087130529 0)
(1.0375321 0.0087049606 0)
(1.0351318 0.0086694277 0)
(1.0327502 0.0086109759 0)
(1.0303925 0.0085340062 0)
(1.0280632 0.0084427442 0)
(1.0257652 0.0083411275 0)
(1.0235006 0.0082326753 0)
(1.0212705 0.0081201653 0)
(1.0190754 0.0080049424 0)
(1.0169155 0.0078853985 0)
(1.0147921 0.0077541117 0)
(1.0127093 0.0075933312 0)
(1.0106782 0.0073699562 0)
(1.0087202 0.0070340058 0)
(1.0068734 0.0065279639 0)
(1.0051899 0.005812862 0)
(1.0037296 0.0049048155 0)
(1.0025353 0.003894562 0)
(1.0016209 0.0029176556 0)
(1.0009532 0.002080537 0)
(1.0004941 0.0014073746 0)
(1.0001879 0.0008610594 0)
(1.0000297 0.00039852313 0)
(1.0007957 -0.00014497203 0)
(1.0008512 -0.00016666078 0)
(1.0008768 -0.00018793145 0)
(1.0009303 -0.00021161433 0)
(1.000974 -0.00023556806 0)
(1.0010332 -0.00026140468 0)
(1.0010917 -0.00028828098 0)
(1.0011608 -0.00031698783 0)
(1.0012335 -0.00034724807 0)
(1.0013151 -0.00037950235 0)
(1.0014028 -0.00041373058 0)
(1.0014992 -0.00045023055 0)
(1.0016036 -0.00048910544 0)
(1.0017172 -0.00053060259 0)
(1.0018402 -0.00057489129 0)
(1.0019735 -0.00062220953 0)
(1.0021177 -0.00067276857 0)
(1.0022736 -0.00072681577 0)
(1.002442 -0.00078459408 0)
(1.0026238 -0.00084636847 0)
(1.0028199 -0.00091240951 0)
(1.0030313 -0.0009830034 0)
(1.0032591 -0.0010584457 0)
(1.0035044 -0.001139044 0)
(1.0037684 -0.0012251163 0)
(1.0040525 -0.0013169896 0)
(1.0043578 -0.0014149997 0)
(1.004686 -0.0015194884 0)
(1.0050386 -0.0016308031 0)
(1.0054171 -0.0017492917 0)
(1.0058232 -0.0018753029 0)
(1.0062587 -0.002009178 0)
(1.0067256 -0.002151251 0)
(1.0072257 -0.0023018411 0)
(1.007761 -0.0024612462 0)
(1.0083338 -0.0026297394 0)
(1.0089461 -0.0028075559 0)
(1.0096002 -0.0029948893 0)
(1.0102984 -0.0031918758 0)
(1.011043 -0.0033985895 0)
(1.0118364 -0.0036150232 0)
(1.012681 -0.0038410813 0)
(1.0135792 -0.0040765585 0)
(1.0145332 -0.0043211289 0)
(1.0155454 -0.004574326 0)
(1.0166179 -0.0048355257 0)
(1.0177528 -0.0051039274 0)
(1.0189518 -0.0053785346 0)
(1.0202168 -0.0056581362 0)
(1.0215489 -0.0059412879 0)
(1.0229494 -0.0062262952 0)
(1.0244187 -0.0065111978 0)
(1.0259571 -0.0067937562 0)
(1.0275641 -0.007071442 0)
(1.029239 -0.0073414329 0)
(1.0309799 -0.0076006122 0)
(1.0327845 -0.007845576 0)
(1.0346495 -0.0080726477 0)
(1.0365707 -0.0082779016 0)
(1.038543 -0.0084571952 0)
(1.0405602 -0.008606214 0)
(1.0426149 -0.0087205248 0)
(1.0446987 -0.0087956459 0)
(1.0468019 -0.0088271223 0)
(1.0489138 -0.0088106222 0)
(1.0510223 -0.008742032 0)
(1.0531145 -0.0086175753 0)
(1.0551762 -0.0084339205 0)
(1.0571925 -0.0081883132 0)
(1.0591476 -0.0078786761 0)
(1.0610251 -0.0075037264 0)
(1.0628084 -0.0070630214 0)
(1.0644803 -0.006557005 0)
(1.0660242 -0.0059869427 0)
(1.0674235 -0.0053549082 0)
(1.0686624 -0.0046637446 0)
(1.0697261 -0.0039172855 0)
(1.0706009 -0.0031206485 0)
(1.0712748 -0.002280685 0)
(1.0717379 -0.001405966 0)
(1.0719826 -0.000506462 0)
(1.0720038 0.00040728398 0)
(1.0717993 0.0013245461 0)
(1.0713695 0.0022348119 0)
(1.0707176 0.0031277916 0)
(1.0698496 0.0039937358 0)
(1.0687738 0.0048235302 0)
(1.067501 0.0056090756 0)
(1.0660437 0.0063432846 0)
(1.0644164 0.0070204156 0)
(1.0626345 0.0076359522 0)
(1.0607146 0.0081868538 0)
(1.0586737 0.0086713352 0)
(1.0565288 0.0090890198 0)
(1.054297 0.0094406579 0)
(1.0519949 0.0097281892 0)
(1.0496381 0.0099544399 0)
(1.0472415 0.010123117 0)
(1.0448187 0.010238523 0)
(1.042382 0.010305507 0)
(1.0399425 0.010329222 0)
(1.0375098 0.010315058 0)
(1.0350922 0.010268457 0)
(1.0326963 0.010194841 0)
(1.0303276 0.010099479 0)
(1.0279902 0.0099874188 0)
(1.0256871 0.009863355 0)
(1.0234201 0.0097314789 0)
(1.02119 0.0095950972 0)
(1.0189972 0.0094558208 0)
(1.0168416 0.0093117763 0)
(1.0147244 0.0091542403 0)
(1.0126493 0.0089623238 0)
(1.0106268 0.0086970547 0)
(1.0086783 0.008299562 0)
(1.006841 0.0077020519 0)
(1.0051662 0.0068584941 0)
(1.0037135 0.0057876595 0)
(1.0025249 0.0045962168 0)
(1.0016146 0.0034437827 0)
(1.0009496 0.0024559122 0)
(1.0004923 0.001661352 0)
(1.0001873 0.00101649 0)
(1.0000296 0.00047050073 0)
(1.000781 -0.00016630639 0)
(1.0008355 -0.00019118836 0)
(1.0008606 -0.00021559019 0)
(1.0009132 -0.00024276119 0)
(1.0009561 -0.00027024355 0)
(1.0010143 -0.00029988786 0)
(1.0010718 -0.00033072613 0)
(1.0011396 -0.00036366621 0)
(1.001211 -0.00039838991 0)
(1.0012912 -0.0004354034 0)
(1.0013774 -0.00047468402 0)
(1.0014722 -0.00051657424 0)
(1.0015747 -0.000561193 0)
(1.0016864 -0.00060882462 0)
(1.0018072 -0.00065966389 0)
(1.0019383 -0.0007139847 0)
(1.0020801 -0.00077203044 0)
(1.0022334 -0.00083408608 0)
(1.002399 -0.00090043168 0)
(1.0025778 -0.00097137278 0)
(1.0027707 -0.0010472215 0)
(1.0029787 -0.0011283083 0)
(1.0032029 -0.0012149744 0)
(1.0034443 -0.0013075754 0)
(1.0037042 -0.0014064793 0)
(1.0039839 -0.0015120648 0)
(1.0042847 -0.0016247212 0)
(1.004608 -0.001744845 0)
(1.0049554 -0.0018728394 0)
(1.0053285 -0.0020091095 0)
(1.005729 -0.0021540614 0)
(1.0061587 -0.0023080945 0)
(1.0066193 -0.0024715997 0)
(1.007113 -0.0026449525 0)
(1.0076417 -0.0028285045 0)
(1.0082076 -0.0030225798 0)
(1.0088128 -0.0032274604 0)
(1.0094597 -0.0034433816 0)
(1.0101506 -0.0036705144 0)
(1.0108878 -0.0039089593 0)
(1.0116739 -0.0041587246 0)
(1.0125111 -0.0044197183 0)
(1.0134021 -0.0046917233 0)
(1.0143492 -0.0049743853 0)
(1.0153547 -0.0052671886 0)
(1.016421 -0.0055694368 0)
(1.0175502 -0.0058802304 0)
(1.0187444 -0.0061984445 0)
(1.0200054 -0.0065227067 0)
(1.0213346 -0.0068513747 0)
(1.0227334 -0.0071825155 0)
(1.0242025 -0.0075138869 0)
(1.0257424 -0.0078429202 0)
(1.0273529 -0.008166708 0)
(1.0290333 -0.0084819977 0)
(1.0307821 -0.0087851885 0)
(1.0325971 -0.0090723397 0)
(1.0344754 -0.0093391837 0)
(1.0364129 -0.0095811535 0)
(1.0384047 -0.0097934168 0)
(1.0404446 -0.0099709289 0)
(1.0425254 -0.010108491 0)
(1.0446387 -0.010200834 0)
(1.0467749 -0.010242701 0)
(1.048923 -0.010228965 0)
(1.0510709 -0.010154734 0)
(1.0532053 -0.010015496 0)
(1.0553117 -0.0098072425 0)
(1.0573748 -0.0095266275 0)
(1.0593781 -0.0091710852 0)
(1.0613046 -0.0087389756 0)
(1.0631369 -0.0082296434 0)
(1.0648572 -0.0076434905 0)
(1.0664478 -0.0069819161 0)
(1.0678914 -0.0062473271 0)
(1.0691712 -0.0054430994 0)
(1.0702714 -0.0045738298 0)
(1.0711777 -0.0036456287 0)
(1.0718775 -0.0026666009 0)
(1.07236 -0.0016467948 0)
(1.0726173 -0.00059787368 0)
(1.072644 0.00046781142 0)
(1.0724376 0.0015376303 0)
(1.0719987 0.0025991765 0)
(1.0713308 0.0036402839 0)
(1.0704401 0.0046494404 0)
(1.0693357 0.0056158813 0)
(1.0680288 0.0065300708 0)
(1.0665331 0.0073836685 0)
(1.0648637 0.008169958 0)
(1.0630372 0.0088836683 0)
(1.0610709 0.0095213025 0)
(1.0589828 0.01008084 0)
(1.0567911 0.010561943 0)
(1.0545135 0.010965593 0)
(1.0521671 0.011294183 0)
(1.0497686 0.011551128 0)
(1.047333 0.011740885 0)
(1.0448745 0.011868584 0)
(1.0424058 0.011939991 0)
(1.0399381 0.011961203 0)
(1.0374811 0.011938587 0)
(1.0350429 0.011878542 0)
(1.0326304 0.011787436 0)
(1.0302488 0.011671437 0)
(1.0279022 0.011536441 0)
(1.0255932 0.011387921 0)
(1.0233235 0.011230755 0)
(1.0210937 0.011068791 0)
(1.0189037 0.010903914 0)
(1.0167534 0.010734 0)
(1.0146434 0.010549044 0)
(1.0125774 0.01032506 0)
(1.0105654 0.010017271 0)
(1.008628 0.0095580048 0)
(1.0068019 0.0088692728 0)
(1.0051377 0.0078980027 0)
(1.0036939 0.0066655118 0)
(1.0025123 0.0052941548 0)
(1.0016069 0.0039673352 0)
(1.0009453 0.0028295729 0)
(1.0004902 0.0019142291 0)
(1.0001865 0.0011712834 0)
(1.0000295 0.00054220416 0)
(1.0007644 -0.00018723114 0)
(1.0008177 -0.000215246 0)
(1.0008423 -0.00024271935 0)
(1.0008939 -0.00027331284 0)
(1.0009359 -0.00030425737 0)
(1.0009929 -0.00033763795 0)
(1.0010491 -0.00037236416 0)
(1.0011156 -0.00040945931 0)
(1.0011856 -0.00044856522 0)
(1.0012641 -0.00049025255 0)
(1.0013486 -0.00053449601 0)
(1.0014414 -0.00058168174 0)
(1.0015419 -0.0006319442 0)
(1.0016514 -0.0006856045 0)
(1.0017698 -0.00074288305 0)
(1.0018984 -0.00080408941 0)
(1.0020374 -0.00086949884 0)
(1.0021877 -0.00093943365 0)
(1.0023501 -0.001014211 0)
(1.0025256 -0.0010941769 0)
(1.0027148 -0.0011796848 0)
(1.002919 -0.0012711094 0)
(1.003139 -0.0013688381 0)
(1.003376 -0.0014732749 0)
(1.0036312 -0.0015848378 0)
(1.003906 -0.0017039578 0)
(1.0042015 -0.0018310784 0)
(1.0045193 -0.0019666519 0)
(1.0048609 -0.0021111391 0)
(1.0052278 -0.0022650034 0)
(1.0056218 -0.0024287103 0)
(1.0060447 -0.0026027185 0)
(1.0064984 -0.0027874789 0)
(1.0069847 -0.0029834262 0)
(1.0075058 -0.003190969 0)
(1.0080639 -0.0034104868 0)
(1.008661 -0.0036423126 0)
(1.0092997 -0.0038867288 0)
(1.0099822 -0.0041439465 0)
(1.0107109 -0.004414099 0)
(1.0114885 -0.0046972173 0)
(1.0123173 -0.0049932209 0)
(1.0132 -0.0053018894 0)
(1.014139 -0.0056228487 0)
(1.0151368 -0.0059555438 0)
(1.016196 -0.0062992162 0)
(1.0173187 -0.0066528784 0)
(1.0185072 -0.0070152878 0)
(1.0197635 -0.0073849212 0)
(1.0210892 -0.0077599481 0)
(1.0224859 -0.0081382065 0)
(1.0239547 -0.0085171803 0)
(1.0254961 -0.0088939785 0)
(1.0271103 -0.0092653197 0)
(1.0287967 -0.0096275229 0)
(1.0305544 -0.0099765024 0)
(1.0323812 -0.010307775 0)