# vtk DataFile Version 2.0
triSurface
ASCII
DATASET POLYDATA
POINTS 206 float
 0.98019624 0.0040032629 0 1 0.00126 0 1 0.00126 0.1 0.98019624 0.0040032629 0.1 0.86120712 0.019200653 0 0.88105656 0.016810091 0 0.88105656 0.016810091 0.1 0.86120712 0.019200653 0.1 0.8413507 0.021532484 0 0.8413507 0.021532484 0.1
0.82148891 0.023818117 0 0.82148891 0.023818117 0.1 0.80162097 0.026049723 0 0.80162097 0.026049723 0.1 0.78174781 0.028234309 0 0.78174781 0.028234309 0.1 0.76186844 0.030361683 0 0.76186844 0.030361683 0.1 0.74198324 0.032433774 0 0.74198324 0.032433774 0.1
0.44306439 0.056161034 0 0.46302988 0.055115106 0 0.46302988 0.055115106 0.1 0.44306439 0.056161034 0.1 0.70219693 0.036421895 0 0.72209332 0.034460135 0 0.72209332 0.034460135 0.1 0.70219693 0.036421895 0.1 0.68229618 0.038338986 0 0.68229618 0.038338986 0.1
0.6623902 0.040200888 0 0.6623902 0.040200888 0.1 0.64247824 0.041997766 0 0.64247824 0.041997766 0.1 0.62256108 0.043736092 0 0.62256108 0.043736092 0.1 0.60263909 0.045418126 0 0.60263909 0.045418126 0.1 0.5827114 0.04703119 0 0.5827114 0.04703119 0.1
0.56277819 0.048574515 0 0.56277819 0.048574515 0.1 0.54283978 0.050049152 0 0.54283978 0.050049152 0.1 0.52289558 0.051443183 0 0.52289558 0.051443183 0.1 0.50294569 0.052753297 0 0.50294569 0.052753297 0.1 0.48299045 0.053979305 0 0.48299045 0.053979305 0.1
0.94056301 0.0093004997 0 0.96038462 0.0066893536 0 0.96038462 0.0066893536 0.1 0.94056301 0.0093004997 0.1 0.90089979 0.014368502 0 0.90089979 0.014368502 0.1 0.92073544 0.011866113 0 0.92073544 0.011866113 0.1 0.026771373 -0.026977979 0 0.0096539179 -0.016754833 0
0.0096539179 -0.016754833 0.1 0.026771373 -0.026977979 0.1 0.045433877 -0.034118224 0 0.045433877 -0.034118224 0.1 0.42309306 0.057088285 0 0.42309306 0.057088285 0.1 0.40311716 0.057911572 0 0.40311716 0.057911572 0.1 0.38313672 0.058615615 0 0.38313672 0.058615615 0.1
0.36315209 0.0591885 0 0.36315209 0.0591885 0.1 0.34316389 0.05961915 0 0.34316389 0.05961915 0.1 0.32317304 0.05990007 0 0.32317304 0.05990007 0.1 0.30318056 0.060016875 0 0.30318056 0.060016875 0.1 0.28318787 0.059954009 0 0.28318787 0.059954009 0.1
0.2631967 0.059698296 0 0.2631967 0.059698296 0.1 0.24320945 0.059228086 0 0.24320945 0.059228086 0.1 0.22322904 0.058526093 0 0.22322904 0.058526093 0.1 0.20325976 0.05755815 0 0.20325976 0.05755815 0.1 0.1833065 0.056303215 0 0.1833065 0.056303215 0.1
0.16337651 0.054721887 0 0.16337651 0.054721887 0.1 0.14347997 0.052765172 0 0.14347997 0.052765172 0.1 0.12363152 0.050370284 0 0.12363152 0.050370284 0.1 0.1038517 0.047463765 0 0.1038517 0.047463765 0.1 0.08417528 0.043926957 0 0.08417528 0.043926957 0.1
0.06466433 0.039572012 0 0.06466433 0.039572012 0.1 0.045433818 0.03411838 0 0.045433818 0.03411838 0.1 0.026771473 0.026978025 0 0.026771473 0.026978025 0.1 0.0096540027 0.016754902 0 0.0096540027 0.016754902 0.1 2.5000001e-06 5.4829693e-08 0 2.5000001e-06 5.4829693e-08 0.1
0.064664335 -0.039572013 0 0.064664335 -0.039572013 0.1 0.084175285 -0.043926958 0 0.084175285 -0.043926958 0.1 0.1038517 -0.047463765 0 0.1038517 -0.047463765 0.1 0.12363152 -0.050370284 0 0.12363152 -0.050370284 0.1 0.14347997 -0.052765172 0 0.14347997 -0.052765172 0.1
0.16337652 -0.054721888 0 0.16337652 -0.054721888 0.1 0.1833065 -0.056303215 0 0.1833065 -0.056303215 0.1 0.20325976 -0.05755815 0 0.20325976 -0.05755815 0.1 0.22322905 -0.058526093 0 0.22322905 -0.058526093 0.1 0.24320946 -0.059228086 0 0.24320946 -0.059228086 0.1
0.2631967 -0.059698296 0 0.2631967 -0.059698296 0.1 0.28318787 -0.059954009 0 0.28318787 -0.059954009 0.1 0.30318056 -0.060016875 0 0.30318056 -0.060016875 0.1 0.32317305 -0.05990007 0 0.32317305 -0.05990007 0.1 0.3431639 -0.059619149 0 0.3431639 -0.059619149 0.1
0.36315209 -0.059188499 0 0.36315209 -0.059188499 0.1 0.38313673 -0.058615615 0 0.38313673 -0.058615615 0.1 0.40311717 -0.057911572 0 0.40311717 -0.057911572 0.1 0.42309306 -0.057088284 0 0.42309306 -0.057088284 0.1 0.4430644 -0.056161033 0 0.4430644 -0.056161033 0.1
0.46302988 -0.055115105 0 0.46302988 -0.055115105 0.1 0.48299045 -0.053979305 0 0.48299045 -0.053979305 0.1 0.50294569 -0.052753297 0 0.50294569 -0.052753297 0.1 0.52289558 -0.051443183 0 0.52289558 -0.051443183 0.1 0.54283978 -0.050049152 0 0.54283978 -0.050049152 0.1
0.56277819 -0.048574515 0 0.56277819 -0.048574515 0.1 0.58271141 -0.04703119 0 0.58271141 -0.04703119 0.1 0.6026391 -0.045418126 0 0.6026391 -0.045418126 0.1 0.62256108 -0.043736092 0 0.62256108 -0.043736092 0.1 0.64247824 -0.041997766 0 0.64247824 -0.041997766 0.1
0.6623902 -0.040200888 0 0.6623902 -0.040200888 0.1 0.68229618 -0.038338986 0 0.68229618 -0.038338986 0.1 0.70219693 -0.036421895 0 0.70219693 -0.036421895 0.1 0.72209332 -0.034460135 0 0.72209332 -0.034460135 0.1 0.74198324 -0.032433774 0 0.74198324 -0.032433774 0.1
0.76186845 -0.030361683 0 0.76186845 -0.030361683 0.1 0.78174781 -0.028234309 0 0.78174781 -0.028234309 0.1 0.80162097 -0.026049723 0 0.80162097 -0.026049723 0.1 0.82148891 -0.023818117 0 0.82148891 -0.023818117 0.1 0.8413507 -0.021532484 0 0.8413507 -0.021532484 0.1
0.86120712 -0.019200653 0 0.86120712 -0.019200653 0.1 0.88105656 -0.016810091 0 0.88105656 -0.016810091 0.1 0.90089979 -0.014368502 0 0.90089979 -0.014368502 0.1 0.92073544 -0.011866113 0 0.92073544 -0.011866113 0.1 0.94056301 -0.0093004997 0 0.94056301 -0.0093004997 0.1
0.96038462 -0.0066893535 0 0.96038462 -0.0066893535 0.1 0.98019624 -0.0040032629 0 0.98019624 -0.0040032629 0.1 1 -0.00126 0 1 -0.00126 0.1
POLYGONS 204 816
 3 0 2 1 3 2 0 3 3 4 6 5 3 6 4 7 3 8 7 4 3 7 8 9 3 10 9 8 3 9 10 11 3 12 11 10 3 11 12 13
3 14 13 12 3 13 14 15 3 16 15 14 3 15 16 17 3 18 17 16 3 17 18 19 3 20 22 21 3 22 20 23 3 24 26 25 3 26 24 27
3 28 27 24 3 27 28 29 3 30 29 28 3 29 30 31 3 32 31 30 3 31 32 33 3 34 33 32 3 33 34 35 3 36 35 34 3 35 36 37
3 38 37 36 3 37 38 39 3 40 39 38 3 39 40 41 3 42 41 40 3 41 42 43 3 44 43 42 3 43 44 45 3 46 45 44 3 45 46 47
3 48 47 46 3 47 48 49 3 21 49 48 3 49 21 22 3 25 19 18 3 19 25 26 3 50 52 51 3 52 50 53 3 5 55 54 3 55 5 6
3 51 3 0 3 3 51 52 3 56 53 50 3 53 56 57 3 54 57 56 3 57 54 55 3 58 60 59 3 60 58 61 3 62 61 58 3 61 62 63
3 64 23 20 3 23 64 65 3 66 65 64 3 65 66 67 3 68 67 66 3 67 68 69 3 70 69 68 3 69 70 71 3 72 71 70 3 71 72 73
3 74 73 72 3 73 74 75 3 76 75 74 3 75 76 77 3 78 77 76 3 77 78 79 3 80 79 78 3 79 80 81 3 82 81 80 3 81 82 83
3 84 83 82 3 83 84 85 3 86 85 84 3 85 86 87 3 88 87 86 3 87 88 89 3 90 89 88 3 89 90 91 3 92 91 90 3 91 92 93
3 94 93 92 3 93 94 95 3 96 95 94 3 95 96 97 3 98 97 96 3 97 98 99 3 100 99 98 3 99 100 101 3 102 101 100 3 101 102 103
3 104 103 102 3 103 104 105 3 106 105 104 3 105 106 107 3 108 107 106 3 107 108 109 3 59 109 108 3 109 59 60 3 110 63 62 3 63 110 111
3 112 111 110 3 111 112 113 3 114 113 112 3 113 114 115 3 116 115 114 3 115 116 117 3 118 117 116 3 117 118 119 3 120 119 118 3 119 120 121
3 122 121 120 3 121 122 123 3 124 123 122 3 123 124 125 3 126 125 124 3 125 126 127 3 128 127 126 3 127 128 129 3 130 129 128 3 129 130 131
3 132 131 130 3 131 132 133 3 134 133 132 3 133 134 135 3 136 135 134 3 135 136 137 3 138 137 136 3 137 138 139 3 140 139 138 3 139 140 141
3 142 141 140 3 141 142 143 3 144 143 142 3 143 144 145 3 146 145 144 3 145 146 147 3 148 147 146 3 147 148 149 3 150 149 148 3 149 150 151
3 152 151 150 3 151 152 153 3 154 153 152 3 153 154 155 3 156 155 154 3 155 156 157 3 158 157 156 3 157 158 159 3 160 159 158 3 159 160 161
3 162 161 160 3 161 162 163 3 164 163 162 3 163 164 165 3 166 165 164 3 165 166 167 3 168 167 166 3 167 168 169 3 170 169 168 3 169 170 171
3 172 171 170 3 171 172 173 3 174 173 172 3 173 174 175 3 176 175 174 3 175 176 177 3 178 177 176 3 177 178 179 3 180 179 178 3 179 180 181
3 182 181 180 3 181 182 183 3 184 183 182 3 183 184 185 3 186 185 184 3 185 186 187 3 188 187 186 3 187 188 189 3 190 189 188 3 189 190 191
3 192 191 190 3 191 192 193 3 194 193 192 3 193 194 195 3 196 195 194 3 195 196 197 3 198 197 196 3 197 198 199 3 200 199 198 3 199 200 201
3 202 201 200 3 201 202 203 3 204 203 202 3 203 204 205
CELL_DATA 204
FIELD attributes 1
region 1 204 float
 0 0 0 0 0 0 0 0 0 0
0 0 0 0 0 0 0 0 0 0
0 0 0 0 0 0 0 0 0 0
0 0 0 0 0 0 0 0 0 0
0 0 0 0 0 0 0 0 0 0
0 0 0 0 0 0 0 0 0 0
0 0 0 0 0 0 0 0 0 0
0 0 0 0 0 0 0 0 0 0
0 0 0 0 0 0 0 0 0 0
0 0 0 0 0 0 0 0 0 0
0 0 0 0 0 0 0 0 0 0
0 0 0 0 0 0 0 0 0 0
0 0 0 0 0 0 0 0 0 0
0 0 0 0 0 0 0 0 0 0
0 0 0 0 0 0 0 0 0 0
0 0 0 0 0 0 0 0 0 0
0 0 0 0 0 0 0 0 0 0
0 0 0 0 0 0 0 0 0 0
0 0 0 0 0 0 0 0 0 0
0 0 0 0 0 0 0 0 0 0
0 0 0 0
