/*--------------------------------*- C++ -*----------------------------------*\
| =========                 |                                                 |
| \\      /  F ield         | foam-extend: Open Source CFD                    |
|  \\    /   O peration     | Version:     4.1                                |
|   \\  /    A nd           | Web:         http://www.foam-extend.org         |
|    \\/     M anipulation  |                                                 |
\*---------------------------------------------------------------------------*/
FoamFile
{
    version     2.0;
    format      ascii;
    class       volScalarField;
    location    "0.1";
    object      p;
}
// * * * * * * * * * * * * * * * * * * * * * * * * * * * * * * * * * * * * * //

dimensions      [0 2 -2 0 0 0 0];

internalField   nonuniform List<scalar> 
16796
(
-1.7360051
-3.8556473
-6.0682032
-8.3039374
-10.577215
-12.897884
-15.276232
-17.722744
-20.248163
-22.86352
-25.580174
-28.409851
-31.364678
-34.457222
-37.700528
-41.108152
-44.694202
-48.473366
-52.460953
-56.672919
-61.1259
-65.837236
-70.825001
-76.108016
-81.705869
-87.638921
-93.928314
-100.59596
-107.66453
-115.15743
-123.09875
-131.51323
-140.42621
-149.86347
-159.8512
-170.41581
-181.58381
-193.3816
-205.83526
-218.97026
-232.8112
-247.38144
-262.70271
-278.79468
-295.67448
-313.35611
-331.84986
-351.16165
-371.2923
-392.23674
-413.9832
-436.51231
-459.79619
-483.7975
-508.4685
-533.75004
-559.5707
-585.84584
-612.47686
-639.35049
-666.33828
-693.29628
-720.06496
-746.46944
-772.32003
-797.41322
-821.533
-844.45274
-865.93744
-885.74661
-903.63748
-919.36878
-932.70481
-943.4199
-951.30295
-956.16215
-957.82984
-956.16713
-951.06745
-942.4597
-930.31109
-914.62898
-895.46176
-872.89871
-847.06881
-818.13852
-786.30874
-751.81081
-714.90203
-675.86058
-634.98019
-592.56478
-548.92306
-504.36351
-459.1897
-413.69605
-368.16428
-322.86042
-278.03245
-233.90869
-190.69664
-148.58248
-107.73107
-68.286339
-30.372077
5.9069798
40.463865
73.227914
104.1432
133.16691
160.26771
185.42411
208.62293
229.85783
249.12806
266.43705
281.79048
295.19457
306.65813
316.20119
323.85286
329.59476
333.27142
334.75712
-1.7325497
-3.8479514
-6.0561145
-8.2874186
-10.556204
-12.872303
-15.245984
-17.687719
-20.208233
-22.81854
-25.529983
-28.354272
-31.303517
-34.390269
-37.627557
-41.028922
-44.608457
-48.380835
-52.361352
-56.56595
-61.011255
-65.714597
-70.694041
-75.968403
-81.557268
-87.480998
-93.760737
-100.41841
-107.47669
-114.959
-122.88948
-131.29288
-140.19458
-149.62043
-159.59666
-170.14977
-181.30635
-193.09291
-205.53563
-218.66014
-232.49118
-247.05229
-262.36539
-278.45039
-295.32464
-313.00242
-331.49432
-350.80658
-370.94036
-391.89095
-413.64696
-436.18942
-459.49086
-483.51435
-508.21255
-533.52672
-559.38578
-585.70544
-612.38735
-639.31846
-666.37044
-693.39932
-720.24546
-746.7337
-772.67394
-797.86202
-822.08115
-845.10367
-866.69339
-886.6084
-904.60435
-920.43821
-933.87243
-944.67939
-952.64602
-957.57857
-959.30751
-957.6925
-952.62591
-944.03557
-931.88788
-916.18979
-896.98964
-874.3771
-848.48188
-819.4716
-787.54859
-752.94594
-715.92288
-676.75967
-635.7522
-593.20653
-549.43347
-504.74346
-459.44184
-413.82463
-368.1749
-322.75977
-277.8281
-233.60879
-190.30974
-148.11728
-107.19625
-67.690383
-29.723147
6.601165
41.196111
73.991615
104.93238
133.97623
161.0925
186.26033
209.46716
230.70725
249.9804
267.29054
282.64383
296.04688
307.50889
317.05017
324.70011
330.44055
334.11621
335.60149
-1.7257644
-3.8327387
-6.032142
-8.2546114
-10.514439
-12.821426
-15.185807
-17.618022
-20.128763
-22.729011
-25.430077
-28.243638
-31.181772
-34.256998
-37.482315
-40.871231
-44.43781
-48.196698
-52.163164
-56.353125
-60.783184
-65.470654
-70.433584
-75.690778
-81.261818
-87.167064
-93.427671
-100.06557
-107.10349
-114.56487
-122.47389
-130.85539
-139.73482
-149.13814
-159.0917
-169.62216
-180.75626
-192.52074
-204.942
-218.04594
-231.85762
-246.40092
-261.69817
-277.7697
-294.63336
-312.30396
-330.79267
-350.10636
-370.24685
-391.21018
-412.9857
-435.55522
-458.89207
-482.96015
-507.7129
-533.09236
-559.02818
-585.4367
-612.22011
-639.26576
-666.44553
-693.61548
-720.61571
-747.27054
-773.38901
-798.76576
-823.1824
-846.40928
-868.20783
-888.33336
-906.53837
-922.57638
-936.20613
-947.19613
-955.32935
-960.4081
-962.25909
-960.7388
-955.73713
-947.17972
-935.0314
-919.29828
-900.02873
-877.31323
-851.28312
-822.10841
-789.99446
-755.17798
-717.92221
-678.5117
-637.24675
-594.43781
-550.39991
-505.44747
-459.88943
-414.02495
-368.13979
-322.50323
-277.36578
-232.9575
-189.48694
-147.14071
-106.08351
-66.458615
-28.388772
8.0226737
42.690388
75.545518
106.53406
135.61519
162.75954
187.94758
211.168
232.41624
251.69323
269.00391
284.35536
297.75503
309.21282
318.74967
326.39545
332.13244
335.80578
337.29007
-1.7155663
-3.8099088
-5.9961736
-8.205392
-10.451783
-12.745099
-15.095528
-17.513458
-20.009532
-22.594683
-25.280173
-28.077629
-30.999082
-34.057001
-37.264339
-40.634558
-44.181677
-47.920299
-51.865652
-56.033617
-60.440764
-65.104375
-70.042477
-75.273858
-80.81809
-86.695535
-92.927359
-99.535523
-106.54278
-113.97264
-121.84936
-130.19788
-139.04377
-148.41314
-158.33253
-168.82881
-179.92902
-191.66016
-204.04901
-217.12188
-230.90428
-245.42064
-260.69385
-276.74492
-293.59243
-311.25199
-329.73564
-349.05122
-369.20156
-390.18378
-411.98836
-434.59832
-457.9882
-482.1231
-506.9577
-532.4352
-558.48633
-585.02843
-611.9645
-639.18249
-666.55463
-693.93701
-721.16938
-748.07527
-774.46244
-800.12373
-824.83835
-848.37367
-870.48754
-890.93107
-909.45205
-925.79878
-939.7244
-950.99158
-959.37736
-964.67812
-966.71487
-965.33925
-960.4372
-951.93098
-939.78297
-923.99802
-904.62446
-881.75398
-855.52041
-826.09735
-793.69482
-758.55497
-720.94719
-681.16253
-639.50803
-596.30081
-551.86236
-506.51311
-460.56746
-414.32938
-368.08866
-322.11786
-276.66996
-231.97675
-188.2478
-145.67007
-104.40803
-64.604267
-26.380384
10.161711
44.938377
77.882629
108.94243
138.07898
165.26493
190.48272
213.72294
234.98285
254.26503
271.57597
286.92416
300.31828
311.76932
321.29913
328.93834
334.66991
338.33957
339.82231
-1.7019712
-3.7795167
-5.9483075
-8.1399038
-10.368426
-12.643563
-14.975437
-17.374371
-19.850942
-22.416017
-25.080795
-27.856834
-30.756102
-33.791006
-36.974432
-40.319783
-43.841017
-47.55268
-51.469947
-55.608647
-59.985305
-64.617166
-69.522223
-74.719242
-80.227782
-86.068205
-92.261693
-98.830237
-105.79664
-113.18449
-121.01814
-129.32266
-138.12379
-147.44784
-157.32159
-167.7722
-178.82706
-190.51358
-202.859
-215.89018
-229.63324
-244.1133
-259.35405
-275.37738
-292.20282
-309.84706
-328.32332
-347.64068
-367.80337
-388.80993
-410.65238
-433.31531
-456.77491
-480.99792
-505.94066
-531.5479
-557.75187
-584.47122
-611.61011
-639.05731
-666.68556
-694.35101
-721.89301
-749.13407
-775.88028
-801.92209
-827.03555
-850.98407
-873.52068
-894.39092
-913.33619
-930.0978
-944.42134
-956.0616
-964.78758
-970.38762
-972.67506
-971.49485
-966.72746
-958.29058
-946.14325
-930.2886
-910.77489
-887.6955
-861.1876
-831.42973
-798.63821
-763.06266
-724.98076
-684.69246
-642.51389
-598.77124
-553.79471
-507.91285
-461.44743
-414.70885
-367.99232
-321.57473
-275.71237
-230.63927
-186.5663
-143.68082
-102.14695
-62.106252
-23.67877
13.035584
47.955486
81.016489
112.16923
141.37764
168.6171
193.87271
217.13761
238.41147
257.69912
275.00912
290.35181
303.73753
315.17873
324.69846
332.32837
338.05229
341.71678
343.19736
-1.6851253
-3.7417424
-5.8887367
-8.0583477
-10.264575
-12.517028
-14.825748
-17.200975
-19.653206
-22.193225
-24.832148
-27.581453
-30.453026
-33.459193
-36.612762
-39.927057
-43.415963
-47.093953
-50.976132
-55.078269
-59.41683
-64.009009
-68.87276
-74.026819
-79.490729
-85.284849
-91.430378
-97.949345
-104.86462
-112.19987
-119.97958
-128.22898
-136.974
-146.24121
-156.05769
-166.45098
-177.44887
-189.07929
-201.37006
-214.34871
-228.04213
-242.4763
-257.6759
-273.66391
-290.46107
-308.08542
-326.55164
-345.87039
-366.04761
-387.08366
-408.97249
-431.70069
-455.24649
-479.57875
-504.65582
-530.42451
-556.81894
-583.75948
-611.15173
-638.88558
-666.83446
-694.85469
-722.7851
-750.44701
-777.6445
-804.16505
-829.78079
-854.25018
-877.32023
-898.72942
-918.21118
-935.4979
-950.32565
-962.43916
-971.59718
-977.57785
-980.18469
-979.25393
-974.65899
-966.31164
-954.16663
-938.2248
-918.53434
-895.19074
-868.33547
-838.15338
-804.86887
-768.74113
-730.05848
-689.13226
-646.29024
-601.87016
-556.21334
-509.65867
-462.53726
-415.16764
-367.85183
-320.8722
-274.48911
-228.93937
-184.43539
-141.16497
-99.291694
-58.955731
-20.275087
16.652914
51.749929
84.954768
116.22149
145.51748
172.8216
198.12231
221.41598
242.70532
261.99799
279.30514
294.63946
308.01338
319.44113
328.94732
336.56484
342.27862
345.93628
347.414
-1.6647613
-3.6963051
-5.8172123
-7.960516
-10.140065
-12.365375
-14.646386
-16.993243
-19.416342
-21.92637
-24.534342
-27.251641
-30.090053
-33.061808
-36.179617
-39.456713
-42.906887
-46.544527
-50.384654
-54.442958
-58.735837
-63.280424
-68.094622
-73.197127
-78.60746
-84.345976
-90.433892
-96.893277
-103.74707
-111.01905
-118.73383
-126.91684
-135.59425
-144.79291
-154.54027
-164.86428
-175.79325
-187.35571
-199.58018
-212.49496
-226.12788
-240.50595
-255.65501
-271.59936
-288.3612
-305.96016
-324.41268
-343.73135
-363.92416
-384.99366
-406.93613
-429.74058
-453.38776
-477.84905
-503.08535
-529.04594
-555.66728
-582.87186
-610.56711
-638.64437
-666.97794
-695.42444
-723.82222
-751.99125
-779.73322
-806.83217
-833.05555
-858.15586
-881.87288
-903.9366
-924.07069
-941.99676
-957.43919
-970.13043
-979.81665
-986.26343
-989.26216
-988.6382
-984.2562
-976.02053
-963.88058
-947.83436
-927.92988
-904.26523
-876.98718
-846.28835
-812.40315
-775.60258
-736.18812
-694.48513
-650.83574
-605.59192
-559.1086
-511.73736
-463.82066
-415.68693
-367.64646
-319.98816
-272.97728
-226.85386
-181.83206
-138.10008
-95.820714
-55.132344
-16.150372
21.031115
56.33748
89.711549
121.11158
150.50921
177.88753
203.23909
226.56419
247.86922
267.16526
284.4666
299.78873
313.1466
324.55663
334.04523
341.64681
347.34761
350.99654
352.47065
-1.6413827
-3.643833
-5.7344197
-7.847137
-9.9956664
-12.189412
-14.438202
-16.752065
-19.141283
-21.616426
-24.188397
-26.868461
-29.668291
-32.600003
-35.676196
-38.909993
-42.315079
-45.905736
-49.69689
-53.704139
-57.943796
-62.432921
-67.189356
-72.23175
-77.579595
-83.253238
-89.273908
-95.663723
-102.4457
-109.64372
-117.28259
-125.38792
-133.98616
-143.10449
-152.77078
-163.01347
-173.86145
-185.34393
-197.49023
-210.32959
-223.89088
-238.20232
-253.29111
-269.18305
-285.90206
-303.46964
-321.90428
-341.2208
-361.42959
-382.53582
-404.53848
-427.42946
-451.19245
-475.80187
-501.22164
-527.40398
-554.28818
-581.79932
-609.84706
-638.32452
-667.10721
-696.05218
-724.99738
-753.76129
-782.14297
-809.92249
-836.86191
-862.70681
-887.18851
-910.02698
-930.93438
-949.6195
-965.7928
-979.17203
-989.48828
-996.49204
-999.96006
-999.70443
-995.57912
-987.47954
-975.34851
-959.18052
-939.02335
-914.97817
-887.1981
-855.88518
-821.28589
-783.6855
-743.4014
-700.77582
-656.16822
-609.94761
-562.48527
-514.14789
-465.29149
-416.25622
-367.36206
-318.90562
-271.15774
-224.36218
-178.73498
-134.46463
-91.712786
-50.615569
-11.28514
26.188378
61.734846
95.301935
126.85293
156.36457
183.82495
209.23149
232.58912
253.9086
273.20502
290.49634
305.80138
319.138
330.52518
339.99146
347.57301
353.25758
356.89566
358.36527
-1.6143727
-3.5836267
-5.6396719
-7.7175556
-9.8307575
-11.988555
-14.200644
-16.476922
-18.827539
-21.262936
-23.793881
-26.431507
-29.187357
-32.073415
-35.102153
-38.286565
-41.640212
-45.177259
-48.912517
-52.861475
-57.040352
-61.466118
-66.156541
-71.130215
-76.406593
-82.006006
-87.949699
-94.259832
-100.9595
-108.07273
-115.62448
-123.6406
-132.14784
-141.17377
-150.74668
-160.89559
-171.65003
-183.04
-195.0957
-207.84743
-221.32524
-235.55873
-250.57663
-266.40648
-283.07412
-300.6032
-319.01456
-338.32558
-358.54943
-379.69425
-401.76219
-424.74847
-448.64021
-473.41535
-499.04137
-525.47395
-552.65573
-580.51487
-608.96374
-637.89766
-667.19369
-696.70955
-726.28289
-755.73069
-784.84914
-813.4139
-841.18096
-867.88803
-893.25672
-916.99541
-938.80296
-958.3732
-975.40026
-989.58466
-1000.6397
-1008.298
-1012.3189
-1012.4986
-1008.6782
-1000.7424
-988.62615
-972.3196
-951.87014
-927.38258
-899.01754
-866.98825
-831.55556
-793.02168
-751.72291
-708.02154
-662.29749
-614.93995
-566.33945
-516.88041
-466.93469
-416.85604
-366.97569
-317.59899
-269.00316
-221.43601
-175.11555
-130.23033
-86.9405
-45.379291
-5.6549088
32.147307
67.962584
101.74433
133.46178
163.09762
190.6458
216.10943
239.49881
260.82972
280.12191
297.39756
312.6793
325.98835
337.34661
346.78505
354.34182
360.00645
363.63121
365.09532
-1.5845764
-3.516743
-5.5341248
-7.5730029
-9.6466421
-11.764178
-13.935161
-16.169339
-18.476716
-20.867581
-23.352556
-25.942624
-28.649179
-31.484058
-34.459586
-37.588613
-40.88456
-44.361455
-48.033978
-51.917498
-56.028117
-60.382706
-64.998946
-69.895361
-75.091357
-80.607244
-86.464271
-92.684644
-99.291543
-106.30912
-113.76253
-121.67787
-130.08222
-139.00354
-148.47064
-158.51312
-169.16126
-180.44589
-192.39823
-205.04971
-218.43173
-232.5754
-247.51118
-263.26854
-279.87549
-297.35807
-315.73978
-335.0409
-355.27774
-376.46181
-398.59885
-421.68788
-445.71996
-470.67709
-496.53082
-523.2409
-550.75385
-579.00149
-607.89943
-637.34568
-667.21923
-697.37884
-727.66202
-757.8843
-787.83883
-817.29651
-846.00657
-873.69795
-900.08128
-924.85182
-947.69315
-968.28191
-986.29341
-1001.4081
-1013.3185
-1021.7364
-1026.4008
-1027.0888
-1023.6264
-1015.8855
-1003.7916
-987.32973
-966.54665
-941.55135
-912.51329
-879.65879
-843.26561
-803.65595
-761.1883
-716.24849
-669.24042
-620.57686
-570.6707
-519.92695
-468.7357
-417.46634
-366.46284
-316.04042
-266.48335
-218.04379
-170.94169
-125.36538
-81.47293
-39.393989
0.76803399
38.9335
75.043972
109.05959
140.95647
170.72422
198.36356
223.88408
247.30223
268.63954
287.92104
305.17371
320.42446
333.69833
345.02048
354.42464
361.95117
367.59159
371.20024
372.6577
-1.5511194
-3.4421792
-5.4167798
-7.4125122
-9.4423892
-11.515387
-13.640892
-15.828489
-18.088015
-20.429596
-22.863684
-25.4011
-28.053069
-30.831263
-33.747844
-36.8155
-40.047494
-43.457699
-47.060648
-50.87157
-54.906439
-59.182007
-63.715854
-68.526422
-73.633057
-79.056037
-84.816612
-90.937025
-97.44054
-104.35145
-111.69509
-119.49784
-127.78712
-136.59131
-145.93978
-155.86278
-166.39136
-177.55729
-189.39287
-201.9308
-215.20394
-229.24506
-244.08652
-259.75994
-276.29571
-293.72255
-312.0669
-331.35227
-351.59847
-372.8208
-395.02907
-418.22655
-442.40878
-467.56237
-493.66355
-520.67673
-548.55296
-577.22831
-606.62224
-636.63601
-667.15105
-698.02756
-729.10321
-760.1922
-791.08458
-821.54615
-851.31885
-880.12191
-907.65377
-933.59489
-957.61164
-979.36108
-998.49694
-1014.6766
-1027.5686
-1036.8606
-1042.2676
-1043.5445
-1040.4994
-1032.9891
-1020.9279
-1004.2945
-983.13495
-957.56299
-927.7583
-893.96251
-856.47313
-815.63568
-771.83456
-725.48302
-677.01282
-626.86404
-575.47537
-523.27544
-470.67521
-418.06173
-365.79334
-314.19619
-263.56222
-214.14816
-166.17574
-119.83264
-75.274182
-32.625577
8.0155264
46.576233
83.005519
117.27132
149.35772
179.26223
206.99327
232.56783
256.0093
277.34568
296.60793
313.8284
329.03881
342.26843
353.54606
362.90847
370.39848
376.00981
379.59916
381.04868
-1.515037
-3.3612325
-5.2890584
-7.2375996
-9.2196055
-11.24388
-13.319629
-15.456256
-17.663417
-19.951054
-22.329439
-24.809205
-27.401395
-30.117499
-32.969496
-35.969893
-39.131778
-42.468852
-45.995482
-49.726739
-53.678448
-57.86723
-62.310547
-67.026743
-72.035089
-77.35582
-83.010176
-89.020432
-95.40993
-102.2031
-109.42548
-117.10371
-125.26558
-133.93994
-143.15672
-152.94686
-163.34227
-174.37568
-186.08059
-198.49107
-211.64153
-225.56658
-240.30064
-255.87765
-272.33063
-289.69124
-307.98913
-327.2514
-347.50174
-368.75966
-391.03946
-414.34921
-438.68948
-464.05207
-490.41852
-517.75856
-546.02845
-575.16921
-605.10483
-635.74047
-666.9606
-698.62736
-730.57901
-762.62861
-794.56317
-826.14318
-857.10276
-887.15059
-915.97167
-943.23006
-968.57277
-991.63479
-1012.0454
-1029.4355
-1043.4462
-1053.7371
-1059.9958
-1061.9508
-1059.3892
-1052.1502
-1040.1347
-1023.3141
-1001.7332
-975.51117
-944.8395
-909.97758
-871.24588
-829.01702
-783.70549
-735.75632
-685.63346
-633.80838
-580.74942
-526.9121
-472.73101
-418.61307
-364.93257
-312.02768
-260.19853
-209.70652
-160.77487
-113.59
-68.303659
-25.035614
16.12337
55.108327
91.876842
126.40584
158.6885
188.73134
216.55148
242.17422
265.63075
286.95628
306.18837
323.36533
338.52418
351.69885
362.92218
372.23424
379.68055
385.25723
388.82366
390.26376
-1.4753824
-3.2728256
-5.1498986
-7.0472488
-8.9773253
-10.948741
-12.970505
-15.051824
-17.202155
-19.431241
-21.74915
-24.166317
-26.693582
-29.342234
-32.12405
-35.051342
-38.136999
-41.394532
-44.838123
-48.482668
-52.343826
-56.438063
-60.782709
-65.39599
-70.297091
-75.506185
-81.044493
-86.934308
-93.199044
-99.86326
-106.9527
-114.49428
-122.51616
-131.04768
-140.11934
-149.76284
-160.01095
-170.89748
-182.45717
-194.72553
-207.7387
-221.53321
-236.1457
-251.61266
-267.96994
-285.25237
-303.49316
-322.72327
-342.9707
-364.25957
-386.60917
-410.03287
-434.53686
-460.11876
-486.7661
-514.45464
-543.14658
-572.78869
-603.31025
-634.62106
-666.60936
-699.13987
-732.05191
-765.15783
-798.24171
-831.05865
-863.33452
-894.76668
-925.02546
-953.75684
-980.58634
-1005.1242
-1026.972
-1045.7307
-1061.0099
-1072.4371
-1079.668
-1082.4007
-1080.3974
-1073.4766
-1061.5236
-1044.5009
-1022.4517
-995.50119
-963.85453
-927.79163
-887.65955
-843.86235
-796.84931
-747.10215
-695.12187
-641.41596
-586.4865
-530.81957
-474.87632
-419.08587
-363.84009
-309.49016
-256.34483
-204.67014
-154.69033
-106.58976
-60.515597
-16.580952
25.131584
64.566312
101.69077
136.49218
168.97406
199.15308
227.05616
252.71785
276.17805
297.47994
316.66836
333.78815
348.88217
361.98943
373.14716
382.39903
389.79345
395.32918
398.8686
400.29764
-1.4331887
-3.1782599
-5.0007337
-6.842995
-8.7171817
-10.631702
-12.595352
-14.617124
-16.706259
-18.872284
-21.125048
-23.474767
-25.932061
-28.507998
-31.214138
-34.062572
-37.065977
-40.237651
-43.591574
-47.142442
-50.90573
-54.897733
-59.135622
-63.637494
-68.422422
-73.510507
-78.922928
-84.681987
-90.811159
-97.335123
-104.27982
-111.67244
-119.54154
-127.91691
-136.8297
-146.31236
-156.39859
-167.12331
-178.52255
-190.6334
-203.49377
-217.14227
-231.61792
-246.95991
-263.20716
-280.39792
-298.56922
-317.75628
-337.99171
-359.30472
-381.72008
-405.25701
-429.92791
-455.73689
-482.67819
-510.73439
-539.87446
-570.05173
-601.20166
-633.23956
-666.05829
-699.52589
-733.48344
-767.74306
-802.08624
-836.26268
-869.98974
-902.95273
-934.80615
-965.17623
-993.66473
-1019.8543
-1043.3154
-1063.6151
-1080.3271
-1093.0421
-1101.3791
-1105.0013
-1103.6411
-1097.0923
-1085.2227
-1067.9839
-1045.417
-1017.6538
-984.91519
-947.50476
-905.80036
-860.24236
-811.32027
-759.55804
-705.49921
-649.69243
-592.67816
-534.97693
-477.07967
-419.4401
-362.46931
-306.53242
-251.94713
-198.98385
-147.86717
-98.778398
-51.858841
-7.2135648
35.08452
74.990501
112.48337
147.56208
180.24184
210.55073
238.52659
264.2143
287.6633
308.92557
328.05393
345.10036
360.11402
373.13947
384.21865
393.39913
400.73242
406.22013
409.72793
411.14402
-1.3876132
-3.0765991
-4.8406671
-6.6240104
-8.43842
-10.292082
-12.193563
-14.151624
-16.175274
-18.273804
-20.456829
-22.734327
-25.11668
-27.614716
-30.239755
-33.003655
-35.918853
-38.99842
-42.256106
-45.706393
-49.364546
-53.246667
-57.369752
-61.751741
-66.411581
-71.369274
-76.645945
-82.263883
-88.246607
-94.618908
-101.40691
-108.63808
-116.34134
-124.54699
-133.28681
-142.59401
-152.50325
-163.05061
-174.27351
-186.21062
-198.90176
-212.38773
-226.71007
-241.91084
-258.03222
-275.11614
-293.20374
-312.3348
-332.54698
-353.87497
-376.34954
-399.99634
-424.83459
-450.87563
-478.12115
-506.56138
-536.17298
-566.91678
-598.7354
-631.55067
-665.26101
-699.73873
-734.8275
-770.3399
-806.0553
-841.71821
-877.03731
-911.68526
-945.29966
-977.48529
-1007.8178
-1035.8493
-1061.1154
-1083.145
-1101.4709
-1115.6417
-1125.2343
-1129.8721
-1129.2511
-1123.1369
-1111.3768
-1093.9092
-1070.7723
-1042.1056
-1008.1478
-969.2298
-925.76505
-878.23594
-827.17832
-773.16478
-716.78758
-658.64231
-599.31292
-539.35873
-479.30387
-419.62915
-360.76654
-303.09593
-246.94408
-192.58531
-140.24365
-90.096068
-42.276498
3.1197074
46.031037
86.425091
124.29398
159.64998
192.52146
222.94926
250.98334
276.67996
300.09908
321.30229
340.35107
357.30515
372.2205
385.14764
396.13357
405.23002
412.49177
417.9235
421.39455
422.79561
-1.339542
-2.9689741
-4.6709602
-6.391661
-8.1425074
-9.9314495
-11.766807
-13.657095
-15.611071
-17.637776
-19.746571
-21.947176
-24.249718
-26.664767
-29.203384
-31.877167
-34.6983
-37.6796
-40.834569
-44.177448
-47.723275
-51.487932
-55.488217
-59.74189
-64.267748
-69.085674
-74.216712
-79.68312
-85.508442
-91.717559
-98.336763
-105.3938
-112.91793
-120.93996
-129.4923
-138.60896
-148.32558
-158.67941
-169.70928
-181.45557
-193.96005
-207.26582
-221.41707
-236.45889
-252.43693
-269.39701
-287.38467
-306.44458
-326.61982
-347.95104
-370.47549
-394.22583
-419.22881
-445.50368
-473.06045
-501.89789
-532.00131
-563.34013
-595.8652
-629.506
-664.16764
-699.72783
-736.03385
-772.8996
-810.10301
-847.38382
-884.44203
-920.93725
-956.48915
-990.67939
-1023.0552
-1053.1348
-1080.4152
-1104.3822
-1124.5223
-1140.336
-1151.3519
-1157.1467
-1157.3746
-1151.7679
-1140.1495
-1122.4421
-1098.6801
-1069.0115
-1033.6953
-993.09411
-947.66244
-897.93121
-844.48979
-787.96668
-729.00992
-668.26855
-606.37571
-543.93425
-481.50517
-419.599
-358.67016
-299.11401
-241.26627
-185.40443
-131.75074
-80.476218
-31.705611
14.477389
58.024652
98.918239
137.16525
172.79301
205.84465
236.37521
264.44806
290.13195
313.49834
334.61925
353.56555
370.40528
385.20176
398.01183
408.88792
417.88613
425.06472
430.4316
433.86016
435.24387
-1.2883397
-2.8547125
-4.49101
-6.1454359
-7.8290296
-9.5494877
-11.314868
-13.13342
-15.013636
-16.964287
-18.994461
-21.113607
-23.331573
-25.658652
-28.105626
-30.683816
-33.405126
-36.282098
-39.327964
-42.556703
-45.983095
-49.622784
-53.49234
-57.60932
-61.992343
-66.661147
-71.636672
-76.941117
-82.598027
-88.632351
-95.07053
-101.94055
-109.27203
-117.09626
-125.44626
-134.35685
-143.86466
-154.00813
-164.82757
-176.36506
-188.66443
-201.77115
-215.73219
-230.59582
-246.41131
-263.22863
-281.09798
-300.06923
-320.19127
-341.51115
-364.07313
-387.9175
-413.07918
-439.58616
-467.45763
-496.70188
-527.31393
-559.27292
-592.53919
-627.05114
-662.7219
-699.43586
-737.04513
-775.36609
-814.17613
-853.21086
-892.16185
-930.67538
-968.35234
-1004.7497
-1039.3838
-1071.7357
-1101.2594
-1127.3924
-1149.569
-1167.2347
-1179.8625
-1186.975
-1188.1771
-1183.1629
-1171.7258
-1153.7698
-1129.3243
-1098.5466
-1061.7191
-1019.241
-971.61436
-919.42619
-863.32764
-804.01145
-742.18957
-678.57183
-613.84694
-548.66648
-483.63222
-419.28713
-356.10959
-294.51091
-234.8354
-177.36265
-122.3115
-69.845102
-20.07681
26.923608
71.123678
112.52212
151.14309
187.03088
220.24512
250.85656
278.94335
304.5879
327.87416
348.88545
367.7027
384.40288
399.05711
411.72898
422.47662
431.36075
438.44324
443.73545
447.1152
448.47899
-1.2346864
-2.7347053
-4.3018359
-5.8864639
-7.499222
-9.1475389
-10.839194
-12.582155
-14.384632
-16.255108
-18.202383
-20.23561
-22.364344
-24.598579
-26.948798
-29.426022
-32.041854
-34.808539
-37.739014
-40.846969
-44.146903
-47.654193
-51.385156
-55.357117
-59.588489
-64.098834
-68.908958
-74.040975
-79.518398
-85.366218
-91.610997
-98.280938
-105.40599
-113.01791
-121.15032
-129.83884
-139.12107
-149.03669
-159.62746
-170.93724
-183.01194
-195.89952
-209.64978
-224.31432
-239.94622
-256.59979
-274.33013
-293.19266
-313.24243
-334.53334
-357.11721
-381.04254
-406.35317
-433.08664
-461.27222
-490.92879
-522.06225
-554.66271
-588.70136
-624.12698
-660.86222
-698.79967
-737.79777
-777.67674
-818.21466
-859.14387
-900.14805
-940.86017
-980.86163
-1019.6832
-1056.8079
-1091.6762
-1123.6945
-1152.2462
-1176.7065
-1196.4584
-1210.9111
-1219.5241
-1221.8447
-1217.522
-1206.3145
-1188.1038
-1162.9127
-1130.9087
-1092.4013
-1047.8318
-997.75723
-942.82978
-883.77185
-821.3502
-756.34987
-689.54984
-621.70154
-553.51093
-485.62481
-418.62126
-353.00406
-289.2007
-227.56331
-168.3721
-111.84047
-58.121281
-7.3139475
40.528341
85.391364
127.29297
166.27668
202.40584
235.75843
266.42257
294.4926
320.06579
343.23962
364.10954
382.76728
399.29928
413.78491
426.29489
436.89336
445.64584
452.61795
457.82467
461.14862
462.48967
-1.1781744
-2.6085657
-4.1031473
-5.6145674
-7.1530232
-8.7256594
-10.33996
-12.003597
-13.724478
-15.510782
-17.371
-19.313976
-21.348948
-23.485592
-25.734072
-28.105084
-30.60991
-33.260472
-36.069388
-39.050031
-42.216595
-45.584159
-49.168759
-52.987456
-57.058425
-61.401023
-66.035885
-70.985006
-76.271836
-81.921371
-87.960261
-94.416894
-101.32152
-108.70632
-116.60553
-125.05551
-134.09484
-143.76443
-154.1075
-165.1697
-176.99909
-189.64613
-203.16357
-217.60645
-233.03179
-249.49845
-267.06667
-285.7977
-305.75314
-326.99419
-349.58073
-373.57013
-399.01588
-425.9659
-454.46057
-484.53043
-516.19352
-549.45232
-584.29038
-620.66848
-658.52052
-697.74904
-738.22058
-779.76087
-822.15019
-865.11891
-908.34365
-951.4443
-993.98239
-1035.4611
-1075.3279
-1112.9789
-1147.7679
-1179.0181
-1206.0379
-1228.1393
-1244.658
-1254.9803
-1258.5855
-1255.0702
-1244.1514
-1225.6834
-1199.6805
-1166.3219
-1125.9475
-1079.0477
-1026.2436
-968.26273
-905.90994
-840.03727
-771.5135
-701.19628
-629.90767
-558.41429
-487.41241
-417.51798
-349.26137
-283.08609
-219.35095
-158.33475
-100.2429
-45.215088
6.6662833
55.367657
100.89602
143.29114
182.61843
218.96255
252.42187
283.1036
311.11976
336.58374
359.60755
380.29965
398.76323
415.09477
429.38233
441.7041
452.13045
460.7319
467.57794
472.68727
475.94779
477.263
-1.1192882
-2.4769611
-3.8957417
-5.3306611
-6.7914642
-8.284997
-9.8184326
-11.399129
-13.034676
-14.732931
-16.502059
-18.350573
-20.287376
-22.321806
-24.463684
-26.723361
-29.111774
-31.640496
-34.3218
-37.168717
-40.195105
-43.415715
-46.846269
-50.503534
-54.40541
-58.571014
-63.020774
-67.776526
-72.861618
-78.301012
-84.121404
-90.35133
-97.021298
-104.16389
-111.81388
-120.00838
-128.78692
-138.19159
-148.2671
-159.06088
-170.62315
-183.00691
-196.26795
-210.4648
-225.6586
-241.91287
-259.29327
-277.86715
-297.703
-318.86977
-341.43592
-365.46833
-391.03089
-418.1828
-446.97656
-477.45558
-509.65137
-543.5803
-579.23994
-616.60491
-655.62227
-696.20657
-738.23448
-781.53933
-825.90547
-871.06292
-916.68248
-962.37165
-1007.6719
-1052.058
-1094.939
-1135.6635
-1173.5274
-1207.7866
-1237.6743
-1262.4217
-1281.2802
-1293.5509
-1298.6329
-1296.061
-1285.5026
-1266.7792
-1239.8943
-1205.0392
-1162.5898
-1113.0929
-1057.2442
-995.85883
-929.83733
-860.13005
-787.70181
-713.49967
-638.4253
-563.31279
-488.91254
-415.8811
-344.77629
-276.0571
-210.08722
-147.14148
-87.414083
-31.02809
21.954711
71.523927
117.71111
160.58104
200.22382
236.74793
270.27423
300.93089
328.84912
354.15971
376.99028
397.46309
415.69347
431.78845
445.84519
457.94962
468.17861
476.6078
483.31058
488.30958
491.49833
492.78435
-1.0578137
-2.3397465
-3.6795931
-5.0348486
-6.4147809
-7.8259213
-9.275116
-10.769393
-12.316007
-13.922477
-15.596622
-17.346607
-19.180979
-21.108718
-23.139279
-25.282646
-27.549385
-29.950696
-32.498479
-35.205395
-38.084934
-41.151489
-44.420434
-47.908206
-51.632394
-55.611831
-59.866702
-64.418639
-69.290844
-74.508197
-80.097396
-86.087074
-92.50795
-99.392953
-106.77737
-114.699
-123.19829
-132.31849
-142.10574
-152.60928
-163.88145
-175.97784
-188.9573
-202.88194
-217.8171
-233.83115
-250.99533
-269.38337
-289.07099
-310.13529
-332.65387
-356.70374
-382.35994
-409.6939
-438.7713
-469.64967
-502.37543
-536.98049
-573.47826
-611.85922
-652.0858
-694.08686
-737.75166
-782.92349
-829.39312
-876.89232
-925.08777
-973.5757
-1021.8779
-1069.4396
-1115.63
-1159.7459
-1201.0199
-1238.6332
-1271.7346
-1299.463
-1320.973
-1335.4667
-1342.2483
-1340.7798
-1330.669
-1311.6978
-1283.8558
-1247.3478
-1202.5906
-1150.1971
-1090.9498
-1025.7662
-955.6578
-881.68866
-804.93377
-726.44196
-647.20445
-568.13024
-490.02879
-413.59974
-339.42889
-267.9895
-199.64773
-134.67104
-73.238569
-15.45255
38.650028
89.085996
135.91527
179.23109
219.15132
255.81092
289.35555
319.93624
347.70499
372.81128
395.39934
415.60608
433.55958
449.3779
463.16764
475.02275
485.02675
493.26052
499.80138
504.676
507.78397
509.03714
-0.99408853
-2.1974256
-3.4553416
-4.7278993
-6.0238715
-7.3494605
-8.7111701
-10.115682
-11.569899
-13.080983
-14.656392
-16.30392
-18.031741
-19.848454
-21.763127
-23.785354
-25.925303
-28.193775
-30.602271
-33.163049
-35.889203
-38.794731
-41.894625
-45.204952
-48.742951
-52.527132
-56.577385
-60.915094
-65.563263
-70.546641
-75.891873
-81.627629
-87.784788
-94.396565
-101.4987
-109.12963
-117.33065
-126.14613
-135.62362
-145.81408
-156.772
-168.55554
-181.22661
-194.85097
-209.49823
-225.24173
-242.15846
-260.32876
-279.83592
-300.76559
-323.205
-347.24192
-372.96335
-400.45385
-429.79342
-461.05503
-494.30153
-529.58213
-566.92811
-606.348
-647.82209
-691.2962
-736.67495
-783.81445
-832.51471
-882.51189
-933.47079
-984.97807
-1036.5366
-1087.5619
-1137.3812
-1185.2362
-1230.2904
-1271.6422
-1308.3453
-1339.4338
-1363.9511
-1380.9843
-1389.7251
-1389.5485
-1379.9913
-1360.7872
-1331.9079
-1293.573
-1246.2467
-1190.6189
-1127.574
-1058.1486
-983.48392
-904.77546
-823.22484
-739.99674
-656.1831
-572.77587
-490.64859
-410.54627
-333.08262
-258.74324
-187.89341
-120.78901
-57.589349
1.6291289
56.859122
108.14933
155.59231
199.31358
239.46211
276.20223
309.70681
340.15172
367.71137
392.55523
414.84516