/*--------------------------------*- C++ -*----------------------------------*\
| =========                 |                                                 |
| \\      /  F ield         | foam-extend: Open Source CFD                    |
|  \\    /   O peration     | Version:     4.1                                |
|   \\  /    A nd           | Web:         http://www.foam-extend.org         |
|    \\/     M anipulation  |                                                 |
\*---------------------------------------------------------------------------*/
FoamFile
{
    version     2.0;
    format      ascii;
    class       surfaceScalarField;
    location    "0.1";
    object      phi;
}
// * * * * * * * * * * * * * * * * * * * * * * * * * * * * * * * * * * * * * //

dimensions      [0 3 -1 0 0 0 0];

internalField   nonuniform List<scalar> 
32976
(
-0.24552714
2.3147728e-05
-0.24555037
2.3230939e-05
-0.24557378
2.3414923e-05
-0.24559749
2.3703721e-05
-0.24562158
2.4097811e-05
-0.24564618
2.4599032e-05
-0.24567139
2.520882e-05
-0.24569732
2.592981e-05
-0.24572409
2.6764202e-05
-0.2457518
2.7715431e-05
-0.24578059
2.878645e-05
-0.24581057
2.9981502e-05
-0.24584187
3.1304283e-05
-0.24587463
3.2759845e-05
-0.24590899
3.4352603e-05
-0.24594507
3.6088409e-05
-0.24598305
3.7972367e-05
-0.24602306
4.0011099e-05
-0.24606527
4.2210339e-05
-0.24610985
4.457743e-05
-0.24615696
4.7118645e-05
-0.24620681
4.9841957e-05
-0.24625956
5.2754049e-05
-0.24631542
5.5863387e-05
-0.2463746
5.9176867e-05
-0.2464373
6.2703248e-05
-0.24650375
6.6449372e-05
-0.24657418
7.0423999e-05
-0.24664881
7.4633551e-05
-0.2467279
7.9086392e-05
-0.24681169
8.3788032e-05
-0.24690043
8.8745542e-05
-0.2469944
9.3964344e-05
-0.24709384
9.9447643e-05
-0.24719904
0.00010520012
-0.24731026
0.00011122179
-0.24742778
0.00011751428
-0.24755185
0.00012407359
-0.24768275
0.00013089705
-0.24782072
0.00013797525
-0.24796602
0.00014529973
-0.24811888
0.00015285417
-0.2482795
0.0001606217
-0.24844808
0.00016857867
-0.24862478
0.00017669704
-0.24880972
0.00018494295
-0.249003
0.00019327619
-0.24920465
0.00020165007
-0.24941466
0.00021001006
-0.24963295
0.00021829403
-0.24985938
0.00022643147
-0.25009372
0.00023434305
-0.25033566
0.00024194028
-0.25058479
0.00024912579
-0.25084058
0.00025579229
-0.25110241
0.00026182369
-0.2513695
0.00026709501
-0.25164097
0.00027147306
-0.25191579
0.0002748173
-0.25219277
0.00027698166
-0.25247059
0.00027781508
-0.25274775
0.00027716464
-0.25302263
0.00027487753
-0.25329343
0.00027080404
-0.25355823
0.0002648009
-0.25381497
0.00025673489
-0.25406146
0.00024648746
-0.25429542
0.00023395798
-0.25451448
0.00021906934
-0.25471626
0.00020177195
-0.2548983
0.00018204822
-0.25505822
0.00015991662
-0.25519366
0.00013543555
-0.25530236
0.00010870542
-0.25538223
7.9871077e-05
-0.25543136
4.9122198e-05
-0.25544805
1.6693336e-05
-0.25543091
-1.713682e-05
-0.25537886
-5.2054201e-05
-0.25529114
-8.7712855e-05
-0.2551674
-0.00012374002
-0.25500766
-0.00015974423
-0.25481234
-0.00019532422
-0.25458226
-0.00023007843
-0.25431864
-0.00026361456
-0.25402308
-0.00029555907
-0.25369752
-0.00032556598
-0.25334419
-0.00035332467
-0.25296563
-0.00037856644
-0.25256456
-0.00040106937
-0.2521439
-0.00042066238
-0.25170667
-0.0004372252
-0.25125598
-0.0004506898
-0.25079494
-0.00046103793
-0.25032664
-0.00046829813
-0.2498541
-0.00047254153
-0.24938023
-0.00047387653
-0.24890778
-0.0004724441
-0.24843937
-0.00046840979
-0.24797741
-0.00046195963
-0.24752412
-0.0004532932
-0.2470815
-0.00044261829
-0.24665136
-0.00043014556
-0.24623527
-0.00041608488
-0.24583463
-0.00040063967
-0.24545063
-0.00038400537
-0.24508426
-0.00036636599
-0.24473637
-0.00034789226
-0.24440763
-0.00032874008
-0.24409858
-0.00030905037
-0.24380963
-0.0002889472
-0.24354109
-0.0002685392
-0.24329317
-0.00024791915
-0.24306601
-0.0002271647
-0.24285967
-0.00020633904
-0.24267418
-0.00018549236
-0.24250951
-0.00016466198
-0.24236564
-0.00014387439
-0.24224249
-0.00012314603
-0.24214001
-0.00010248468
-0.24205812
-8.1890768e-05
-0.24199676
-6.1358753e-05
-0.24195588
-4.0877454e-05
-2.0430917e-05
-0.24553719
4.6248502e-05
-0.24556037
4.6415525e-05
-0.24558374
4.6783281e-05
-0.2456074
4.7360428e-05
-0.24563145
4.8147961e-05
-0.245656
4.9149577e-05
-0.24568116
5.0368154e-05
-0.24570704
5.1808961e-05
-0.24573375
5.3476397e-05
-0.24576141
5.5377334e-05
-0.24579014
5.7517678e-05
-0.24582007
5.9905916e-05
-0.24585131
6.254944e-05
-0.24588401
6.5458354e-05
-0.2459183
6.8641496e-05
-0.24595432
7.211057e-05
-0.24599223
7.5875791e-05
-0.24603216
7.9950408e-05
-0.2460743
8.43459e-05
-0.2461188
8.907696e-05
-0.24616584
9.4156152e-05
-0.24621559
9.9599437e-05
-0.24626826
0.0001054202
-0.24632403
0.0001116354
-0.24638311
0.00011825885
-0.24644572
0.00012530811
-0.24651207
0.00013279689
-0.24658239
0.00014074278
-0.24665691
0.00014915865
-0.24673589
0.0001580613
-0.24681956
0.00016746183
-0.24690819
0.00017737445
-0.24700203
0.00018781009
-0.24710136
0.00019877527
-0.24720644
0.00021027946
-0.24731754
0.00022232282
-0.24743494
0.00023490875
-0.24755889
0.00024802939
-0.24768967
0.0002616796
-0.24782754
0.0002758407
-0.24797274
0.00029049601
-0.2481255
0.00030561307
-0.24828603
0.00032115838
-0.24845454
0.00033708487
-0.24863118
0.00035333672
-0.24881608
0.00036984643
-0.24900934
0.00038653386
-0.24921099
0.00040330585
-0.24942104
0.00042005357
-0.2496394
0.00043665301
-0.24986593
0.00045296328
-0.25010041
0.00046882588
-0.25034254
0.00048406393
-0.25059189
0.00049848269
-0.25084797
0.00051186751
-0.25111013
0.00052398606
-0.25137762
0.00053458806
-0.25164956
0.00054340674
-0.2519249
0.00055016043
-0.25220247
0.00055455625
-0.25248095
0.00055629114
-0.25275884
0.00055505817
-0.25303452
0.00055055041
-0.25330618
0.00054246696
-0.2535719
0.0005305196
-0.2538296
0.00051444009
-0.25407711
0.00049398939
-0.25431211
0.00046896427
-0.25453225
0.0004392085
-0.2547351
0.00040462096
-0.25491822
0.0003651647
-0.25507917
0.00032087513
-0.25521561
0.00027186786
-0.25532524
0.00021834296
-0.25540596
0.00016058996
-0.25545583
9.8988754e-05
-0.25547315
3.4009602e-05
-0.25545649
-3.3789719e-05
-0.25540477
-0.00010377851
-0.25531722
-0.0001752617
-0.25519347
-0.00024749024
-0.25503354
-0.00031967735
-0.25483784
-0.00039101638
-0.25460722
-0.00046069999
-0.2543429
-0.00052793942
-0.25404647
-0.00059198373
-0.2537199
-0.00065213748
-0.25336545
-0.00070777652
-0.25298565
-0.00075836121
-0.25258328
-0.00080344618
-0.25216125
-0.00084268851
-0.25172263
-0.00087584762
-0.25127053
-0.00090278817
-0.25080809
-0.0009234749
-0.25033843
-0.00093796671
-0.24986456
-0.00094640805
-0.24938942
-0.00094901819
-0.24891578
-0.00094608165
-0.24844626
-0.00093793222
-0.24798327
-0.00092494453
-0.24752904
-0.00090752028
-0.24708559
-0.00088607727
-0.24665469
-0.00086103886
-0.24623795
-0.00083282658
-0.24583674
-0.00080184872
-0.24545225
-0.00076849739
-0.24508547
-0.0007331415
-0.24473724
-0.00069612319
-0.24440823
-0.0006577547
-0.24409896
-0.00061831807
-0.24380985
-0.00057806151
-0.24354118
-0.00053720216
-0.24329318
-0.00049592537
-0.24306596
-0.00045438607
-0.24285958
-0.00041271031
-0.24267408
-0.00037099796
-0.24250942
-0.00032932315
-0.24236555
-0.00028773836
-0.24224242
-0.00024627594
-0.24213996
-0.00020495088
-0.24205809
-0.00016376345
-0.24199674
-0.00012270202
-0.24195588
-8.1743786e-05
-4.0856488e-05
-0.24555659
6.9258406e-05
-0.24557969
6.9508814e-05
-0.24560296
7.0059711e-05
-0.24562653
7.0924275e-05
-0.24565048
7.2103981e-05
-0.24567494
7.3604379e-05
-0.2457
7.5429791e-05
-0.24572578
7.7588117e-05
-0.24575239
8.0085961e-05
-0.24577995
8.2933626e-05
-0.24580857
8.6139978e-05
-0.24583838
8.9717744e-05
-0.24586951
9.3678019e-05
-0.24590209
9.8035963e-05
-0.24593625
0.00010280484
-0.24597214
0.00010800222
-0.24600991
0.00011364343
-0.24604971
0.00011974837
-0.2460917
0.00012633427
-0.24613604
0.00013342321
-0.24618292
0.00014103407
-0.24623251
0.00014919082
-0.246285
0.0001579136
-0.2463406
0.00016722789
-0.24639949
0.00017715451
-0.2464619
0.00018771986
-0.24652805
0.00019894462
-0.24659816
0.00021085526
-0.24667248
0.00022347126
-0.24675123
0.00023681795
-0.24683468
0.00025091213
-0.24692308
0.00026577535
-0.2470167
0.00028142422
-0.24711579
0.00029786877
-0.24722064
0.00031512349
-0.2473315
0.00033318891
-0.24744866
0.00035207052
-0.24757239
0.00037175688
-0.24770295
0.00039224072
-0.24784061
0.00041349446
-0.2479856
0.00043549359
-0.24813818
0.00045818994
-0.24829856
0.00048153382
-0.24846693
0.0005054552
-0.24864346
0.00052987093
-0.24882829
0.00055468042
-0.24902152
0.00057976406
-0.2492232
0.0006049827
-0.24943332
0.00063017367
-0.24965182
0.00065515149
-0.24987856
0.00067970525
-0.25011333
0.00070359757
-0.25035583
0.00072656332
-0.25060566
0.00074831043
-0.25086231
0.00076851677
-0.25112516
0.00078683342
-0.25139345
0.00080288425
-0.25166631
0.00081626805
-0.25194272
0.00082656092
-0.25222148
0.00083332168
-0.25250128
0.00083609346
-0.25278064
0.00083441312
-0.2530579
0.00082781703
-0.25333129
0.00081585015
-0.25359884
0.00079807602
-0.25385849
0.00077408777
-0.25410802
0.00074352204
-0.25434513
0.00070606899
-0.25456741
0.00066148928
-0.25477242
0.00060962635
-0.25495767
0.0005504203
-0.25512072
0.00048392029
-0.25525914
0.00041029666
-0.25537065
0.0003298475
-0.25545307
0.00024300644
-0.25550442
0.00015034418
-0.25552298
5.2568392e-05
-0.25550729
-4.948137e-05
-0.25545621
-0.00015485264
-0.25536898
-0.00026249499
-0.25524519
-0.00037127603
-0.25508487
-0.00048000575
-0.25488842
-0.00058746375
-0.25465669
-0.00069242833
-0.25439092
-0.00079370591
-0.25409275
-0.00089016027
-0.25376415
-0.00098073955
-0.25340742
-0.0010645003
-0.25302516
-0.0011406273
-0.25262015
-0.001208449
-0.25219539
-0.0012674492
-0.25175397
-0.001317267
-0.25129906
-0.0013577013
-0.25083383
-0.0013887027
-0.25036143
-0.001410364
-0.24988493
-0.0014229076
-0.24940728
-0.0014266686
-0.24893129
-0.0014220806
-0.24845957
-0.0014096508
-0.24799456
-0.001389948
-0.2475385
-0.0013635807
-0.2470934
-0.0013311814
-0.24666105
-0.0012933903
-0.24624303
-0.001250844
-0.24584072
-0.0012041585
-0.24545529
-0.0011539251
-0.24508773
-0.0011006993
-0.24473886
-0.0010449959
-0.24440933
-0.00098728437
-0.24409966
-0.00092798821
-0.24381024
-0.0008674798
-0.24354136
-0.00080608456
-0.24329321
-0.00074407989
-0.2430659
-0.00068169735
-0.24285948
-0.00061912494
-0.24267397
-0.00055651131
-0.24250932
-0.00049396637
-0.24236549
-0.00043156751
-0.24224241
-0.00036936189
-0.24213999
-0.00030737057
-0.24205816
-0.00024559254
-0.24199685
-0.00018400896
-0.24195601
-0.00012258438
-6.1268947e-05
-0.24558485
9.213213e-05
-0.24560781
9.2465531e-05
-0.24563095
9.3198679e-05
-0.24565438
9.4349254e-05
-0.24567819
9.5919214e-05
-0.2457025
9.7915963e-05
-0.24572742
0.00010034527
-0.24575305
0.00010321766
-0.2457795
0.00010654195
-0.2458069
0.00011033186
-0.24583536
0.00011459924
-0.245865
0.00011936104
-0.24589596
0.00012463207
-0.24592835
0.00013043255
-0.24596233
0.00013678018
-0.24599803
0.0001436984
-0.24603559
0.00015120768
-0.24607518
0.00015933458
-0.24611694
0.00016810213
-0.24616106
0.00017753979
-0.2462077
0.00018767281
-0.24625704
0.00019853325
-0.24630928
0.00021014802
-0.2463646
0.00022255124
-0.24642322
0.00023577078
-0.24648534
0.00024984199
-0.24655119
0.00026479266
-0.24662099
0.00028065826
-0.24669498
0.00029746503
-0.24677341
0.00031524702
-0.24685653
0.00033402697
-0.24694459
0.00035383395
-0.24703785
0.00037469055
-0.24713659
0.00039661061
-0.24724108
0.00041961397
-0.2473516
0.00044370195
-0.24746841
0.00046888249
-0.24759179
0.00049514107
-0.24772202
0.00052246878
-0.24785936
0.0005508297
-0.24800405
0.00058019207
-0.24815636
0.00061049265
-0.24831649
0.00064166622
-0.24848466
0.00067362051
-0.24866103
0.00070624578
-0.24884576
0.00073940906
-0.24903895
0.00077295202
-0.24924065
0.00080669027
-0.24945089
0.00084040799
-0.2496696
0.00087385885
-0.24989665
0.00090676247
-0.25013186
0.00093880302
-0.25037492
0.00096962738
-0.25062546
0.00099884623
-0.25088297
0.0010260297
-0.25114685
0.0010507119
-0.25141636
0.0010723899
-0.25169061
0.0010905269
-0.25196861
0.0011045551
-0.25224917
0.0011138826
-0.25253097
0.0011178962
-0.25281253
0.0011159732
-0.2530922
0.0011074893
-0.25336819
0.0010918309
-0.25363852
0.0010684084
-0.2539011
0.0010366707
-0.2541537
0.00099612438
-0.25439398
0.00094634696
-0.2546195
0.00088700989
-0.25482777
0.00081789526
-0.25501626
0.0007389147
-0.25518247
0.00065012638
-0.25532393
0.00055175156
-0.25543826
0.00044418382
-0.25552326
0.00032800001
-0.25557687
0.00020396248
-0.25559732
7.301884e-05
-0.2555831
-6.3704881e-05
-0.25553303
-0.00020492709
-0.25544629
-0.00034923315
-0.25532247
-0.00049509663
-0.25516156
-0.00064091239
-0.25496399
-0.00078503352
-0.25473061
-0.00092581093
-0.25446268
-0.0010616334
-0.25416187
-0.0011909675
-0.25383022
-0.0013123944
-0.25347008
-0.0014246422
-0.25308409
-0.0015266138
-0.25267513
-0.0016174064
-0.25224625
-0.0016963286
-0.25180062
-0.0017628995
-0.25134147
-0.0018168543
-0.25087204
-0.0018581336
-0.25039553
-0.0018868701
-0.24991507
-0.0019033709
-0.24943364
-0.0019080947
-0.24895409
-0.001901632
-0.24847907
-0.0018846721
-0.24801103
-0.0018579854
-0.24755222
-0.0018223952
-0.24710464
-0.0017787555
-0.2466701
-0.0017279292
-0.24625017
-0.0016707735
-0.24584622
-0.0016081168
-0.24545939
-0.0015407525
-0.24509066
-0.0014694257
-0.24474083
-0.0013948258
-0.24441054
-0.0013175805
-0.24410027
-0.0012382555
-0.2438104
-0.0011573473
-0.2435412
-0.0010752893
-0.24329283
-0.00099245006
-0.24306539
-0.00090913678
-0.24285891
-0.00082559815
-0.24267339
-0.00074203013
-0.24250878
-0.00065857689
-0.24236501
-0.0005753391
-0.242242
-0.00049237705
-0.24213965
-0.00040971623
-0.24205789
-0.00032735264
-0.24199664
-0.00024525859
-0.24195584
-0.00016338434
-8.1660561e-05
-0.24562246
0.00011482458
-0.24564523
0.00011524087
-0.24566819
0.00011615517
-0.24569143
0.0001175899
-0.24571506
0.00011954757
-0.24573918
0.00012203744
-0.2457639
0.00012506674
-0.24578933
0.00012864861
-0.24581558
0.00013279408
-0.24584277
0.00013752031
-0.24587102
0.00014284209
-0.24590044
0.00014878063
-0.24593116
0.00015535445
-0.24596331
0.00016258884
-0.24599704
0.00017050594
-0.24603248
0.00017913508
-0.24606977
0.00018850191
-0.24610908
0.00019863965
-0.24615055
0.00020957717
-0.24619436
0.00022135137
-0.24624068
0.00023399393
-0.24628969
0.000247545
-0.24634159
0.00026203843
-0.24639655
0.00027751701
-0.2464548
0.0002940158
-0.24651653
0.00031157923
-0.24658198
0.00033024234
-0.24665137
0.0003500498
-0.24672494
0.00037103481
-0.24680294
0.00039324036
-0.24688561
0.00041669544
-0.24697321
0.00044143696
-0.24706601
0.0004674938
-0.24716429
0.00049488405
-0.2472683
0.00052363333
-0.24737835
0.00055374426
-0.24749469
0.00058522778
-0.24761762
0.00061806693
-0.2477474
0.00065225179
-0.24788431
0.00068773887
-0.24802861
0.00072448992
-0.24818054
0.0007624275
-0.24834035
0.00080147173
-0.24850824
0.00084150907
-0.2486844
0.00088240415
-0.24886898
0.00092399263
-0.24906211
0.00096607845
-0.24926385
0.001008433
-0.24947423
0.0010507882
-0.24969321
0.0010928377
-0.24992068
0.0011342326
-0.25015645
0.001174579
-0.25040026
0.0012134363
-0.25065173
0.0012503179
-0.25091039
0.0012846862
-0.25117564
0.0013159575
-0.25144675
0.0013435012
-0.25172286
0.0013666431
-0.25200298
0.0013846692
-0.25228593
0.0013968345
-0.2525704
0.0014023652
-0.2528549
0.0014004749
-0.25313778
0.0013903735
-0.25341724
0.0013712828
-0.25369128
0.0013424533
-0.25395779
0.0013031825
-0.25421451
0.001252839
-0.25445904
0.0011908793
-0.25468891
0.0011168776
-0.25490156
0.0010305464
-0.25509441
0.0009317615
-0.25526486
0.00082058331
-0.25541039
0.00069727881
-0.25552854
0.0005623336
-0.25561701
0.00041646631
-0.25567367
0.00026063194
-0.25569668
9.6021655e-05
-0.25568444
-7.5945572e-05
-0.25563571
-0.0002536492
-0.25554965
-0.00043529837
-0.25542579
-0.00061895826
-0.25526411
-0.00080259241
-0.25506503
-0.00098411005
-0.25482943
-0.001161417
-0.25455859
-0.001332467
-0.25425425
-0.0014953132
-0.25391849
-0.001648155
-0.25355375
-0.0017893806
-0.25316276
-0.0019176013
-0.25274849
-0.0020316775
-0.25231408
-0.0021307394
-0.25186279
-0.0022141867
-0.25139795
-0.0022816941
-0.25092289
-0.0023331979
-0.25044088
-0.0023688787
-0.24995511
-0.0023891375
-0.24946864
-0.0023945673
-0.24898434
-0.0023859267
-0.24850492
-0.0023640978
-0.24803284
-0.0023300639
-0.24757036
-0.002284873
-0.24711951
-0.00222961
-0.24668207
-0.0021653688
-0.24625961
-0.0020932342
-0.24585347
-0.0020142523
-0.2454648
-0.0019294242
-0.24509454
-0.0018396876
-0.24474345
-0.001745909
-0.24441216
-0.0016488759
-0.24410112
-0.0015492969
-0.24381067
-0.0014477927
-0.24354106
-0.0013449038
-0.24329242
-0.0012410892
-0.24306482
-0.00113673
-0.24285829
-0.0010321339
-0.24267278
-0.00092754237
-0.24250822
-0.00082313157
-0.24236454
-0.00071902334
-0.24224163
-0.00061528888
-0.24213939
-0.00051195581
-0.24205772
-0.0004090149
-0.24199656
-0.00030642745
-0.24195581
-0.00020412718
-0.00010202289
-0.24566921
0.00013729305
-0.24569176
0.00013779057
-0.24571448
0.00013888431
-0.2457375
0.00014060081
-0.24576089
0.000142943
-0.24578478
0.00014592197
-0.24580926
0.00014954637
-0.24583444
0.000153832
-0.24586044
0.00015879208
-0.24588736
0.00016444719
-0.24591534
0.0001708151
-0.24594448
0.00017792126
-0.24597491
0.00018578791
-0.24600677
0.00019444541
-0.24604018
0.00020392039
-0.24607529
0.00021424805
-0.24611225
0.00022545924
-0.24615121
0.00023759391
-0.24619232
0.00025068679
-0.24623575
0.00026478227
-0.24628167
0.00027991852
-0.24633027
0.00029614391
-0.24638173
0.00031349927
-0.24643625
0.00033203618
-0.24649403
0.00035179706
-0.24655529
0.00037283557
-0.24662024
0.00039519418
-0.24668912
0.00041892699
-0.24676216
0.00044407442
-0.2468396
0.00047068873
-0.24692171
0.00049880545
-0.24700875
0.00052846972
-0.24710097
0.00055971721
-0.24719866
0.00059257072
-0.24730209
0.00062706222
-0.24741154
0.00066319625
-0.2475273
0.00070098745
-0.24764965
0.00074041717
-0.24777887
0.00078147535
-0.24791524
0.00082411182
-0.24805904
0.00086828284
-0.24821051
0.00091389782
-0.2483699
0.00096086338
-0.24853744
0.0010090459
-0.24871332
0.0010582855
-0.24889771
0.0011083878
-0.24909075
0.0011591204
-0.24929253
0.0012102116
-0.24950309
0.0012613422
-0.2497224
0.0013121473
-0.24995037
0.0013622098
-0.25018685
0.0014110591
-0.25043158
0.0014581674
-0.25068422
0.0015029511
-0.2509443
0.0015447646
-0.25121124
0.0015829056
-0.25148436
0.0016166147
-0.25176279
0.0016450782
-0.25204556
0.0016674333
-0.2523315
0.0016827779
-0.25261931
0.0016901737
-0.2529075
0.0016886646
-0.25319441
0.0016772886
-0.25347823
0.0016550951
-0.25375694
0.0016211664
-0.2540284
0.0015746392
-0.25429029
0.0015147341
-0.25454019
0.0014407765
-0.25477554
0.0013522323
-0.25499373
0.0012487345
-0.25519208
0.0011301128
-0.25536792
0.00099642173
-0.25551861
0.00084796694
-0.2556416
0.00068532129
-0.25573447
0.00050934326
-0.25579502
0.00032118151
-0.25582128
0.00012227517
-0.25581157
-8.5655563e-05
-0.25576458
-0.00030063867
-0.25567938
-0.00052049204
-0.25555549
-0.00074285404
-0.25539284
-0.00096523619
-0.25519187
-0.0011850817
-0.25495346
-0.0013998283
-0.25467895
-0.0016069726
-0.25437013
-0.0018041332
-0.25402918
-0.0019891096
-0.25365863
-0.002159934
-0.25326131
-0.0023149149
-0.25284032
-0.002452668
-0.25239892
-0.002572142
-0.25194049
-0.0026726173
-0.25146847
-0.0027537129
-0.2509863
-0.0028153683
-0.25049736
-0.002857822
-0.25000491
-0.0028815814
-0.24951209
-0.0028873873
-0.24902184
-0.0028761804
-0.24853689
-0.0028490503
-0.24805974
-0.0028072065
-0.24759268
-0.002751935
-0.24713773
-0.002684563
-0.24669667
-0.0026064262
-0.24627106
-0.0025188454
-0.24586222
-0.0024230924
-0.24547126
-0.002320381
-0.2450991
-0.0022118463
-0.24474648
-0.0020985347
-0.24441396
-0.0019813956
-0.24410197
-0.001861281
-0.24381083
-0.0017389357
-0.24354073
-0.0016150068
-0.24329178
-0.0014900417
-0.24306401
-0.0013644941
-0.24285742
-0.0012387282
-0.24267193
-0.0011130283
-0.24250746
-0.00098760029
-0.2423639
-0.00086258418
-0.24224113
-0.00073805929
-0.24213903
-0.00061405254
-0.2420575
-0.00049054667
-0.24199644
-0.00036748918
-0.24195577
-0.0002447945
-0.00012234652
-0.24572527
0.0001594904
-0.24574755
0.00016006986
-0.24577001
0.00016134156
-0.24579274
0.00016333707
-0.24581586
0.00016605997
-0.24583946
0.00016952319
-0.24586365
0.00017373686
-0.24588854
0.00017871937
-0.24591423
0.00018448617
-0.24594085
0.00019106126
-0.2459685
0.00019846537
-0.2459973
0.0002067282
-0.24602739
0.00021587574
-0.24605889
0.0002259434
-0.24609193
0.00023696231
-0.24612666
0.00024897359
-0.24616321
0.00026201332
-0.24620174
0.00027612817
-0.24624242
0.00029135883
-0.24628539
0.00030775723
-0.24633084
0.00032536811
-0.24637895
0.00034424812
-0.24642989
0.00036444521
-0.24648388
0.0003860199
-0.2465411
0.00040902211
-0.24660178
0.00043351492
-0.24666613
0.00045954849
-0.24673439
0.00048718659
-0.2468068
0.00051647717
-0.24688359
0.0005474821
-0.24696503
0.00058024388
-0.24705137
0.00061481636
-0.2471429
0.00065124247
-0.24723988
0.00068955035
-0.2473426
0.00072977898
-0.24745134
0.00077193558
-0.24756639
0.00081603931
-0.24768804
0.00086207076
-0.24781659
0.00091002072
-0.24795231
0.00095983345
-0.24809549
0.0010114609
-0.24824639
0.0010648006
-0.24840527
0.0011197471
-0.24857237
0.001176148
-0.24874791
0.0012338206
-0.24893206
0.001292542
-0.24912499
0.0013520447
-0.24932679
0.0014120157
-0.24953754
0.0014720863
-0.24975722
0.001531834
-0.24998579
0.0015907753
-0.25022309
0.0016483634
-0.25046891
0.0017039842
-0.25072292
0.0017569575
-0.25098468
0.0018065293
-0.25125365
0.0018518782
-0.25152915
0.0018921142
-0.25181036
0.0019262821
-0.25209629
0.0019533669
-0.25238582
0.0019723055
-0.25267763
0.0019819892
-0.25297025
0.0019812862
-0.25326202
0.0019690541
-0.25355109
0.0019441614
-0.25383543
0.0019055117
-0.25411286
0.0018520698
-0.25438102
0.0017828959
-0.25463742
0.0016971715
-0.25487943
0.0015942413
-0.25510434
0.0014736456
-0.25530938
0.0013351564
-0.25549177
0.0011788111
-0.25564875
0.0010049455
-0.25577764
0.00081421362
-0.25587591
0.00060761088
-0.25594121
0.00038648066
-0.25597145
0.00015251525
-0.25596485
-9.2254031e-05
-0.25592
-0.00034548854
-0.2558359
-0.0006045964
-0.25571198
-0.00086676653
-0.25554819
-0.0011290328
-0.25534492
-0.0013883447
-0.25510311
-0.001641644
-0.25482414
-0.0018859421
-0.25450988
-0.0021183971
-0.2541626
-0.0023363856
-0.25378497
-0.0025375652
-0.25337996
-0.0027199267
-0.25295079
-0.0028818321
-0.25250089
-0.0030220444
-0.25203378
-0.0031397259
-0.25155305
-0.0032344454
-0.25106226
-0.0033061552
-0.25056492
-0.0033551647
-0.2500644
-0.0033821032
-0.24956391
-0.0033878758
-0.24906647
-0.0033736234
-0.24857486
-0.0033406601
-0.24809162
-0.003290439
-0.24761906
-0.0032244997
-0.2471592
-0.0031444262
-0.24671381
-0.0030518083
-0.24628444
-0.0029482139
-0.24587239
-0.0028351488
-0.24547872
-0.0027140467
-0.24510432
-0.0025862451
-0.24474988
-0.0024529739
-0.24441593
-0.0023153461
-0.24410286
-0.0021743582
-0.24381091
-0.0020308788
-0.24354026
-0.0018856601
-0.24329097
-0.0017393367
-0.24306303
-0.0015924319
-0.24285639
-0.0014453639
-0.24267096
-0.0012984568
-0.24250662
-0.0011519427
-0.24236323
-0.0010059767
-0.24224064
-0.00086064271
-0.24213873
-0.00071596351
-0.24205737
-0.00057191041
-0.24199645
-0.0004284138
-0.24195587
-0.00028536547
-0.00014262086
-0.24579014
0.00018137763
-0.24581211
0.00018203591
-0.24583425
0.00018348302
-0.24585667
0.00018575419
-0.24587946
0.00018885332
-0.24590273
0.00019279516
-0.24592659
0.00019759128
-0.24595113
0.00020326267
-0.24597647
0.000209827
-0.24600272
0.00021731168
-0.24603
0.00022574042
-0.24605842
0.00023514716
-0.2460881
0.00024556164
-0.24611918
0.00025702434
-0.24615179
0.00026957091
-0.24618607
0.00028324841
-0.24622215
0.00029809817
-0.2462602
0.00031417366
-0.24630036
0.00033152155
-0.2463428
0.00035020137
-0.2463877
0.00037026454
-0.24643523
0.0003917761
-0.24648558
0.00041479125
-0.24653893
0.00043937958
-0.24659551
0.00046559873
-0.24665552
0.0004935214
-0.24671918
0.0005232057
-0.24678671
0.00055472537
-0.24685837
0.00058813627
-0.2469344
0.00062351025
-0.24701505
0.00066089729
-0.2471006
0.00070036044
-0.24719131
0.00074195053
-0.24728746
0.00078570174
-0.24738934
0.00083166081
-0.24749724
0.00087983851
-0.24761146
0.00093025948
-0.2477323
0.00098290464
-0.24786004
0.0010377668
-0.247995
0.0010947859
-0.24813745
0.001153911
-0.24828767
0.0012150293
-0.24844595
0.0012780248
-0.24861253
0.001342728
-0.24878765
0.0014089352
-0.2489715
0.0014763967
-0.24916427
0.0015448119
-0.24936608
0.0016138283
-0.24957702
0.0016830294
-0.24979713
0.0017519368
-0.25002635
0.0018200022
-0.25026459
0.0018866039
-0.25051165
0.0019510421
-0.25076723
0.0020125408
-0.25103094
0.0020702372
-0.25130225
0.0021231903
-0.25158052
0.0021703778
-0.25186494
0.0022107005
-0.25215456
0.0022429876
-0.25244826
0.0022660098
-0.25274475
0.0022784822
-0.25304256
0.0022790894
-0.25334
0.0022664997
-0.25363523
0.00223939
-0.25392619
0.0021964731
-0.25421065
0.0021365281
-0.2544862
0.0020584409
-0.25475026
0.0019612332
-0.25500013
0.0018441131
-0.255233
0.0017065125
-0.25544597
0.0015481308
-0.25563614
0.0013689754
-0.25580059
0.0011694009
-0.25593651
0.00095013475
-0.25604121
0.00071230566
-0.25611218
0.00045745245
-0.25614719
0.00018752641
-0.25614433
-9.5118492e-05
-0.25610205
-0.00038775884
-0.25601928
-0.00068737096
-0.25589538
-0.00099066701
-0.25573024
-0.0012941722
-0.25552428
-0.0015943093
-0.25527843
-0.0018874893
-0.25499417
-0.0021702048
-0.25467344
-0.0024391224
-0.25431866
-0.0026911675
-0.25393263
-0.0029236
-0.25351848
-0.0031340762
-0.25307961
-0.0033206932
-0.25261964
-0.0034820237
-0.25214225
-0.0036171135
-0.25165121
-0.0037254883
-0.25115023
-0.0038071256
-0.25064298
-0.0038624214
-0.25013294
-0.0038921457
-0.24962342
-0.0038973886
-0.24911753
-0.0038795121
-0.24861812
-0.0038400764
-0.24812776
-0.0037807986
-0.24764877
-0.0037034905
-0.24718318
-0.0036100102
-0.24673278
-0.0035022162
-0.24629905
-0.0033819361
-0.24588328
-0.00325092
-0.2454865
-0.0031108293
-0.24510953
-0.0029632097
-0.24475303
-0.0028094785
-0.24441746
-0.0026509146
-0.24410316
-0.0024886596
-0.24381033
-0.0023237052
-0.24353909
-0.0021569076
-0.24328944
-0.0019889857
-0.24306134
-0.0018205299
-0.24285469
-0.0016520089
-0.24266937
-0.001483783
-0.2425052
-0.0013161065
-0.24236204
-0.0011491454
-0.24223969
-0.00098298448
-0.24213802
-0.00081763821
-0.24205687
-0.00065306252
-0.24199611
-0.00048916678
-0.24195566
-0.00032581629
-0.00016283382
-0.24586429
0.00020290563
-0.2458859
0.00020364425
-0.24590768
0.0002052649
-0.24592973
0.00020780807
-0.24595216
0.00021127836
-0.24597505
0.00021569237
-0.24599853
0.00022106315
-0.24602268
0.00022741427
-0.24604762
0.00023476562
-0.24607345
0.00024314801
-0.2461003
0.00025258815
-0.24612828
0.0002631242
-0.24615751
0.00027478966
-0.24618811
0.00028763009
-0.24622023
0.00030168571
-0.24625399
0.00031700948
-0.24628954
0.00033364807
-0.24632702
0.00035166176
-0.24636661
0.00037110328
-0.24640844
0.00039203984
-0.24645271
0.00041452963
-0.24649958
0.00043864618
-0.24654924
0.00046445211
-0.24660189
0.00049202625
-0.24665772
0.00052143416
-0.24671696
0.0005527584
-0.24677982
0.00058606535
-0.24684653
0.00062143901
-0.24691734
0.00065894361
-0.24699249
0.00069866138
-0.24707224
0.00074065034
-0.24715687
0.00078498334
-0.24724664
0.00083171979
-0.24734184
0.00088090069
-0.24744276
0.00093258142
-0.2475497
0.0009867773
-0.24766296
0.0010435195
-0.24778284
0.0011027906
-0.24790966
0.0011645866
-0.24804372
0.0012288447
-0.24818532
0.0012955127
-0.24833476
0.0013644692
-0.24849233
0.0014355892
-0.24865829
0.0015086885
-0.24883289
0.0015835441
-0.24901638
0.0016598818
-0.24920894
0.0017373701
-0.24941073
0.001815619
-0.24962187
0.0018941663
-0.24984241
0.00197248
-0.25007236
0.0020499484
-0.25031163
0.0021258766
-0.25056007
0.0021994806
-0.25081741
0.0022698886
-0.25108331
0.0023361298
-0.25135726
0.0023971424
-0.25163865
0.0024517702
-0.25192672
0.0024987673
-0.25222053
0.0025368029
-0.252519
0.0025644765
-0.25282084
0.0025803198
-0.25312457
0.002582825
-0.25342853
0.0025704609
-0.25373084
0.0025417002
-0.25402942
0.0024950511
-0.25432199
0.0024290917
-0.25460606
0.0023425159
-0.254879
0.0022341682
-0.25513798
0.0021031008
-0.25538009
0.0019486191
-0.25560229
0.0017703322
-0.25580152
0.0015682008
-0.2559747
0.0013425854
-0.25611884
0.001094277
-0.25623107
0.00082453225
-0.2563087
0.00053508587
-0.25634933
0.00022815451
-0.25635088
-9.3572214e-05
-0.25631167
-0.00042696504
-0.2562305
-0.00076854255
-0.25610666
-0.0011145077
-0.25593999
-0.0014608402
-0.2557309
-0.001803396
-0.25548038
-0.0021380146
-0.25518995
-0.0024606297
-0.2548617
-0.002767378
-0.25449816
-0.0030547012
-0.25410233
-0.003319434
-0.25367753
-0.0035588775
-0.25322737
-0.0037708514
-0.25275566
-0.0039537331
-0.25226632
-0.0041064544
-0.2517633
-0.0042285068
-0.25125052
-0.004319908
-0.25073178
-0.0043811602
-0.25021073
-0.0044131964
-0.2496908
-0.0044173165
-0.24917519
-0.0043951293
-0.2486668
-0.004348466
-0.24816826
-0.0042793317
-0.24768192
-0.0041898327
-0.24720981
-0.0040821209
-0.24675368
-0.0039583408
-0.24631503
-0.003820594
-0.24589506
-0.0036708864
-0.24549477
-0.0035111162
-0.24511494
-0.0033430435
-0.24475614
-0.0031682773
-0.24441879
-0.0029882648
-0.24410316
-0.0028042928
-0.24380939
-0.0026174757
-0.24353752
-0.0024287712
-0.24328753
-0.0022389801
-0.2430593
-0.002048756
-0.2428527
-0.0018586141
-0.24266753
-0.0016689465
-0.24250362
-0.0014800253
-0.24236074
-0.0012920229
-0.2422387
-0.0011050197
-0.24213732
-0.00091901771
-0.24205643
-0.00073395271
-0.24199589
-0.00054970862
-0.24195559
-0.0003661198
-0.00018297165
-0.2459475
0.000224039
-0.24596871
0.00022485369
-0.24599009
0.00022664456
-0.24601173
0.0002294554
-0.24603375
0.00023329112
-0.24605622
0.00023817008
-0.24607927
0.00024410676
-0.24610298
0.00025112734
-0.24612747
0.0002592539
-0.24615284
0.00026852065
-0.24617921
0.0002789573
-0.24620669
0.00029060623
-0.24623541
0.00030350471
-0.24626548
0.00031770341
-0.24629704
0.00033324707
-0.24633023
0.00035019464
-0.24636518
0.00036859816
-0.24640204
0.00038852473
-0.24644097