/*--------------------------------*- C++ -*----------------------------------*\
| =========                 |                                                 |
| \\      /  F ield         | foam-extend: Open Source CFD                    |
|  \\    /   O peration     | Version:     4.1                                |
|   \\  /    A nd           | Web:         http://www.foam-extend.org         |
|    \\/     M anipulation  |                                                 |
\*---------------------------------------------------------------------------*/
FoamFile
{
    version     2.0;
    format      ascii;
    class       volScalarField;
    location    "0.1";
    object      rAU;
}
// * * * * * * * * * * * * * * * * * * * * * * * * * * * * * * * * * * * * * //

dimensions      [0 0 1 0 0 0 0];

internalField   nonuniform List<scalar> 
16796
(
0.00012059735
0.00012058907
0.00012057997
0.00012057151
0.00012056216
0.00012055338
0.00012054361
0.00012053434
0.000120524
0.00012051406
0.00012050297
0.00012049219
0.00012048017
0.00012046836
0.00012045521
0.00012044217
0.00012042768
0.00012041319
0.00012039713
0.00012038095
0.00012036308
0.00012034496
0.000120325
0.00012030466
0.00012028234
0.00012025947
0.00012023447
0.00012020876
0.00012018075
0.00012015186
0.00012012049
0.00012008769
0.00012005335
0.00012001625
0.00011997781
0.00011993641
0.00011989348
0.00011984742
0.00011979963
0.00011974853
0.00011969553
0.00011963917
0.00011958036
0.00011951861
0.00011945396
0.00011938637
0.00011931578
0.00011924229
0.00011916582
0.00011908643
0.00011900419
0.00011891921
0.00011883155
0.00011874151
0.00011864915
0.00011855477
0.00011845865
0.0001183611
0.00011826249
0.00011816333
0.00011806401
0.00011796509
0.00011786715
0.00011777081
0.00011767677
0.00011758569
0.00011749846
0.00011741575
0.0001173384
0.00011726725
0.00011720314
0.00011714683
0.00011709926
0.00011706107
0.00011703303
0.0001170158
0.00011700994
0.0001170099
0.00011701597
0.00011703422
0.00011706501
0.00011710849
0.00011716466
0.00011723342
0.0001173145
0.00011740755
0.00011751206
0.00011762739
0.0001177528
0.00011788743
0.00011803048
0.00011818085
0.00011833755
0.00011849951
0.00011866565
0.00011883488
0.0001190061
0.00011917838
0.00011935059
0.00011952182
0.00011969118
0.00011985783
0.00012002096
0.00012018
0.0001203342
0.00012048306
0.00012062607
0.00012076284
0.00012089296
0.00012101625
0.00012113235
0.0001212411
0.00012134234
0.00012143596
0.00012152183
0.0001216
0.00012167033
0.00012173283
0.00012178749
0.00012183432
0.00012187328
0.00012190449
0.00012192786
0.00012194344
0.00012058498
0.00012057669
0.00012056753
0.00012055899
0.00012054951
0.00012054056
0.00012053059
0.00012052107
0.00012051044
0.00012050017
0.0001204887
0.00012047751
0.00012046502
0.0001204527
0.00012043898
0.00012042532
0.00012041016
0.00012039495
0.0001203781
0.00012036108
0.0001203423
0.0001203232
0.00012030221
0.00012028075
0.00012025724
0.00012023312
0.00012020678
0.00012017965
0.00012015014
0.00012011966
0.00012008661
0.00012005203
0.00012001583
0.00011997678
0.00011993628
0.00011989274
0.00011984757
0.00011979917
0.00011974896
0.00011969534
0.00011963974
0.0001195807
0.00011951913
0.00011945457
0.00011938704
0.00011931653
0.00011924299
0.00011916655
0.00011908712
0.00011900481
0.0001189197
0.00011883192
0.00011874158
0.000118649
0.00011855428
0.00011845776
0.00011835976
0.00011826065
0.00011816081
0.00011806084
0.00011796116
0.00011786238
0.00011776514
0.00011767012
0.00011757803
0.00011748962
0.00011740579
0.00011732726
0.0001172549
0.00011718956
0.00011713209
0.00011708326
0.00011704398
0.00011701488
0.00011699668
0.00011698998
0.00011699528
0.00011699509
0.00011698873
0.00011699435
0.00011701242
0.00011704322
0.00011708689
0.00011714347
0.00011721281
0.00011729469
0.0001173887
0.00011749432
0.0001176109
0.00011773765
0.00011787383
0.00011801837
0.00011817032
0.00011832862
0.00011849217
0.00011865987
0.00011883058
0.00011900332
0.00011917693
0.00011935043
0.00011952285
0.00011969329
0.00011986088
0.00012002496
0.00012018472
0.00012033959
0.00012048901
0.00012063251
0.00012076963
0.00012090015
0.00012102365
0.00012113994
0.00012124883
0.00012135017
0.00012144381
0.00012152978
0.00012160793
0.00012167825
0.00012174073
0.00012179537
0.00012184213
0.00012188114
0.0001219123
0.00012193566
0.0001205692
0.00012056091
0.00012055173
0.00012054312
0.00012053353
0.00012052443
0.00012051427
0.00012050452
0.00012049362
0.00012048304
0.00012047122
0.00012045962
0.00012044669
0.00012043388
0.00012041962
0.00012040537
0.00012038957
0.00012037365
0.00012035606
0.00012033822
0.00012031856
0.00012029853
0.00012027653
0.00012025399
0.00012022934
0.00012020399
0.00012017635
0.00012014785
0.00012011687
0.00012008485
0.00012005016
0.00012001386
0.00011997585
0.00011993488
0.00011989239
0.00011984675
0.00011979938
0.0001197487
0.0001196961
0.00011964001
0.00011958185
0.00011952016
0.00011945587
0.00011938851
0.00011931813
0.00011924472
0.00011916824
0.00011908883
0.00011900643
0.00011892116
0.00011883314
0.00011874251
0.00011864942
0.0001185542
0.00011845702
0.00011835823
0.00011825819
0.00011815732
0.00011805607
0.00011795506
0.00011785476
0.00011775585
0.000117659
0.00011756496
0.0001174745
0.00011738838
0.00011730758
0.00011723284
0.00011716507
0.00011710515
0.00011705394
0.00011701222
0.00011698089
0.00011696056
0.00011695192
0.00011695551
0.00011697179
0.00011697182
0.00011695284
0.00011694567
0.00011695093
0.00011696902
0.00011700023
0.00011704472
0.00011710249
0.00011717342
0.00011725723
0.0001173535
0.00011746164
0.00011758094
0.00011771071
0.00011784992
0.00011799763
0.00011815277
0.00011831424
0.00011848091
0.0001186516
0.00011882527
0.00011900071
0.00011917687
0.00011935273
0.00011952729
0.00011969963
0.00011986902
0.00012003458
0.00012019565
0.00012035164
0.000120502
0.00012064624
0.00012078406
0.00012091502
0.0001210389
0.00012115546
0.00012126453
0.00012136594
0.00012145971
0.00012154566
0.00012162379
0.00012169407
0.00012175649
0.00012181104
0.00012185782
0.00012189675
0.00012192788
0.00012055004
0.00012054178
0.00012053258
0.00012052392
0.00012051424
0.00012050501
0.00012049468
0.00012048473
0.00012047358
0.00012046271
0.00012045056
0.00012043859
0.00012042523
0.00012041195
0.00012039718
0.00012038237
0.00012036595
0.00012034937
0.00012033105
0.00012031243
0.00012029193
0.00012027099
0.00012024802
0.00012022445
0.00012019869
0.00012017216
0.00012014326
0.00012011342
0.00012008103
0.0001200475
0.00012001123
0.00011997325
0.00011993347
0.00011989065
0.00011984619
0.00011979851
0.000119749
0.00011969606
0.00011964113
0.00011958261
0.00011952192
0.00011945763
0.00011939064
0.00011932052
0.0001192473
0.00011917099
0.00011909157
0.00011900918
0.00011892379
0.00011883554
0.00011874455
0.000118651
0.00011855506
0.00011845711
0.00011835733
0.00011825611
0.00011815386
0.00011805105
0.00011794814
0.00011784584
0.00011774465
0.00011764529
0.00011754852
0.00011745511
0.00011736589
0.00011728169
0.00011720351
0.00011713216
0.00011706858
0.00011701367
0.00011696833
0.00011693334
0.00011690962
0.00011689775
0.0001168984
0.00011691207
0.00011693917
0.0001169402
0.00011690832
0.00011688814
0.00011688043
0.00011688572
0.00011690443
0.00011693688
0.00011698318
0.00011704335
0.00011711721
0.00011720441
0.00011730448
0.00011741675
0.00011754056
0.00011767492
0.00011781888
0.00011797139
0.0001181313
0.00011829746
0.00011846863
0.00011864372
0.00011882146
0.00011900073
0.00011918042
0.00011935949
0.00011953692
0.00011971191
0.00011988352
0.00012005104
0.00012021379
0.00012037118
0.00012052265
0.00012066789
0.0001208064
0.00012093792
0.00012106219
0.00012117901
0.00012128821
0.00012138977
0.00012148352
0.00012156944
0.0001216475
0.0001217177
0.00012178
0.00012183454
0.00012188122
0.00012192011
0.00012052753
0.0001205193
0.00012051011
0.00012050141
0.00012049166
0.00012048232
0.00012047185
0.0001204617
0.00012045032
0.00012043919
0.00012042673
0.0001204144
0.00012040065
0.00012038693
0.00012037167
0.00012035633
0.00012033932
0.0001203221
0.00012030308
0.00012028372
0.00012026241
0.0001202406
0.0001202167
0.00012019213
0.0001201653
0.00012013763
0.00012010752
0.00012007639
0.00012004263
0.00012000764
0.00011996984
0.00011993023
0.00011988872
0.00011984409
0.00011979773
0.00011974804
0.00011969643
0.0001196413
0.00011958407
0.00011952316
0.00011945999
0.00011939312
0.00011932347
0.0001192506
0.00011917456
0.00011909535
0.00011901298
0.00011892761
0.0001188392
0.00011874791
0.00011865389
0.00011855735
0.00011845847
0.00011835765
0.00011825513
0.00011815132
0.00011804667
0.00011794168
0.00011783689
0.00011773301
0.00011763063
0.00011753052
0.00011743346
0.00011734031
0.00011725195
0.00011716926
0.00011709329
0.0001170249
0.00011696509
0.00011691479
0.00011687492
0.0001168463
0.00011682984
0.00011682614
0.00011683584
0.00011685941
0.0001168972
0.00011690041
0.00011685531
0.00011682186
0.00011680095
0.00011679328
0.00011679941
0.0001168198
0.00011685471
0.00011690424
0.00011696835
0.00011704677
0.0001171391
0.00011724472
0.00011736301
0.00011749299
0.00011763372
0.00011778412
0.00011794301
0.00011810919
0.00011828137
0.0001184584
0.00011863893
0.00011882177
0.00011900573
0.0001191897
0.00011937258
0.00011955351
0.00011973146
0.00011990567
0.00012007539
0.00012023999
0.00012039885
0.00012055162
0.00012069777
0.000120837
0.00012096903
0.00012109364
0.00012121063
0.00012131999
0.00012142153
0.00012151522
0.00012160104
0.00012167899
0.00012174904
0.00012181131
0.00012186573
0.00012191235
0.00012050168
0.00012049351
0.00012048434
0.00012047563
0.00012046582
0.00012045639
0.00012044579
0.00012043547
0.00012042389
0.00012041251
0.00012039977
0.00012038711
0.00012037299
0.00012035886
0.00012034314
0.00012032729
0.00012030972
0.0001202919
0.00012027222
0.00012025214
0.00012023006
0.00012020742
0.00012018262
0.0001201571
0.00012012924
0.00012010047
0.0001200692
0.00012003682
0.00012000173
0.00011996534
0.00011992604
0.00011988486
0.00011984168
0.00011979529
0.00011974707
0.00011969543
0.00011964177
0.00011958449
0.00011952501
0.00011946174
0.00011939613
0.00011932671
0.00011925442
0.00011917881
0.00011909996
0.00011901787
0.00011893254
0.00011884414
0.00011875267
0.0001186583
0.00011856118
0.00011846154
0.00011835961
0.0001182558
0.00011815037
0.00011804379
0.00011793652
0.00011782913
0.00011772217
0.00011761643
0.00011751253
0.00011741131
0.0001173136
0.00011722031
0.00011713239
0.00011705077
0.00011697658
0.00011691072
0.00011685423
0.00011680811
0.00011677331
0.00011675068
0.00011674115
0.00011674533
0.00011676384
0.00011679715
0.00011684554
0.00011685251
0.00011679381
0.00011674674
0.00011671235
0.00011669151
0.00011668492
0.00011669318
0.00011671669
0.00011675569
0.00011681021
0.00011688009
0.00011696499
0.00011706434
0.00011717755
0.00011730363
0.00011744165
0.00011759047
0.0001177489
0.00011791566
0.00011808941
0.00011826893
0.00011845277
0.00011863967
0.00011882838
0.00011901769
0.00011920642
0.00011939363
0.00011957825
0.00011975942
0.00011993636
0.00012010836
0.00012027479
0.00012043523
0.00012058912
0.00012073613
0.00012087598
0.00012100841
0.00012113322
0.00012125039
0.00012135971
0.00012146116
0.00012155473
0.0001216404
0.00012171816
0.00012178814
0.00012185027
0.00012190461
0.00012047252
0.00012046443
0.0001204553
0.00012044658
0.00012043674
0.00012042724
0.00012041653
0.00012040607
0.00012039431
0.0001203827
0.00012036969
0.00012035674
0.00012034227
0.00012032775
0.0001203116
0.00012029527
0.00012027718
0.00012025878
0.00012023848
0.00012021771
0.0001201949
0.00012017147
0.00012014582
0.00012011937
0.00012009053
0.00012006072
0.00012002831
0.00011999474
0.00011995837
0.00011992063
0.00011987989
0.00011983718
0.00011979238
0.00011974428
0.00011969426
0.00011964071
0.00011958505
0.00011952566
0.00011946398
0.0001193984
0.00011933037
0.00011925844
0.00011918353
0.00011910521
0.00011902355
0.00011893857
0.00011885026
0.00011875883
0.00011866425
0.00011856672
0.00011846643
0.0001183636
0.00011825849
0.00011815154
0.00011804304
0.00011793348
0.00011782337
0.00011771331
0.00011760391
0.00011749599
0.00011739023
0.00011728751
0.00011718875
0.00011709491
0.00011700699
0.000116926
0.00011685312
0.00011678931
0.0001167357
0.00011669331
0.00011666317
0.00011664615
0.00011664321
0.00011665498
0.00011668209
0.00011672498
0.0001167839
0.00011679665
0.00011672389
0.00011666281
0.00011661461
0.0001165803
0.00011656078
0.00011655679
0.00011656886
0.00011659736
0.00011664242
0.00011670398
0.00011678174
0.00011687519
0.00011698374
0.00011710641
0.00011724223
0.00011739004
0.00011754858
0.00011771652
0.00011789242
0.00011807499
0.00011826271
0.00011845422
0.00011864817
0.00011884327
0.00011903828
0.00011923217
0.00011942379
0.00011961223
0.00011979664
0.00011997627
0.00012015044
0.0001203187
0.00012048045
0.00012063534
0.00012078307
0.00012092337
0.00012105602
0.00012118099
0.00012129808
0.00012140729
0.00012150857
0.00012160194
0.00012168738
0.00012176504
0.00012183485
0.00012189689
0.00012044009
0.00012043209
0.00012042301
0.00012041432
0.00012040446
0.00012039491
0.00012038411
0.00012037352
0.0001203616
0.00012034979
0.00012033654
0.00012032331
0.00012030853
0.00012029364
0.00012027709
0.00012026031
0.00012024173
0.00012022279
0.00012020189
0.00012018049
0.00012015698
0.00012013279
0.00012010633
0.00012007901
0.00012004923
0.00012001841
0.00011998493
0.0001199502
0.00011991261
0.00011987356
0.00011983143
0.00011978725
0.00011974089
0.00011969113
0.00011963935
0.00011958395
0.00011952633
0.0001194649
0.00011940104
0.0001193332
0.00011926279
0.00011918837
0.00011911087
0.00011902986
0.00011894539
0.00011885751
0.00011876621
0.00011867169
0.00011857397
0.00011847322
0.00011836966
0.00011826353
0.00011815511
0.00011804486
0.0001179331
0.00011782034
0.00011770715
0.00011759414
0.00011748198
0.00011737154
0.00011726355
0.00011715895
0.00011705871
0.00011696386
0.00011687548
0.00011679463
0.00011672257
0.00011666034
0.00011660911
0.00011657001
0.00011654408
0.00011653227
0.00011653558
0.00011655466
0.00011659015
0.00011664249
0.0001167119
0.00011673288
0.00011664557
0.00011656999
0.00011650756
0.00011645945
0.00011642673
0.00011641029
0.00011641082
0.00011642882
0.00011646453
0.00011651795
0.00011658885
0.00011667675
0.00011678107
0.00011690082
0.00011703499
0.00011718237
0.00011734163
0.00011751136
0.00011769004
0.00011787628
0.00011806847
0.00011826515
0.00011846488
0.00011866628
0.00011886803
0.000119069
0.00011926799
0.00011946402
0.00011965619
0.0001198437
0.00012002581
0.00012020204
0.00012037178
0.00012053465
0.00012069032
0.00012083853
0.00012097904
0.00012111183
0.00012123669
0.00012135362
0.0001214626
0.00012156364
0.00012165673
0.00012174203
0.00012181949
0.0001218892
0.0001204044
0.00012039651
0.0001203875
0.00012037885
0.000120369
0.00012035941
0.00012034854
0.00012033785
0.00012032579
0.0001203138
0.00012030034
0.00012028686
0.00012027179
0.00012025657
0.00012023965
0.00012022245
0.00012020341
0.00012018396
0.00012016251
0.0001201405
0.00012011633
0.00012009143
0.0001200642
0.00012003605
0.00012000538
0.00011997359
0.00011993909
0.00011990326
0.0001198645
0.00011982419
0.00011978073
0.00011973512
0.00011968725
0.00011963589
0.00011958241
0.00011952522
0.00011946569
0.00011940225
0.00011933628
0.00011926621
0.00011919346
0.00011911658
0.00011903651
0.00011895281
0.00011886555
0.00011877476
0.00011868044
0.00011858281
0.00011848188
0.00011837784
0.00011827091
0.00011816137
0.00011804949
0.00011793577
0.00011782055
0.00011770437
0.00011758783
0.00011747158
0.00011735634
0.00011724302
0.00011713241
0.0001170255
0.00011692333
0.000116827
0.00011673765
0.00011665643
0.00011658468
0.0001165235
0.00011647416
0.00011643785
0.00011641568
0.00011640867
0.00011641788
0.00011644397
0.00011648764
0.0001165493
0.00011662917
0.00011666134
0.00011655887
0.00011646826
0.0001163911
0.00011632876
0.0001162825
0.00011625337
0.00011624222
0.00011624967
0.00011627607
0.00011632152
0.00011638583
0.00011646853
0.00011656906
0.00011668639
0.00011681948
0.00011696703
0.00011712765
0.00011729982
0.00011748194
0.00011767251
0.0001178698
0.00011807226
0.00011827834
0.00011848658
0.00011869555
0.00011890406
0.00011911082
0.00011931479
0.00011951501
0.00011971064
0.0001199009
0.00012008528
0.00012026315
0.0001204341
0.00012059779
0.00012075395
0.00012090235
0.00012104296
0.00012117558
0.00012130022
0.00012141685
0.00012152552
0.00012162622
0.00012171913
0.00012180419
0.00012188153
0.0001203655
0.00012035773
0.00012034882
0.00012034022
0.00012033039
0.00012032079
0.00012030987
0.0001202991
0.00012028692
0.00012027478
0.00012026114
0.00012024742
0.00012023209
0.00012021657
0.0001201993
0.00012018172
0.00012016225
0.00012014233
0.00012012036
0.00012009778
0.000120073
0.00012004743
0.00012001947
0.00011999053
0.00011995902
0.00011992632
0.00011989084
0.00011985397
0.00011981408
0.00011977258
0.00011972783
0.00011968086
0.00011963154
0.00011957862
0.0001195235
0.00011946456
0.00011940319
0.00011933778
0.00011926974
0.00011919749
0.00011912243
0.00011904313
0.00011896051
0.00011887414
0.00011878408
0.00011869037
0.00011859302
0.00011849224
0.00011838803
0.00011828063
0.00011817024
0.00011805715
0.00011794167
0.0001178243
0.0001177054
0.00011758555
0.00011746539
0.00011734559
0.00011722692
0.00011711034
0.00011699668
0.00011688702
0.00011678244
0.00011668412
0.00011659328
0.00011651115
0.00011643915
0.00011637848
0.00011633048
0.00011629643
0.00011627755
0.00011627491
0.00011628963
0.00011632245
0.00011637407
0.00011644495
0.00011653528
0.00011658208
0.0001164638
0.00011635753
0.00011626507
0.00011618801
0.00011612778
0.00011608565
0.00011606261
0.00011605942
0.00011607655
0.00011611416
0.00011617212
0.00011624998
0.00011634717
0.00011646261
0.0001165952
0.00011674357
0.00011690622
0.00011708154
0.0001172678
0.00011746339
0.00011766646
0.00011787534
0.0001180884
0.00011830404
0.00011852075
0.00011873727
0.00011895222
0.0001191645
0.0001193731
0.00011957713
0.00011977577
0.00011996848
0.00012015461
0.00012033374
0.00012050552
0.00012066968
0.00012082599
0.00012097442
0.00012111479
0.00012124711
0.00012137137
0.00012148762
0.00012159588
0.00012169634
0.00012178897
0.0001218739
0.00012032342
0.00012031579
0.00012030699
0.00012029846
0.00012028867
0.00012027908
0.00012026814
0.0001202573
0.00012024503
0.00012023276
0.00012021895
0.00012020504
0.00012018947
0.00012017368
0.0001201561
0.00012013816
0.0001201183
0.00012009794
0.0001200755
0.00012005239
0.00012002703
0.00012000083
0.00011997219
0.00011994251
0.0001199102
0.00011987665
0.00011984024
0.00011980237
0.00011976142
0.00011971877
0.0001196728
0.00011962452
0.0001195738
0.0001195194
0.00011946269
0.00011940206
0.00011933889
0.00011927158
0.00011920152
0.00011912712
0.0001190498
0.00011896811
0.00011888296
0.00011879393
0.00011870109
0.00011860445
0.00011850403
0.00011840005
0.00011829252
0.00011818166
0.00011806771
0.00011795095
0.00011783169
0.00011771048
0.00011758769
0.00011746392
0.00011733984
0.00011721616
0.00011709369
0.00011697344
0.0001168563
0.0001167434
0.00011663591
0.00011653506
0.00011644216
0.00011635854
0.00011628571
0.00011622496
0.00011617773
0.00011614541
0.00011612929
0.00011613055
0.0001161504
0.00011618963
0.00011624899
0.00011632897
0.00011642978
0.00011649522
0.00011636037
0.00011623771
0.0001161293
0.00011603693
0.00011596226
0.00011590674
0.00011587154
0.00011585758
0.00011586542
0.00011589532
0.00011594718
0.00011602056
0.00011611485
0.00011622896
0.00011636167
0.00011651154
0.00011667695
0.00011685615
0.00011704731
0.00011724866
0.00011745823
0.00011767424
0.00011789492
0.00011811857
0.00011834359
0.00011856862
0.00011879221
0.00011901319
0.00011923051
0.00011944321
0.00011965046
0.0001198517
0.00012004624
0.00012023366
0.00012041361
0.00012058581
0.00012075005
0.0001209063
0.00012105439
0.00012119435
0.00012132619
0.00012144998
0.00012156575
0.00012167371
0.00012177385
0.00012186631
0.0001202782
0.00012027073
0.00012026205
0.00012025362
0.00012024388
0.00012023432
0.00012022337
0.0001202125
0.00012020015
0.00012018778
0.00012017383
0.00012015975
0.00012014397
0.00012012793
0.00012011007
0.00012009182
0.0001200716
0.00012005084
0.00012002795
0.00012000436
0.00011997846
0.00011995168
0.0001199224
0.00011989204
0.00011985898
0.00011982462
0.00011978734
0.00011974853
0.00011970657
0.00011966283
0.0001196157
0.00011956617
0.00011951412
0.00011945828
0.00011940005
0.00011933779
0.00011927288
0.00011920372
0.00011913168
0.00011905519
0.00011897564
0.00011889159
0.00011880395
0.00011871227
0.00011861664
0.00011851706
0.00011841356
0.00011830634
0.00011819542
0.00011808102
0.00011796339
0.00011784282
0.00011771964
0.00011759438
0.00011746746
0.00011733951
0.00011721119
0.00011708329
0.00011695664
0.00011683229
0.0001167112
0.00011659456
0.00011648361
0.00011637966
0.00011628411
0.00011619839
0.00011612409
0.00011606263
0.00011601556
0.00011598436
0.00011597046
0.00011597514
0.00011599969
0.00011604499
0.00011611187
0.00011620085
0.00011631216
0.00011640084
0.00011624856
0.00011610872
0.00011598359
0.00011587524
0.00011578555
0.00011571619
0.00011566852
0.00011564359
0.00011564211
0.00011566439
0.00011571038
0.00011577965
0.00011587154
0.00011598489
0.0001161184
0.00011627049
0.00011643942
0.00011662331
0.00011682016
0.00011702807
0.00011724493
0.0001174688
0.0001176978
0.00011793011
0.00011816403
0.0001183981
0.00011863081
0.00011886091
0.00011908729
0.00011930897
0.00011952508
0.00011973503
0.00011993813
0.00012013395
0.00012032214
0.00012050243
0.0001206746
0.00012083866
0.00012099445
0.00012114201
0.00012128138
0.00012141264
0.00012153585
0.00012165124
0.00012175883
0.00012185877
0.00012022988
0.00012022259
0.00012021405
0.00012020572
0.00012019607
0.00012018655
0.00012017561
0.00012016472
0.00012015233
0.00012013988
0.00012012581
0.00012011159
0.00012009563
0.00012007938
0.00012006127
0.00012004274
0.00012002219
0.00012000107
0.00011997778
0.00011995374
0.00011992735
0.00011990003
0.00011987017
0.00011983916
0.00011980541
0.00011977029
0.0001197322
0.00011969251
0.00011964959
0.00011960483
0.0001195566
0.00011950588
0.00011945255
0.00011939535
0.00011933565
0.00011927182
0.00011920523
0.00011913427
0.00011906032
0.00011898178
0.00011890005
0.00011881367
0.00011872356
0.00011862926
0.00011853084
0.00011842832
0.0001183217
0.0001182112
0.00011809683
0.00011797881
0.00011785739
0.00011773287
0.00011760558
0.00011747609
0.0001173448
0.00011721237
0.00011707951
0.00011694702
0.00011681577
0.00011668688
0.00011656135
0.00011644044
0.00011632545
0.00011621779
0.00011611896
0.00011603047
0.00011595403
0.00011589119
0.00011584361
0.00011581291
0.00011580064
0.00011580819
0.00011583698
0.000115888
0.00011596216
0.00011606002
0.00011618186
0.00011629904
0.00011612839
0.00011597044
0.00011582774
0.00011570264
0.00011559726
0.00011551353
0.00011545298
0.00011541686
0.00011540598
0.00011542073
0.0001154611
0.00011552663
0.00011561663
0.00011572985
0.00011586485
0.00011601995
0.00011619324
0.00011638267
0.00011658608
0.0001168014
0.00011702637
0.0001172589
0.00011749697
0.00011773863
0.00011798208
0.00011822576
0.00011846807
0.00011870773
0.00011894354
0.00011917451
0.00011939973
0.00011961859
0.0001198304
0.00012003473
0.00012023122
0.00012041963
0.00012059974
0.0001207716
0.00012093504
0.00012109015
0.00012123698
0.00012137564
0.00012150622
0.00012162898
0.00012174393
0.00012185129
0.00012017851
0.0001201714
0.00012016302
0.00012015482
0.00012014526
0.00012013581
0.00012012491
0.00012011403
0.0001201016
0.0001200891
0.00012007495
0.00012006061
0.0001200445
0.00012002807
0.00012000974
0.00011999096
0.00011997013
0.00011994868
0.00011992503
0.00011990058
0.00011987375
0.00011984594
0.00011981553
0.00011978394
0.00011974954
0.00011971373
0.00011967487
0.00011963436
0.00011959055
0.00011954483
0.00011949555
0.00011944371
0.00011938917
0.00011933067
0.00011926957
0.00011920423
0.00011913603
0.00011906333
0.00011898751
0.00011890698
0.00011882311
0.00011873445
0.0001186419
0.000118545
0.0001184438
0.00011833833
0.00011822858
0.00011811475
0.00011799687
0.00011787514
0.00011774982
0.0001176212
0.00011748964
0.00011735569
0.00011721978
0.00011708259
0.00011694485
0.00011680739
0.00011667113
0.00011653722
0.00011640673
0.00011628098
0.00011616135
0.00011604934
0.00011594654
0.00011585457
0.00011577529
0.00011571034
0.00011566154
0.00011563065
0.00011561935
0.0001156292
0.00011566174
0.00011571808
0.00011579924
0.00011590587
0.00011603827
0.00011618683
0.00011599983
0.00011582274
0.00011566151
0.00011551877
0.00011539695
0.00011529822
0.00011522435
0.00011517675
0.00011515635
0.00011516364
0.00011519863
0.00011526083
0.00011534948
0.00011546323
0.00011560051
0.00011575945
0.00011593799
0.00011613389
0.00011634479
0.00011656845
0.00011680242
0.00011704446
0.00011729239
0.00011754414
0.00011779778
0.00011805166
0.00011830411
0.00011855376
0.0001187994
0.00011903998
0.00011927456
0.00011950253
0.0001197232
0.00011993613
0.00012014099
0.00012033754
0.0001205256
0.00012070521
0.00012087626
0.00012103885
0.00012119307
0.00012133906
0.00012147692
0.00012160694
0.00012172919
0.00012184388
0.00012012414
0.00012011723
0.00012010902
0.00012010097
0.00012009152
0.00012008215
0.00012007131
0.00012006045
0.00012004803
0.00012003549
0.00012002128
0.00012000685
0.00011999062
0.00011997404
0.00011995553
0.00011993653
0.00011991545
0.00011989372
0.00011986975
0.00011984494
0.00011981771
0.00011978945
0.00011975855
0.00011972642
0.00011969144
0.00011965498
0.00011961542
0.00011957414
0.00011952951
0.00011948289
0.00011943264
0.00011937974
0.00011932406
0.00011926432
0.00011920189
0.00011913511
0.00011906535
0.00011899098
0.00011891336
0.00011883089
0.00011874493
0.00011865403
0.00011855907
0.00011845959
0.00011835563
0.0001182472
0.0001181343
0.00011801711
0.00011789565
0.00011777013
0.0001176408
0.00011750794
0.00011737192
0.0001172333
0.00011709252
0.00011695027
0.0001168073
0.00011666449
0.00011652276
0.00011638335
0.00011624735
0.00011611616
0.00011599125
0.0001158742
0.0001157667
0.00011567052
0.0001155876
0.00011551977
0.00011546898
0.00011543714
0.00011542612
0.00011543763
0.00011547336
0.00011553459
0.00011562245
0.00011573771
0.00011588072
0.00011605137
0.00011586288
0.00011566549
0.00011548463
0.00011532326
0.00011518414
0.00011506969
0.00011498196
0.00011492253
0.00011489249
0.00011489238
0.00011492223
0.00011498153
0.00011506943
0.00011518442
0.00011532481
0.00011548852
0.00011567328
0.00011587665
0.00011609605
0.00011632904
0.00011657297
0.00011682542
0.00011708405
0.00011734667
0.0001176112
0.00011787592
0.00011813905
0.00011839918
0.00011865503
0.00011890553
0.00011914974
0.00011938702
0.00011961668
0.00011983832
0.00012005159
0.0001202563
0.00012045229
0.00012063962
0.00012081822
0.00012098821
0.00012114973
0.00012130293
0.00012144798
0.00012158517
0.00012171461
0.00012183655
0.00012006682
0.00012006013
0.00012005211
0.00012004421
0.0001200349
0.00012002563
0.00012001487
0.00012000406
0.00011999166
0.00011997912
0.00011996487
0.00011995038
0.00011993406
0.00011991736
0.00011989871
0.00011987952
0.00011985824
0.00011983626
0.000119812
0.00011978688
0.00011975929
0.00011973064
0.00011969931
0.00011966669
0.00011963117
0.00011959412
0.00011955393
0.00011951195
0.00011946655
0.00011941909
0.00011936794
0.00011931406
0.0001192573
0.0001191964
0.0001191327
0.00011906456
0.00011899331
0.00011891734
0.00011883798
0.00011875362
0.00011866564
0.00011857254
0.00011847521
0.00011837318
0.00011826648
0.0001181551
0.00011803903
0.00011791844
0.00011779335
0.00011766395
0.00011753049
0.00011739326
0.0001172526
0.00011710909
0.00011696318
0.00011681556
0.00011666702
0.00011651843
0.00011637079
0.00011622534
0.00011608327
0.00011594602
0.00011581514
0.00011569233
0.00011557937
0.00011547815
0.00011539078
0.00011531922
0.00011526559
0.000115232
0.00011522049
0.00011523295
0.00011527128
0.00011533691
0.00011543114
0.00011555484
0.00011570849
0.00011589201
0.00011571755
0.00011549855
0.00011529682
0.0001151157
0.00011495827
0.00011482731
0.0001147251
0.00011465345
0.00011461358
0.00011460612
0.0001146311
0.00011468797
0.00011477574
0.00011489279
0.00011503719
0.00011520667
0.00011539871
0.00011561063
0.00011583962
0.00011608301
0.00011633793
0.00011660177
0.00011687201
0.00011714631
0.00011742249
0.00011769869
0.00011797307
0.00011824416
0.00011851063
0.00011877139
0.00011902548
0.00011927226
0.00011951106
0.00011974148
0.00011996322
0.00012017608
0.00012037996
0.00012057496
0.00012076102
0.00012093833
0.00012110704
0.00012126735
0.00012141946
0.00012156371
0.00012170022
0.00012182931
0.00012000662
0.00012000017
0.00011999235
0.00011998464
0.00011997547
0.00011996633
0.00011995566
0.00011994492
0.00011993256
0.00011992004
0.00011990579
0.00011989126
0.00011987488
0.0001198581
0.00011983933
0.00011982
0.00011979854
0.00011977636
0.00011975187
0.00011972647
0.00011969858
0.00011966957
0.00011963786
0.00011960481
0.00011956881
0.00011953124
0.00011949047
0.00011944785
0.00011940176
0.00011935353
0.00011930154
0.00011924675
0.00011918899
0.000119127
0.00011906211
0.00011899268
0.00011892002
0.00011884251
0.00011876148
0.00011867531
0.00011858535
0.00011849011
0.00011839046
0.00011828591
0.00011817648
0.00011806216
0.0001179429
0.00011781889
0.00011769012
0.00011755677
0.00011741907
0.00011727731
0.00011713184
0.00011698322
0.00011683192
0.00011667862
0.00011652413
0.00011636936
0.00011621532
0.00011606331
0.00011591456
0.00011577059
0.00011563304
0.00011550368
0.00011538444
0.00011527733
0.00011518461
0.0001151084
0.00011505103
0.0001150148
0.00011500194
0.00011501458
0.00011505482
0.00011512431
0.00011522451
0.00011535647
0.00011552078
0.00011571741
0.00011556384
0.00011532177
0.00011509778
0.00011489562
0.00011471878
0.00011457038
0.00011445299
0.00011436865
0.00011431875
0.00011430398
0.00011432438
0.00011437932
0.00011446768
0.00011458764
0.00011473706
0.0001149134
0.00011511387
0.00011533553
0.0001155753
0.00011583023
0.00011609725
0.00011637352
0.00011665634
0.0001169432
0.00011723179
0.00011752017
0.00011780639
0.00011808894
0.00011836645
0.00011863779
0.00011890202
0.00011915849
0.00011940655
0.00011964583
0.00011987605
0.00012009706