/*--------------------------------*- C++ -*----------------------------------*\
| =========                 |                                                 |
| \\      /  F ield         | foam-extend: Open Source CFD                    |
|  \\    /   O peration     | Version:     4.1                                |
|   \\  /    A nd           | Web:         http://www.foam-extend.org         |
|    \\/     M anipulation  |                                                 |
\*---------------------------------------------------------------------------*/
FoamFile
{
    version     2.0;
    format      ascii;
    class       surfaceScalarField;
    location    "1.5";
    object      phi;
}
// * * * * * * * * * * * * * * * * * * * * * * * * * * * * * * * * * * * * * //

dimensions      [0 3 -1 0 0 0 0];

internalField   nonuniform List<scalar> 
31929
(
-4.0457478e-05
1.0472937e-08
-4.0447865e-05
-9.6136026e-09
-4.0443254e-05
-4.6102141e-09
-4.0430782e-05
-1.2472015e-08
-4.0416652e-05
-1.4130617e-08
-4.0398692e-05
-1.7959797e-08
-4.0377139e-05
-2.1552813e-08
-4.0352778e-05
-2.4360759e-08
-4.0324486e-05
-2.8292573e-08
-4.0293407e-05
-3.1078779e-08
-4.0258457e-05
-3.4950237e-08
-4.0220505e-05
-3.7951492e-08
-4.017879e-05
-4.171536e-08
-4.0133869e-05
-4.4921164e-08
-4.0085277e-05
-4.8591844e-08
-4.0033361e-05
-5.1915683e-08
-3.9977881e-05
-5.5480009e-08
-3.9919078e-05
-5.8802638e-08
-3.9856884e-05
-6.2194603e-08
-3.9791519e-05
-6.5365039e-08
-3.9723062e-05
-6.8457303e-08
-3.965178e-05
-7.1281574e-08
-3.95779e-05
-7.3879763e-08
-3.950179e-05
-7.6109952e-08
-3.942384e-05
-7.7949784e-08
-3.9344553e-05
-7.9287714e-08
-3.9264483e-05
-8.0069594e-08
-3.9184296e-05
-8.018704e-08
-3.9104799e-05
-7.9497087e-08
-3.9026983e-05
-7.7815893e-08
-3.8951947e-05
-7.503597e-08
-3.8880776e-05
-7.1171284e-08
-3.8814784e-05
-6.5991548e-08
-3.8755114e-05
-5.9670544e-08
-3.8702808e-05
-5.2305131e-08
-3.8660097e-05
-4.271147e-08
-3.8629121e-05
-3.0976141e-08
-3.8611235e-05
-1.7886216e-08
-3.8609969e-05
-1.265794e-09
-3.8627781e-05
1.781259e-08
-3.8664153e-05
3.6371702e-08
-3.8719427e-05
5.5273681e-08
-3.8794735e-05
7.5307963e-08
-3.8891345e-05
9.6610839e-08
-3.9010517e-05
1.1917109e-07
-3.9153413e-05
1.4289683e-07
-3.9321077e-05
1.6766351e-07
-3.9514396e-05
1.933188e-07
-3.9734078e-05
2.1968267e-07
-3.9980627e-05
2.4654861e-07
-4.025431e-05
2.736827e-07
-4.0555134e-05
3.0082416e-07
-4.0882821e-05
3.2768684e-07
-4.1236781e-05
3.539609e-07
-4.1616096e-05
3.7931499e-07
-4.2019498e-05
4.0340172e-07
-4.244536e-05
4.2586211e-07
-4.2891693e-05
4.4633262e-07
-4.3356147e-05
4.6445373e-07
-4.3836026e-05
4.7987985e-07
-4.4328315e-05
4.9228872e-07
-4.4829711e-05
5.0139562e-07
-4.5336675e-05
5.0696413e-07
-4.5845494e-05
5.0881931e-07
-4.6352353e-05
5.0685923e-07
-4.6853419e-05
5.010661e-07
-4.7344935e-05
4.9151534e-07
-4.7823315e-05
4.7838029e-07
-4.8285253e-05
4.6193786e-07
-4.8727819e-05
4.4256669e-07
-4.9148562e-05
4.2074299e-07
-4.9545595e-05
3.9703217e-07
-4.991767e-05
3.7207512e-07
-5.0264238e-05
3.4656884e-07
-5.0585482e-05
3.2124376e-07
-5.0882317e-05
2.9683444e-07
-5.1156361e-05
2.7404447e-07
-5.1409872e-05
2.5351065e-07
-5.1645634e-05
2.3576202e-07
-5.186682e-05
2.2118653e-07
-5.2076824e-05
2.1000364e-07
-5.2279086e-05
2.0226202e-07
-5.2476942e-05
1.9785578e-07
-5.2673527e-05
1.9658584e-07
-5.2871758e-05
1.982303e-07
-5.3074392e-05
2.0263471e-07
-5.3284157e-05
2.0976454e-07
-5.3503904e-05
2.1974761e-07
-5.3736765e-05
2.3286081e-07
-5.3986286e-05
2.4952127e-07
-5.4256511e-05
2.7022413e-07
-5.4552032e-05
2.9552131e-07
-5.4877994e-05
3.2596185e-07
-5.5240103e-05
3.6210943e-07
-5.5644608e-05
4.0450517e-07
-5.609836e-05
4.5375153e-07
-5.6608826e-05
5.1046661e-07
-5.7184286e-05
5.754598e-07
-5.7833919e-05
6.4963313e-07
-5.8568255e-05
7.3433596e-07
-5.9399409e-05
8.3115409e-07
-6.0342056e-05
9.4264742e-07
-6.141395e-05
1.0718936e-06
-6.2637993e-05
1.2240428e-06
-6.4043254e-05
1.4052607e-06
-6.5669199e-05
1.6259459e-06
-6.756733e-05
1.8981309e-06
-6.9809268e-05
2.2419374e-06
-7.2488224e-05
2.6789563e-06
-7.5733176e-05
3.2449525e-06
-7.9706329e-05
3.9731529e-06
-8.4625808e-05
4.9194791e-06
-9.0748067e-05
6.1222586e-06
-9.8403149e-05
7.6550825e-06
-0.00010793786
9.5347086e-06
-0.00011977915
1.1841296e-05
-0.00013429036
1.4511203e-05
-0.00015192414
1.7633779e-05
-0.0001728652
2.0941059e-05
-0.00019751167
2.4646475e-05
-0.00022529512
2.778345e-05
-0.00025683721
3.1542089e-05
-0.00028729932
3.0462111e-05
3.528128e-05
-0.00011732942
1.9809189e-08
-0.00011731832
-2.0711763e-08
-0.00011730804
-1.4897574e-08
-0.00011728734
-3.3166399e-08
-0.00011726254
-3.8932313e-08
-0.00011723077
-4.9732662e-08
-0.00011719341
-5.8910398e-08
-0.00011715017
-6.7600014e-08
-0.00011710102
-7.744651e-08
-0.00011704623
-8.5861408e-08
-0.00011698551
-9.5676072e-08
-0.00011691917
-1.0429255e-07
-0.00011684695
-1.1392873e-07
-0.00011676914
-1.2273096e-07
-0.00011668562
-1.321143e-07
-0.00011659664
-1.40893e-07
-0.00011650226
-1.4986777e-07
-0.00011640276
-1.5829734e-07
-0.00011629838
-1.6657483e-07
-0.00011618953
-1.7421413e-07
-0.00011607664
-1.8134792e-07
-0.00011596031
-1.876136e-07
-0.00011584122
-1.9297024e-07
-0.00011572025
-1.9708004e-07
-0.00011559844
-1.9976153e-07
-0.00011547701
-2.0071114e-07
-0.00011535739
-1.9969555e-07
-0.00011524119
-1.9638596e-07
-0.00011513023
-1.9045564e-07
-0.00011502652
-1.8152309e-07
-0.00011493222
-1.6933933e-07
-0.00011484968
-1.5371254e-07
-0.00011478241
-1.3326026e-07
-0.00011473469
-1.0739027e-07
-0.00011471058
-7.6415347e-08
-0.00011471386
-3.9426962e-08
-0.00011475011
5.2727042e-09
-0.00011482083
5.2829195e-08
-0.00011492355
1.0146188e-07
-0.00011506025
1.5450736e-07
-0.00011523506
2.1118672e-07
-0.00011545145
2.7166392e-07
-0.00011571217
3.3602164e-07
-0.00011601976
4.0419896e-07
-0.00011637653
4.759415e-07
-0.00011678454
5.5091094e-07
-0.00011724554
6.286672e-07
-0.00011776092
7.0869349e-07
-0.00011833162
7.9038556e-07
-0.00011895813
8.7305908e-07
-0.0001196404
9.5594643e-07
-0.00012037777
1.0381998e-06
-0.00012116898
1.1188949e-06
-0.00012201206
1.1970387e-06
-0.00012290432
1.2715755e-06
-0.00012384232
1.3414054e-06
-0.00012482186
1.4053993e-06
-0.00012583795
1.4624232e-06
-0.00012688486
1.511366e-06
-0.00012795616
1.5511746e-06
-0.00012904475
1.5808852e-06
-0.00013014303
1.5996709e-06
-0.00013124294
1.6068788e-06
-0.0001323362
1.6020731e-06
-0.00013341441
1.5850734e-06
-0.00013446933
1.5559886e-06
-0.00013549306
1.5152454e-06
-0.00013647828
1.4635994e-06
-0.00013741849
1.4021479e-06
-0.00013830824
1.3323189e-06
-0.00013914335
1.2558514e-06
-0.00013992108
1.1747615e-06
-0.0001406403
1.0912932e-06
-0.00014130158
1.0078519e-06
-0.00014190727
9.2692739e-07
-0.00014246143
8.5099947e-07
-0.00014296981
7.8242687e-07
-0.00014343964
7.233338e-07
-0.00014387936
6.75488e-07
-0.00014429838
6.4020079e-07
-0.00014470663
6.1825574e-07
-0.00014511427
6.099077e-07
-0.00014553136
6.1494032e-07
-0.0001459676
6.3282755e-07
-0.00014643229
6.6292152e-07
-0.00014693434
7.0468417e-07
-0.00014748242
7.5784466e-07
-0.0001480852
8.2252489e-07
-0.00014875158
8.992402e-07
-0.00014949095
9.8888934e-07
-0.00015031337
1.0926459e-06
-0.00015122976
1.2119107e-06
-0.000152252
1.3482068e-06
-0.00015339309
1.5031944e-06
-0.0001546672
1.6786152e-06
-0.00015608986
1.8764189e-06
-0.00015767811
2.0987172e-06
-0.00015945071
2.3480532e-06
-0.00016142837
2.627295e-06
-0.00016363417
2.9401404e-06
-0.00016609387
3.290854e-06
-0.00016883645
3.6852223e-06
-0.00017189447
4.1299132e-06
-0.00017530479
4.6343672e-06
-0.00017910876
5.2092264e-06
-0.0001833529
5.8700844e-06
-0.00018808845
6.6336868e-06
-0.00019337179
7.5252776e-06
-0.00019926222
8.5693787e-06
-0.00020582152
9.8042527e-06
-0.00021310821
1.1259852e-05
-0.00022117573
1.2986999e-05
-0.00023005987
1.5006392e-05
-0.00023977594
1.7371152e-05
-0.00025029323
2.0052002e-05
-0.00026153536
2.3083423e-05
-0.00027332542
2.630126e-05
-0.00028540872
2.9717089e-05
-0.00029731789
3.2850226e-05
-0.00030849552
3.5824107e-05
-0.00031794573
3.7233661e-05
-0.0003246135
3.8209858e-05
-0.00032737775
3.3226358e-05
3.048413e-05
-0.00018413583
3.1608723e-08
-0.00018412836
-2.8187774e-08
-0.00018412028
-2.2977608e-08
-0.00018410218
-5.126908e-08
-0.00018407997
-6.1135791e-08
-0.00018405066
-7.9044751e-08
-0.00018401635
-9.3222251e-08
-0.00018397602
-1.0793356e-07
-0.00018393045
-1.2301474e-07
-0.00018387936
-1.3694518e-07
-0.00018382311
-1.5192646e-07
-0.00018376171
-1.6569364e-07
-0.0001836954
-1.8023706e-07
-0.00018362437
-1.9376874e-07
-0.00018354888
-2.0759831e-07
-0.00018346927
-2.2050231e-07
-0.00018338594
-2.331971e-07
-0.00018329939
-2.4485446e-07
-0.00018321019
-2.5576718e-07
-0.00018311908
-2.653274e-07
-0.00018302689
-2.7353756e-07
-0.00018293462
-2.7988137e-07
-0.00018284344
-2.8415642e-07
-0.00018275466
-2.8585488e-07
-0.00018266981
-2.8461173e-07
-0.0001825906
-2.7991802e-07
-0.00018251897
-2.7132528e-07
-0.0001824571
-2.5825869e-07
-0.00018240763
-2.3993188e-07
-0.00018237377
-2.1538189e-07
-0.00018235914
-1.8396372e-07
-0.00018236757
-1.4528862e-07
-0.00018240261
-9.8219032e-08
-0.00018246827
-4.1727069e-08
-0.00018256826
2.3578658e-08
-0.00018270215
9.4460098e-08
-0.00018286795
1.7107149e-07
-0.00018306992
2.5479479e-07
-0.00018331385
3.4539126e-07
-0.00018360328
4.4393907e-07
-0.00018394224
5.501462e-07
-0.00018433408
6.63512e-07
-0.00018478176
7.836945e-07
-0.00018528789
9.1032713e-07
-0.0001858548
1.0428558e-06
-0.00018648448
1.1805867e-06
-0.00018717847
1.3226634e-06
-0.00018793787
1.4680874e-06
-0.00018876319
1.6157047e-06
-0.00018965434
1.7642155e-06
-0.00019061056
1.9121699e-06
-0.00019163034
2.0579743e-06
-0.00019271134
2.1998987e-06
-0.0001938504
2.3360946e-06
-0.00019504343
2.4646074e-06
-0.00019628544
2.583415e-06
-0.0001975705
2.6904607e-06
-0.00019889178
2.7837021e-06
-0.00020024158
2.861168e-06
-0.00020161144
2.9210291e-06
-0.00020299221
2.9616596e-06
-0.00020437427
2.9817263e-06
-0.00020574765
2.9802591e-06
-0.0002071023
2.9567273e-06
-0.00020842833
2.9111046e-06
-0.00020971627
2.8439229e-06
-0.00021095734
2.7563139e-06
-0.00021214375
2.6500162e-06
-0.00021326899
2.5273814e-06
-0.00021432801
2.3913394e-06
-0.0002153175
2.2453444e-06
-0.00021623603
2.0932967e-06
-0.00021708418
1.9394395e-06
-0.00021786455
1.7882255e-06
-0.0002185818
1.6441721e-06
-0.00021924249
1.5116909e-06
-0.00021985496
1.3948988e-06
-0.00022042906
1.2974355e-06
-0.00022097585
1.2222794e-06
-0.00022150726
1.1716094e-06
-0.00022203573
1.146721e-06
-0.00022257387
1.1480514e-06
-0.00022313422
1.1752839e-06
-0.00022372898
1.2275953e-06
-0.00022436999
1.3039234e-06
-0.00022506859
1.4032913e-06
-0.00022583578
1.5250309e-06
-0.00022668223
1.6689742e-06
-0.00022761846
1.8354767e-06
-0.000228655
2.0254285e-06
-0.00022980249
2.2401279e-06
-0.00023107179
2.4812196e-06
-0.00023247414
2.750554e-06
-0.00023402112
3.0501726e-06
-0.00023572472
3.382218e-06
-0.00023759735
3.7490419e-06
-0.00023965177
4.1531378e-06
-0.00024190112
4.5974071e-06
-0.00024435886
5.0850305e-06
-0.00024703868
5.6199605e-06
-0.00024995446
6.206639e-06
-0.00025312013
6.850889e-06
-0.00025654945
7.5592341e-06
-0.00026025571
8.3406289e-06
-0.00026425128
9.2047936e-06
-0.00026854677
1.0165582e-05
-0.00027315013
1.1237045e-05
-0.0002780648
1.2439943e-05
-0.00028328783
1.3792413e-05
-0.00028880641
1.5322834e-05
-0.00029459457
1.7048009e-05
-0.00030060715
1.8999575e-05
-0.00030677524
2.1174488e-05
-0.00031299741
2.3593316e-05
-0.00031913469
2.618929e-05
-0.00032500084
2.8949565e-05
-0.00033035744
3.1657862e-05
-0.00033491017
3.4269822e-05
-0.00033830029
3.6240348e-05
-0.00034012137
3.7645184e-05
-0.00033994037
3.7052661e-05
-0.00033718523
3.5454714e-05
-0.00033227456
2.8315692e-05
2.0790368e-05
-0.00023736947
5.1990862e-08
-0.00023737403
-2.3630871e-08
-0.00023737862
-1.8384903e-08
-0.00023737571
-5.4175311e-08
-0.00023737032
-6.653239e-08
-0.00023735965
-8.9712554e-08
-0.00023734589
-1.0698197e-07
-0.00023732803
-1.2579523e-07
-0.0002373072
-1.4384296e-07
-0.00023728307
-1.6107719e-07
-0.00023725633
-1.786597e-07
-0.00023722704
-1.949864e-07
-0.00023719576
-2.1151724e-07
-0.00023716279
-2.2674068e-07
-0.00023712872
-2.416665e-07
-0.00023709407
-2.5515545e-07
-0.00023705954
-2.6772257e-07
-0.00023702588
-2.7852016e-07
-0.00023699397
-2.8767536e-07
-0.0002369648
-2.9449978e-07
-0.0002369395
-2.9883638e-07
-0.00023691933
-3.0004849e-07
-0.00023690572
-2.9776193e-07
-0.00023690033
-2.9125277e-07
-0.00023690505
-2.7988964e-07
-0.000236922
-2.6296593e-07
-0.0002369535
-2.3983089e-07
-0.00023700207
-2.0968571e-07
-0.00023707032
-1.7167873e-07
-0.00023716101
-1.2469356e-07
-0.00023727698
-6.7990393e-08
-0.00023742166
-6.1200144e-10
-0.00023759526
7.5385472e-08
-0.00023779638
1.5939084e-07
-0.00023802628
2.5347421e-07
-0.00023828929
3.5747511e-07
-0.00023859026
4.7204031e-07
-0.00023893334
5.9787358e-07
-0.00023932294
7.3498675e-07
-0.00023976199
8.8299825e-07
-0.00024025331
1.0414641e-06
-0.00024079968
1.2098782e-06
-0.00024140367
1.3876813e-06
-0.00024206754
1.5741984e-06
-0.00024279322
1.7685425e-06
-0.00024358227
1.9696352e-06
-0.00024443578
2.176175e-06
-0.00024535435
2.386651e-06
-0.00024633797
2.5993231e-06
-0.00024738598
2.8122323e-06
-0.00024849701
3.0231968e-06
-0.00024966886
3.229822e-06
-0.00025089847
3.429515e-06
-0.0002521819
3.6195176e-06
-0.00025351422
3.796931e-06
-0.00025488959
3.9587817e-06
-0.00025630121
4.1020802e-06
-0.00025774141
4.2239021e-06
-0.00025920172
4.3214804e-06
-0.00026067301
4.3923165e-06
-0.00026214562
4.4342727e-06
-0.00026360959
4.4457021e-06
-0.00026505488
4.4255462e-06
-0.00026647159
4.3734339e-06
-0.00026785024
4.289761e-06
-0.00026918207
4.1757473e-06
-0.00027045923
4.0334741e-06
-0.00027167508
3.8658679e-06
-0.00027282438
3.6766838e-06
-0.00027390348
3.4704319e-06
-0.00027491041
3.2522775e-06
-0.00027584502
3.027912e-06
-0.00027670898
2.8033966e-06
-0.00027750572
2.5849682e-06
-0.00027824039
2.3788403e-06
-0.00027891968
2.1909794e-06
-0.00027955165
2.0268684e-06
-0.0002801455
1.8912898e-06
-0.00028071134
1.7881181e-06
-0.00028125991
1.7201755e-06
-0.00028180234
1.6891534e-06
-0.00028234995
1.6956612e-06
-0.00028291402
1.7393517e-06
-0.00028350563
1.8192047e-06
-0.00028413552
1.9338169e-06
-0.000284814
2.0817718e-06
-0.00028555086
2.2618913e-06
-0.00028635536
2.4734745e-06
-0.00028723623
2.7163416e-06
-0.00028820168
2.9908788e-06
-0.00028925946
3.2979102e-06
-0.00029041688
3.6386422e-06
-0.00029168083
4.0144997e-06
-0.00029305775
4.4270953e-06
-0.00029455365
4.8781132e-06
-0.000296174
5.3693919e-06
-0.00029792369
5.9028293e-06
-0.0002998069
6.480619e-06
-0.00030182698
7.1051081e-06
-0.00030398625
7.779238e-06
-0.00030628589
8.5062723e-06
-0.00030872556
9.2905625e-06
-0.00031130324
1.013691e-05
-0.00031401463
1.1052026e-05
-0.0003168528
1.2042958e-05
-0.00031980709
1.3119875e-05
-0.00032286245
1.4292401e-05
-0.00032599741
1.5574904e-05
-0.0003291829
1.6977908e-05
-0.0003323787
1.8518631e-05
-0.00033553187
2.0201183e-05
-0.00033857112
2.2038819e-05
-0.00034140631
2.4009677e-05
-0.00034392094
2.6107949e-05
-0.00034597677
2.824512e-05
-0.00034740618
3.037898e-05
-0.00034803005
3.2281731e-05
-0.00034765138
3.3891145e-05
-0.0003461089
3.4697874e-05
-0.00034324771
3.4783996e-05
-0.00033915096
3.2955909e-05
-0.00033377617
3.0079918e-05
-0.00032844685
2.2986373e-05
1.4924122e-05
-0.00027637538
8.8182499e-08
-0.00027640177
2.7619978e-09
-0.00027642868
8.5286145e-09
-0.00027645174
-3.1119919e-08
-0.00027647492
-4.3351958e-08
-0.00027649605
-6.8580815e-08
-0.00027651703
-8.6003077e-08
-0.00027653695
-1.0587616e-07
-0.00027655697
-1.2382266e-07
-0.00027657688
-1.4116288e-07
-0.00027659756
-1.5798285e-07
-0.00027661918
-1.7336599e-07
-0.00027664251
-1.8818412e-07
-0.00027666801
-2.0124664e-07
-0.00027669646
-2.1321941e-07
-0.00027672853
-2.2308387e-07
-0.00027676512
-2.3112971e-07
-0.00027680712
-2.3651776e-07
-0.0002768556
-2.3920286e-07
-0.00027691166
-2.3843862e-07
-0.00027697658
-2.3391534e-07
-0.00027705173
-2.2489615e-07
-0.00027713863
-2.1086499e-07
-0.00027723885
-1.9103143e-07
-0.00027735408
-1.6465616e-07
-0.00027748619
-1.3085638e-07
-0.00027763716
-8.8865406e-08
-0.000277809
-3.784569e-08
-0.00027800321
2.2539582e-08
-0.00027822004
9.2131879e-08
-0.00027845972
1.7168811e-07
-0.00027872258
2.6225215e-07
-0.00027901157
3.6437663e-07
-0.00027933083
4.7865102e-07
-0.00027968321
6.0585406e-07
-0.00028007256
7.4681666e-07
-0.00028050225
9.0173517e-07
-0.00028097463
1.0702518e-06
-0.00028149187
1.2522247e-06
-0.00028205642
1.4475499e-06
-0.00028267074
1.6557854e-06
-0.00028333712
1.8762599e-06
-0.00028405764
2.1082001e-06
-0.00028483409
2.3506467e-06
-0.00028566795
2.6024017e-06
-0.00028656033
2.862014e-06
-0.0002875119
3.127745e-06
-0.00028852282
3.3975718e-06
-0.00028959265
3.6691601e-06
-0.0002907203
3.9398775e-06
-0.00029190389
4.2067902e-06
-0.00029314075
4.4666813e-06
-0.00029442731
4.7160781e-06
-0.0002957591
4.9513068e-06
-0.00029713071
5.1685366e-06
-0.00029853581
5.3638802e-06
-0.00029996721
5.5334844e-06
-0.00030141696
5.6736479e-06
-0.00030287643
5.7809497e-06
-0.00030433651
5.8523983e-06
-0.00030578778
5.8855489e-06
-0.00030722075
5.8786637e-06
-0.00030862602
5.8308216e-06
-0.00030999461
5.7420256e-06
-0.00031131813
5.6132771e-06
-0.000312589
5.4466189e-06
-0.00031380068
5.2451523e-06
-0.0003149478
5.0129851e-06
-0.0003160263
4.7551827e-06
-0.00031703352
4.4776528e-06
-0.00031796824
4.1870029e-06
-0.0003188307
3.8903705e-06
-0.00031962253
3.5952264e-06
-0.0003203467
3.3091417e-06
-0.00032100742
3.0395575e-06
-0.00032160998
2.7935349e-06
-0.0003221606
2.5774965e-06
-0.00032266632
2.3970024e-06
-0.00032313474
2.2565393e-06
-0.00032357395
2.1593862e-06
-0.00032399234
2.1075466e-06
-0.0003243985
2.1018162e-06
-0.00032480105
2.1419042e-06
-0.00032520858
2.2267354e-06
-0.00032562949
2.3547272e-06
-0.00032607188
2.5241633e-06
-0.00032654343
2.7334387e-06
-0.00032705128
2.9813248e-06
-0.00032760196
3.2670188e-06
-0.0003282013
3.5902276e-06
-0.00032885444
3.9510435e-06
-0.00032956572
4.3499254e-06
-0.00033033875
4.7875331e-06
-0.00033117635
5.2646923e-06
-0.0003320805
5.7822647e-06
-0.00033305233
6.3412151e-06
-0.000334092
6.9425052e-06
-0.00033519869
7.5873092e-06
-0.00033637045
8.2768633e-06
-0.00033760406
9.0128501e-06
-0.00033889494
9.7971482e-06
-0.00034023684
1.0632466e-05
-0.00034162169
1.1521762e-05
-0.00034303908
1.246942e-05
-0.00034447595
1.3479822e-05
-0.00034591562
1.4559547e-05
-0.0003473373
1.5714081e-05
-0.00034871438
1.6951986e-05
-0.00035001379
1.827732e-05
-0.00035119331
1.9698143e-05
-0.00035220147
2.1209346e-05
-0.00035297397
2.281132e-05
-0.00035343628
2.447199e-05
-0.0003534998
2.6171464e-05
-0.00035307161
2.7816931e-05
-0.00035205074
2.9358112e-05
-0.00035035301
3.0584002e-05
-0.00034790053
3.1438659e-05
-0.00034468389
3.1481236e-05
-0.00034069592
3.0796031e-05
-0.00033616164
2.8421629e-05
-0.00033112118
2.5039454e-05
-0.0003266473
1.851249e-05
1.0857425e-05
-0.00030273247
1.4579858e-07
-0.00030278832
5.8612248e-08
-0.00030284474
6.4949894e-08
-0.00030290084
2.4984166e-08
-0.00030295901
1.4814219e-08
-0.0003030185
-9.0901387e-09
-0.00030308086
-2.3637943e-08
-0.00030314542
-4.1321961e-08
-0.00030321324
-5.6003182e-08
-0.00030328426
-7.0143012e-08
-0.00030335939
-8.2854113e-08
-0.00030343892
-9.3834426e-08
-0.0003035237
-1.0340537e-07
-0.00030361426
-1.1068237e-07
-0.00030371147
-1.1600768e-07
-0.00030381606
-1.1849227e-07
-0.00030392897
-1.1822107e-07
-0.0003040511
-1.1438565e-07
-0.00030418351
-1.0679676e-07
-0.00030432726
-9.4686402e-08
-0.00030448354
-7.7633182e-08
-0.00030465357
-5.4869886e-08
-0.00030483863
-2.5810664e-08
-0.00030503984
1.0186933e-08
-0.00030525803
5.3525543e-08
-0.0003054939
1.0502237e-07
-0.00030574832
1.6554827e-07
-0.00030602206
2.3589327e-07
-0.00030631631
3.1679096e-07
-0.00030663325
4.0907478e-07
-0.00030697508
5.1352143e-07
-0.00030734371
6.3087431e-07
-0.00030774172
7.6238999e-07
-0.00030817181
9.0874574e-07
-0.00030863601
1.0700469e-06
-0.00030913584
1.2466454e-06
-0.00030967292
1.4388193e-06
-0.00031024938
1.6467086e-06
-0.00031086738
1.8702277e-06
-0.00031152884
2.1090058e-06
-0.00031223558
2.3625284e-06
-0.00031298934
2.6300259e-06
-0.00031379172
2.9105731e-06
-0.00031464404
3.202974e-06
-0.00031554738
3.5057402e-06
-0.00031650243
3.8170593e-06
-0.00031750944
4.1347554e-06
-0.00031856815
4.4562858e-06
-0.0003196777
4.7787079e-06
-0.00032083652
5.0986975e-06
-0.00032204228
5.4125514e-06
-0.00032329182
5.7162196e-06
-0.00032458109
6.0053512e-06
-0.00032590516
6.2753786e-06
-0.00032725821
6.5215864e-06
-0.00032863359
6.7392522e-06
-0.00033002387
6.923771e-06
-0.00033142104
7.0708099e-06
-0.00033281655
7.1764679e-06
-0.00033420161
7.2374568e-06
-0.00033556729
7.2512318e-06
-0.0003369048
7.2161682e-06
-0.00033820565
7.1316697e-06
-0.00033946189
6.9982661e-06
-0.00034066628
6.8176697e-06
-0.00034181245
6.5927912e-06
-0.00034289503
6.3277265e-06
-0.00034390971
6.0276645e-06
-0.00034485333
5.6988058e-06
-0.00034572389
5.3482087e-06
-0.0003465205
4.9836127e-06
-0.00034724336
4.6132395e-06
-0.00034789371
4.2455712e-06
-0.00034847366
3.8890967e-06
-0.00034898618
3.552069e-06
-0.00034943489
3.2422522e-06
-0.00034982406
2.9666607e-06
-0.00035015841
2.7313512e-06
-0.00035044309
2.5412216e-06
-0.0003506836
2.3999017e-06
-0.00035088575
2.3096921e-06
-0.00035105558
2.2716484e-06
-0.00035119936
2.2856881e-06
-0.00035132351
2.3508791e-06
-0.00035143445
2.4656709e-06
-0.00035153855
2.628263e-06
-0.00035164193
2.836816e-06
-0.00035175034
3.089732e-06
-0.00035186901
3.3856947e-06
-0.00035200258
3.7237937e-06
-0.00035215494
4.1034046e-06
-0.00035232923
4.5242148e-06
-0.00035252774
4.9860487e-06
-0.00035275191
5.4888579e-06
-0.00035300225
6.0326019e-06
-0.00035327836
6.6173236e-06
-0.00035357887
7.243021e-06
-0.00035390141
7.909847e-06
-0.00035424251
8.6179604e-06
-0.00035459752
9.3678658e-06
-0.00035496055
1.016018e-05
-0.00035532424
1.099615e-05
-0.00035567962
1.1877143e-05
-0.00035601577
1.2805571e-05
-0.00035631958
1.378363e-05
-0.00035657505
1.4815019e-05
-0.00035676303
1.5902058e-05
-0.00035685999
1.7048954e-05
-0.00035683794
1.8255262e-05
-0.00035666255
1.9522759e-05
-0.00035629401
2.0840801e-05
-0.00035568472
2.2202036e-05
-0.00035478296
2.3570223e-05
-0.00035353053
2.4919037e-05
-0.00035187309
2.615949e-05
-0.00034975669
2.7241719e-05
-0.00034715245
2.7979756e-05
-0.00034404166
2.8327876e-05
-0.0003404802
2.7919767e-05
-0.00033651918
2.6835014e-05
-0.0003324309
2.4333356e-05
-0.00032832104
2.0929593e-05
-0.00032501583
1.5207282e-05
8.4221908e-06
-0.00031920258
2.2572348e-07
-0.00031928935
1.4538255e-07
-0.00031937821
1.5380753e-07
-0.00031947038
1.1716202e-07
-0.00031956592
1.1035089e-07
-0.00031966482
8.9812748e-08
-0.00031976817
7.9708792e-08
-0.00031987613
6.6635907e-08
-0.00031998977
5.7639688e-08
-0.0003201093
4.9389931e-08
-0.00032023564
4.3481859e-08
-0.00032036917
3.9697851e-08
-0.00032051074
3.8158573e-08
-0.00032066089
3.9469584e-08
-0.00032082044
4.3547404e-08
-0.00032099008
5.1141345e-08
-0.00032117061
6.2312982e-08
-0.0003213628
7.7802599e-08
-0.00032156747
9.7875286e-08
-0.00032178542
1.2326105e-07
-0.00032201746
1.5440669e-07
-0.00032226439
1.9205799e-07
-0.000322527
2.3680079e-07
-0.00032280622
2.8940516e-07
-0.00032310328
3.5059323e-07
-0.00032341947
4.2120493e-07
-0.00032375593
5.0200806e-07
-0.00032411389
5.9386043e-07
-0.00032449481
6.9770542e-07
-0.00032490033
8.1459844e-07
-0.00032533212
9.4530496e-07
-0.0003257917
1.0904605e-06
-0.00032628018
1.2508673e-06
-0.00032679859
1.4271553e-06
-0.00032734843
1.6198866e-06
-0.00032793136
1.8295741e-06
-0.000328549
2.0564602e-06
-0.00032920277
2.3004765e-06
-0.00032989405
2.5615114e-06
-0.00033062428
2.8392341e-06
-0.00033139486
3.1331125e-06
-0.00033220711
3.4422772e-06
-0.00033306219
3.7656544e-06
-0.00033396104
4.1018175e-06
-0.00033490428
4.448987e-06
-0.0003358922
4.8049796e-06
-0.00033692462
5.1671662e-06
-0.00033800079
5.5324638e-06
-0.00033911939
5.8972995e-06
-0.00034027833
6.2576387e-06
-0.00034147477
6.6089984e-06
-0.00034270505
6.9464993e-06
-0.00034396464
7.2649368e-06
-0.00034524816
7.558898e-06
-0.00034654943
7.8228604e-06
-0.00034786155
8.0513744e-06
-0.000349177
8.2392196e-06
-0.00035048779
8.381593e-06
-0.00035178561
8.4742938e-06
-0.00035306208
8.5139258e-06
-0.00035430888
8.4980303e-06
-0.00035551798
8.4252674e-06
-0.00035668182
8.2955095e-06
-0.00035779347
8.109919e-06
-0.00035884678
7.8709759e-06
-0.00035983645
7.5824603e-06
-0.00036075812
7.2494047e-06
-0.00036160842
6.877962e-06
-0.00036238491
6.4752926e-06
-0.00036308608
6.0493795e-06
-0.00036371129
5.6088256e-06
-0.00036426069
5.1626376e-06
-0.00036473511
4.7199918e-06
-0.00036513599
4.2899769e-06
-0.00036546528
3.8813541e-06
-0.00036572534
3.5023171e-06
-0.00036591892
3.1602446e-06
-0.00036604909
2.8615183e-06
-0.00036611921
2.6113399e-06
-0.00036613296
2.4136472e-06
-0.00036609432
2.2710619e-06
-0.00036600766
2.1849834e-06
-0.00036587762
2.155649e-06
-0.00036570917
2.1824288e-06
-0.00036550751
2.2640082e-06
-0.00036527796
2.3987156e-06
-0.00036502583
2.5846863e-06
-0.00036475625
2.8201517e-06
-0.00036447401
3.1034515e-06
-0.00036418341
3.4331981e-06
-0.00036388814
3.808136e-06
-0.00036359119
4.2272575e-06
-0.00036329478
4.6896419e-06
-0.00036300038
5.1944551e-06
-0.00036270861
5.7408372e-06
-0.00036241927
6.3279819e-06
-0.00036213127
6.9550182e-06
-0.00036184264
7.6212222e-06
-0.00036155054
8.3258551e-06
-0.00036125113
9.0684623e-06
-0.00036093961
9.8486597e-06
-0.00036061003
1.0666564e-05
-0.00036025521
1.1522322e-05
-0.00035986648
1.2416849e-05
-0.00035943356
1.3350706e-05
-0.00035894397
1.4325435e-05
-0.00035838297
1.5341056e-05
-0.00035773265
1.6398632e-05
-0.00035697207
1.749468e-05
-0.00035607608
1.8626775e-05
-0.00035501645
1.978117e-05
-0.00035376051
2.0946092e-05
-0.00035227485
2.2084561e-05
-0.00035052378
2.316797e-05
-0.00034847858
2.4114288e-05
-0.00034611331
2.4876457e-05
-0.00034342619
2.5292631e-05
-0.00034042087
2.5322553e-05
-0.00033716349
2.4662392e-05
-0.00033370228
2.3373804e-05
-0.00033026169
2.0892761e-05
-0.00032692784
1.7595746e-05
-0.00032431259
1.2592028e-05
6.6904056e-06
-0.00032875218
3.2466669e-07
-0.00032886356
2.5675575e-07
-0.00032897793
2.6817753e-07
-0.00032909877
2.3800622e-07
-0.00032922469
2.3626818e-07
-0.00032935642
2.2154618e-07
-0.00032949443
2.1771884e-07
-0.00032963906
2.1126786e-07
-0.00032979112
2.0969174e-07
-0.0003299509
2.0917407e-07
-0.00033011921
2.1179133e-07
-0.00033029648
2.1696406e-07
-0.00033048347
2.2514859e-07
-0.00033068073
2.3673531e-07
-0.00033088903
2.5184993e-07
-0.00033110902
2.7112951e-07
-0.00033134147
2.9476194e-07
-0.00033158711
3.2343724e-07
-0.00033184673
3.5749716e-07
-0.00033212112
3.9765562e-07
-0.00033241112
4.4440769e-07
-0.00033271757
4.9850232e-07
-0.00033304134
5.6056932e-07
-0.00033338339
6.314576e-07
-0.00033374476
7.1196524e-07
-0.00033412649
8.0293188e-07
-0.00033452961
9.0513432e-07
-0.00033495521
1.0194594e-06
-0.00033540426
1.1467519e-06
-0.00033587758
1.2879246e-06
-0.00033637608
1.4437984e-06
-0.00033690079
1.6151715e-06
-0.00033745287
1.8029532e-06
-0.0003380335
2.0077818e-06
-0.00033864372
2.2301084e-06
-0.00033928447
2.4703206e-06
-0.00033995672
2.7287089e-06
-0.00034066158
3.0053402e-06
-0.0003414002
3.300132e-06
-0.00034217364
3.6126713e-06
-0.0003429829
3.9423773e-06
-0.00034382889
4.2882667e-06
-0.00034471235
4.6491149e-06
-0.0003456338
5.0232597e-06
-0.00034659343
5.4086163e-06
-0.00034759106
5.8026133e-06
-0.00034862604
6.2021475e-06
-0.00034969715
6.6035771e-06
-0.00035080254
7.002686e-06
-0.00035193963
7.3947271e-06
-0.00035310508
7.774451e-06
-0.00035429476
8.1361815e-06
-0.00035550374
8.4739154e-06
-0.00035672632
8.7814751e-06
-0.0003579561
9.0526372e-06
-0.00035918608
9.2813538e-06
-0.00036040879
9.4619389e-06
-0.00036161648
9.5892821e-06
-0.00036280124
9.6590515e-06
-0.00036395522
9.6679074e-06
-0.00036507082
9.6136289e-06
-0.00036614084
9.4952893e-06
-0.00036715866
9.313326e-06
-0.00036811833
9.0695911e-06
-0.0003690147
8.7673455e-06
-0.00036984345
8.4112057e-06
-0.0003706011
8.0070608e-06
-0.00037128505
7.5619041e-06
-0.00037189345
7.0836935e-06
-0.00037242521
6.581143e-06
-0.00037287989
6.0635023e-06
-0.00037325758
5.540335e-06
-0.00037355887
5.021282e-06
-0.00037378471
4.515814e-06
-0.00037393636
4.0330027e-06
-0.00037401535
3.5813075e-06
-0.00037402345
3.1683443e-06
-0.00037396267
2.8007389e-06
-0.00037383529
2.4839574e-06
-0.0003736439
2.2222563e-06
-0.00037339145
2.0186174e-06
-0.00037308133
1.8748569e-06
-0.00037271734
1.7916651e-06
-0.00037230377
1.7688624e-06
-0.00037184526
1.8054908e-06
-0.00037134669
1.900147e-06
-0.00037081309
2.051084e-06
-0.00037024945
2.2565117e-06
-0.00036966056
2.5145687e-06
-0.0003690509
2.8235356e-06
-0.00036842445
3.1816841e-06
-0.00036778466
3.5874653e-06
-0.00036713431
4.0392907e-06
-0.00036647544
4.5355895e-06
-0.00036580935
5.0747442e-06
-0.00036513659
5.6552258e-06
-0.00036445699
6.2754132e-06
-0.00036376957
6.9338098e-06
-0.00036307261
7.6288903e-06
-0.00036236354
8.3593911e-06
-0.00036163897
9.124088e-06
-0.00036089456
9.9221565e-06
-0.00036012498
1.0752745e-05
-0.00035932369
1.1615557e-05
-0.00035848283
1.2509849e-05
-0.00035759287
1.3435473e-05
-0.00035664251
1.4390696e-05
-0.0003556181
1.537422e-05
-0.00035450382
1.6380404e-05
-0.0003532809
1.7403854e-05
-0.00035192867
1.8428933e-05
-0.00035042361
1.9441041e-05
-0.0003487427
2.0403645e-05
-0.00034686195
2.1287225e-05
-0.00034476465
2.2016982e-05
-0.00034243703
2.2548842e-05
-0.00033988791
2.2743506e-05
-0.00033713062
2.2565266e-05
-0.00033423589
2.1767661e-05
-0.00033125996
2.0397877e-05
-0.00032840488
1.8037678e-05
-0.00032576817
1.4959041e-05
-0.00032377903
1.0602884e-05
5.4919745e-06
-0.00033391609
4.3880813e-07
-0.00033404544
3.8610879e-07
-0.00033417811
4.0084774e-07
-0.00033431936
3.7925903e-07
-0.00033446682
3.8372448e-07
-0.00033462193
3.7665503e-07
-0.00033478466
3.8044917e-07
-0.00033495552
3.821286e-07
-0.00033513508
3.8925149e-07
-0.00033532377
3.978633e-07
-0.00033552229
4.1031178e-07
-0.00033573113
4.2580121e-07
-0.000335951
4.4501979e-07
-0.00033618247
4.6820464e-07
-0.00033642626
4.95638e-07
-0.000336683
5.2787055e-07
-0.00033695342
5.6518787e-07
-0.00033723823
6.0823992e-07