/*--------------------------------*- C++ -*----------------------------------*\
| =========                 |                                                 |
| \\      /  F ield         | foam-extend: Open Source CFD                    |
|  \\    /   O peration     | Version:     4.1                                |
|   \\  /    A nd           | Web:         http://www.foam-extend.org         |
|    \\/     M anipulation  |                                                 |
\*---------------------------------------------------------------------------*/
FoamFile
{
    version     2.0;
    format      ascii;
    class       volScalarField;
    location    "1.5";
    object      rAU;
}
// * * * * * * * * * * * * * * * * * * * * * * * * * * * * * * * * * * * * * //

dimensions      [0 0 1 0 0 0 0];

internalField   nonuniform List<scalar> 
16126
(
0.00049543572
0.00049501673
0.00049501703
0.00049501718
0.00049501756
0.00049501801
0.00049501857
0.00049501925
0.00049502001
0.00049502091
0.00049502187
0.00049502298
0.00049502416
0.00049502548
0.00049502688
0.00049502841
0.00049503003
0.00049503178
0.00049503362
0.00049503558
0.00049503762
0.00049503977
0.000495042
0.00049504433
0.00049504671
0.00049504916
0.00049505164
0.00049505416
0.00049505667
0.00049505918
0.00049506161
0.00049506397
0.00049506621
0.00049506827
0.00049507016
0.00049507179
0.00049507314
0.00049507411
0.00049507468
0.00049507415
0.00049507302
0.00049507128
0.00049506892
0.00049506589
0.00049506216
0.00049505767
0.00049505241
0.00049504635
0.00049503945
0.00049503172
0.00049502313
0.00049501369
0.00049500341
0.0004949923
0.0004949804
0.00049496774
0.00049495438
0.00049494037
0.0004949258
0.00049491074
0.00049489529
0.00049487956
0.00049486365
0.00049484769
0.00049483179
0.00049481607
0.00049480065
0.00049478564
0.00049477115
0.00049475727
0.00049474408
0.00049473162
0.00049471996
0.00049470909
0.00049469902
0.00049468972
0.00049468113
0.00049467319
0.00049466581
0.00049465888
0.00049465231
0.00049464597
0.00049463978
0.00049463363
0.00049462742
0.00049462108
0.00049461451
0.00049460762
0.00049460033
0.00049459251
0.00049458405
0.00049457479
0.00049456457
0.00049455323
0.00049454055
0.00049452634
0.00049451034
0.00049449231
0.00049447196
0.00049444896
0.00049442292
0.0004943934
0.00049435983
0.0004943215
0.00049427751
0.00049422662
0.00049416722
0.00049409707
0.00049401329
0.00049391184
0.00049378767
0.00049363403
0.00049344295
0.00049320423
0.00049290723
0.00049253887
0.00049208821
0.00049154169
0.00049089423
0.0004901344
0.00048928066
0.00048831504
0.00048738608
0.00048591085
0.00049396522
0.00049354876
0.00049354924
0.00049354933
0.00049354991
0.00049355058
0.00049355144
0.00049355253
0.00049355374
0.0004935552
0.00049355677
0.00049355859
0.00049356052
0.00049356269
0.00049356499
0.00049356751
0.00049357015
0.00049357301
0.00049357599
0.00049357916
0.00049358244
0.00049358589
0.00049358942
0.00049359308
0.00049359678
0.00049360056
0.0004936043
0.00049360805
0.00049361168
0.00049361521
0.00049361851
0.00049362158
0.00049362433
0.00049362661
0.00049362835
0.00049362938
0.00049362951
0.00049362728
0.0004936241
0.00049361927
0.00049361325
0.0004936059
0.00049359715
0.00049358689
0.00049357506
0.00049356159
0.00049354644
0.00049352957
0.00049351095
0.00049349057
0.00049346845
0.00049344461
0.0004934191
0.00049339199
0.00049336339
0.0004933334
0.00049330216
0.00049326986
0.00049323666
0.0004932028
0.0004931685
0.00049313399
0.00049309956
0.00049306544
0.00049303192
0.00049299925
0.00049296767
0.00049293741
0.00049290865
0.00049288155
0.00049285624
0.00049283277
0.00049281117
0.0004927914
0.00049277335
0.00049275688
0.00049274178
0.00049272782
0.00049271471
0.00049270215
0.00049268982
0.00049267741
0.0004926646
0.00049265109
0.00049263661
0.00049262088
0.00049260363
0.0004925846
0.00049256349
0.00049254
0.0004925138
0.00049248455
0.00049245184
0.00049241527
0.00049237438
0.00049232867
0.00049227758
0.00049222054
0.00049215685
0.00049208578
0.00049200647
0.00049191796
0.00049181916
0.00049170877
0.00049158534
0.00049144713
0.00049129221
0.00049111824
0.00049092276
0.00049070283
0.00049045567
0.000490178
0.00048986765
0.00048952201
0.00048914166
0.00048872665
0.0004882845
0.00048782041
0.00048735687
0.00048690435
0.00048652228
0.00048620626
0.00048615524
0.00048575113
0.00049188483
0.00049147182
0.0004914722
0.00049147191
0.00049147227
0.00049147265
0.00049147324
0.00049147406
0.00049147497
0.00049147615
0.0004914774
0.0004914789
0.00049148047
0.00049148227
0.00049148415
0.00049148624
0.0004914884
0.00049149074
0.00049149313
0.00049149568
0.00049149825
0.00049150093
0.00049150359
0.00049150631
0.00049150894
0.00049151156
0.00049151402
0.00049151636
0.00049151843
0.00049152026
0.00049152166
0.00049152259
0.00049152299
0.00049152268
0.00049152091
0.00049151674
0.00049151148
0.00049150373
0.00049149471
0.00049148409
0.00049147188
0.00049145788
0.00049144205
0.00049142429
0.00049140454
0.00049138275
0.00049135889
0.00049133294
0.00049130491
0.00049127481
0.00049124269
0.00049120864
0.00049117274
0.00049113514
0.00049109598
0.00049105547
0.0004910138
0.00049097125
0.00049092806
0.00049088454
0.00049084101
0.00049079778
0.00049075518
0.00049071353
0.00049067315
0.00049063432
0.0004905973
0.00049056231
0.00049052951
0.00049049902
0.00049047087
0.00049044506
0.00049042151
0.00049040004
0.00049038045
0.00049036245
0.00049034571
0.00049032986
0.00049031452
0.00049029926
0.00049028369
0.0004902674
0.00049025001
0.00049023117
0.00049021053
0.00049018776
0.00049016252
0.00049013449
0.00049010333
0.00049006868
0.0004900302
0.00048998749
0.00048994017
0.00048988784
0.00048983007
0.00048976643
0.00048969647
0.00048961972
0.00048953566
0.00048944379
0.00048934355
0.00048923434
0.00048911556
0.00048898652
0.00048884654
0.00048869482
0.00048853064
0.00048835315
0.00048816171
0.00048795559
0.00048773469
0.00048749889
0.0004872497
0.00048698862
0.0004867208
0.00048645087
0.00048619103
0.00048594979
0.00048575249
0.00048560756
0.00048557044
0.00048562419
0.00048592336
0.00048589621
0.0004902396
0.00048982948
0.00048982947
0.00048982849
0.00048982824
0.00048982789
0.00048982775
0.00048982775
0.0004898278
0.00048982805
0.00048982829
0.00048982872
0.00048982914
0.00048982972
0.00048983027
0.00048983095
0.00048983159
0.00048983232
0.00048983298
0.0004898337
0.00048983431
0.00048983492
0.00048983537
0.00048983577
0.00048983594
0.00048983597
0.00048983568
0.00048983514
0.00048983418
0.00048983286
0.00048983101
0.00048982863
0.00048982335
0.00048981713
0.00048980938
0.00048979909
0.00048978753
0.00048977438
0.00048975967
0.00048974312
0.0004897248
0.00048970452
0.00048968229
0.00048965802
0.00048963167
0.00048960322
0.00048957266
0.00048954001
0.0004895053
0.00048946859
0.00048942996
0.00048938955
0.00048934748
0.00048930395
0.00048925916
0.00048921336
0.00048916681
0.00048911981
0.00048907269
0.00048902578
0.00048897943
0.00048893397
0.00048888976
0.0004888471
0.00048880628
0.00048876757
0.00048873116
0.00048869721
0.00048866579
0.00048863694
0.00048861061
0.00048858667
0.00048856497
0.00048854524
0.00048852719
0.00048851049
0.00048849475
0.00048847959
0.00048846462
0.00048844942
0.00048843363
0.00048841687
0.00048839882
0.00048837917
0.0004883576
0.00048833385
0.00048830764
0.00048827868
0.0004882467
0.00048821141
0.00048817257
0.00048812988
0.00048808308
0.00048803192
0.00048797614
0.00048791552
0.00048784983
0.00048777888
0.00048770244
0.00048762034
0.00048753243
0.00048743852
0.0004873385
0.00048723224
0.00048711965
0.00048700064
0.00048687526
0.00048674354
0.00048660582
0.00048646247
0.00048631459
0.0004861634
0.00048601171
0.00048586244
0.00048572177
0.00048559516
0.0004854945
0.00048542706
0.00048541414
0.00048545811
0.00048559975
0.00048581052
0.00048618787
0.00048618964
0.00048904083
0.0004886334
0.00048863253
0.00048863092
0.0004886298
0.00048862842
0.0004886272
0.00048862602
0.00048862482
0.00048862372
0.00048862253
0.00048862144
0.00048862023
0.00048861909
0.00048861781
0.00048861657
0.00048861516
0.00048861375
0.00048861214
0.00048861049
0.0004886086
0.00048860661
0.00048860434
0.00048860192
0.00048859916
0.00048859619
0.00048859282
0.00048858916
0.00048858433
0.00048857774
0.00048857037
0.00048856234
0.00048855124
0.00048853887
0.00048852526
0.00048851015
0.00048849356
0.00048847524
0.00048845528
0.00048843347
0.00048840991
0.00048838438
0.00048835695
0.00048832755
0.00048829615
0.00048826277
0.00048822741
0.00048819014
0.000488151
0.0004881101
0.00048806755
0.00048802352
0.00048797819
0.00048793179
0.00048788456
0.00048783679
0.0004877888
0.0004877409
0.00048769345
0.00048764681
0.00048760132
0.00048755733
0.00048751514
0.00048747506
0.00048743731
0.00048740208
0.00048736953
0.00048733972
0.00048731266
0.00048728829
0.00048726649
0.00048724708
0.00048722984
0.00048721446
0.00048720065
0.00048718805
0.00048717632
0.00048716507
0.00048715399
0.00048714272
0.00048713096
0.00048711843
0.00048710488
0.00048709008
0.00048707381
0.00048705587
0.00048703608
0.00048701422
0.00048699011
0.00048696356
0.00048693439
0.00048690244
0.00048686755
0.00048682958
0.00048678843
0.00048674401
0.00048669626
0.00048664514
0.00048659064
0.00048653277
0.00048647158
0.00048640711
0.00048633948
0.0004862688
0.00048619526
0.00048611904
0.0004860405
0.00048596001
0.00048587825
0.00048579598
0.00048571463
0.00048563574
0.00048556222
0.00048549692
0.00048544531
0.00048541171
0.00048540552
0.00048543097
0.00048550375
0.00048562162
0.00048581395
0.00048605347
0.00048640389
0.00048636738
0.00048823353
0.00048782757
0.00048782563
0.00048782422
0.00048782241
0.00048782037
0.00048781798
0.00048781551
0.00048781296
0.0004878104
0.00048780768
0.00048780496
0.00048780204
0.0004877991
0.00048779593
0.00048779271
0.00048778923
0.00048778567
0.00048778182
0.00048777785
0.00048777356
0.00048776911
0.00048776432
0.000487759
0.00048775231
0.00048774516
0.00048773737
0.00048772907
0.00048771937
0.00048770763
0.00048769475
0.00048768076
0.00048766557
0.00048764895
0.00048763098
0.00048761143
0.0004875904
0.00048756768
0.00048754337
0.00048751725
0.00048748945
0.00048745977
0.00048742831
0.00048739501
0.00048735987
0.00048732293
0.00048728423
0.00048724384
0.00048720185
0.0004871584
0.00048711365
0.00048706779
0.00048702104
0.00048697368
0.00048692599
0.00048687829
0.00048683093
0.00048678425
0.00048673863
0.00048669443
0.00048665198
0.0004866116
0.00048657358
0.00048653816
0.00048650553
0.00048647581
0.00048644909
0.00048642536
0.00048640456
0.00048638658
0.00048637125
0.00048635833
0.00048634757
0.00048633867
0.00048633132
0.00048632518
0.00048631995
0.00048631529
0.00048631094
0.00048630661
0.00048630206
0.0004862971
0.00048629154
0.00048628521
0.00048627797
0.00048626969
0.00048626022
0.00048624942
0.00048623717
0.00048622333
0.00048620779
0.00048619042
0.00048617116
0.00048614991
0.00048612666
0.00048610137
0.00048607406
0.00048604478
0.00048601359
0.00048598057
0.00048594585
0.00048590957
0.00048587191
0.00048583308
0.00048579334
0.00048575297
0.00048571238
0.00048567203
0.00048563264
0.00048559501
0.00048556049
0.0004855305
0.00048550758
0.00048549408
0.00048549443
0.00048551181
0.00048555344
0.00048562161
0.00048572796
0.00048586846
0.00048606402
0.00048629094
0.00048658904
0.00048649067
0.00048772944
0.00048732343
0.00048732049
0.00048731894
0.0004873163
0.00048731379
0.00048731061
0.00048730737
0.00048730386
0.00048730027
0.00048729638
0.00048729237
0.00048728801
0.00048728349
0.00048727859
0.00048727348
0.00048726794
0.00048726214
0.00048725587
0.00048724929
0.00048724218
0.00048723472
0.00048722669
0.00048721792
0.00048720753
0.00048719639
0.00048718428
0.0004871713
0.00048715722
0.00048714213
0.00048712579
0.00048710826
0.00048708946
0.00048706922
0.00048704766
0.00048702454
0.00048699999
0.00048697377
0.00048694604
0.00048691657
0.00048688553
0.00048685272
0.00048681827
0.00048678212
0.00048674432
0.0004867049
0.00048666395
0.00048662157
0.00048657787
0.00048653304
0.00048648726
0.00048644077
0.00048639383
0.00048634676
0.00048629988
0.00048625354
0.00048620811
0.00048616396
0.00048612145
0.00048608095
0.00048604279
0.00048600724
0.00048597456
0.00048594495
0.00048591853
0.00048589538
0.00048587551
0.00048585885
0.0004858453
0.00048583469
0.00048582681
0.00048582139
0.00048581816
0.00048581682
0.00048581706
0.00048581857
0.00048582106
0.00048582424
0.00048582788
0.00048583174
0.00048583564
0.00048583942
0.00048584292
0.00048584605
0.00048584867
0.00048585069
0.000485852
0.0004858525
0.00048585208
0.00048585063
0.00048584808
0.00048584432
0.00048583931
0.00048583301
0.00048582538
0.00048581644
0.00048580622
0.00048579479
0.0004857822
0.00048576858
0.00048575404
0.00048573873
0.00048572281
0.0004857065
0.00048569002
0.00048567364
0.00048565774
0.00048564274
0.00048562926
0.00048561804
0.00048561023
0.00048560705
0.0004856106
0.00048562275
0.00048564706
0.00048568585
0.00048574477
0.00048582511
0.00048593599
0.00048607358
0.00048625353
0.00048645775
0.00048671069
0.00048656454
0.00048743627
0.00048702979
0.00048702601
0.0004870235
0.00048701983
0.0004870165
0.00048701257
0.00048700862
0.00048700423
0.00048699967
0.00048699469
0.00048698946
0.00048698378
0.00048697779
0.0004869713
0.00048696443
0.00048695698
0.0004869491
0.00048694056
0.0004869315
0.0004869217
0.00048691129
0.00048690006
0.00048688812
0.00048687524
0.00048686155
0.00048684682
0.00048683115
0.00048681433
0.00048679646
0.00048677731
0.00048675699
0.00048673541
0.0004867124
0.00048668809
0.00048666225
0.00048663503
0.00048660621
0.00048657594
0.00048654403
0.00048651064
0.0004864756
0.00048643904
0.00048640094
0.00048636135
0.00048632035
0.00048627804
0.00048623455
0.00048619004
0.00048614471
0.00048609881
0.00048605259
0.00048600637
0.00048596049
0.0004859153
0.00048587119
0.00048582852
0.00048578769
0.00048574905
0.00048571296
0.00048567971
0.00048564955
0.00048562269
0.00048559929
0.0004855794
0.00048556306
0.00048555022
0.00048554077
0.00048553454
0.00048553133
0.0004855309
0.00048553296
0.00048553723
0.0004855434
0.00048555116
0.00048556023
0.00048557032
0.00048558117
0.00048559259
0.00048560434
0.00048561628
0.00048562824
0.00048564012
0.00048565181
0.00048566319
0.00048567418
0.00048568467
0.00048569458
0.00048570381
0.00048571225
0.00048571985
0.00048572651
0.00048573219
0.00048573683
0.00048574045
0.00048574303
0.00048574461
0.00048574525
0.00048574501
0.00048574399
0.00048574231
0.00048574008
0.00048573747
0.00048573465
0.00048573184
0.00048572928
0.0004857273
0.0004857263
0.00048572684
0.00048572959
0.00048573557
0.00048574585
0.00048576225
0.00048578636
0.00048582116
0.00048586852
0.00048593304
0.00048601558
0.00048612319
0.00048625236
0.00048641407
0.00048659403
0.00048680627
0.00048661707
0.00048727622
0.00048686909
0.00048686467
0.00048686134
0.00048685687
0.00048685265
0.00048684778
0.00048684284
0.00048683739
0.00048683172
0.00048682557
0.00048681912
0.00048681215
0.00048680482
0.00048679691
0.00048678858
0.00048677961
0.00048677014
0.00048675996
0.0004867492
0.00048673765
0.00048672544
0.00048671234
0.00048669849
0.00048668365
0.00048666798
0.00048665122
0.00048663353
0.00048661466
0.00048659474
0.00048657354
0.00048655116
0.00048652754
0.00048650251
0.00048647622
0.00048644844
0.00048641934
0.00048638868
0.00048635666
0.00048632306
0.00048628808
0.00048625156
0.00048621363
0.00048617431
0.00048613367
0.00048609181
0.00048604885
0.00048600496
0.00048596033
0.0004859152
0.00048586984
0.00048582455
0.00048577966
0.00048573556
0.00048569261
0.0004856512
0.00048561173
0.00048557456
0.00048554004
0.00048550852
0.00048548024
0.00048545543
0.00048543425
0.0004854168
0.00048540311
0.00048539314
0.00048538683
0.00048538399
0.00048538445
0.00048538797
0.00048539427
0.00048540307
0.00048541407
0.00048542697
0.00048544146
0.00048545725
0.00048547408
0.00048549171
0.00048550992
0.00048552851
0.00048554731
0.00048556619
0.00048558502
0.00048560367
0.00048562206
0.00048564006
0.00048565759
0.00048567454
0.00048569081
0.00048570631
0.00048572097
0.00048573471
0.00048574747
0.00048575922
0.00048576994
0.00048577965
0.00048578836
0.00048579614
0.00048580303
0.00048580912
0.00048581451
0.00048581932
0.00048582369
0.00048582779
0.00048583181
0.00048583599
0.00048584065
0.00048584616
0.00048585307
0.00048586201
0.00048587392
0.00048588979
0.00048591125
0.00048593968
0.00048597766
0.00048602675
0.00048609077
0.00048617034
0.000486271
0.00048638982
0.00048653448
0.00048669398
0.00048687544
0.00048665344
0.00048719334
0.00048678551
0.00048678061
0.0004867766
0.0004867715
0.00048676659
0.000486761
0.00048675528
0.00048674902
0.0004867425
0.00048673545
0.00048672806
0.0004867201
0.00048671173
0.00048670275
0.00048669329
0.00048668316
0.00048667248
0.00048666105
0.00048664901
0.00048663614
0.00048662257
0.00048660809
0.00048659284
0.00048657658
0.00048655945
0.00048654124
0.00048652206
0.00048650171
0.00048648031
0.00048645764
0.00048643381
0.00048640877
0.00048638233
0.00048635467
0.00048632556
0.00048629516
0.00048626327
0.00048623008
0.00048619538
0.00048615939
0.00048612195
0.00048608323
0.00048604325
0.0004860021
0.00048595991
0.00048591683
0.00048587306
0.0004858288
0.00048578434
0.00048573997
0.00048569601
0.00048565283
0.00048561081
0.00048557034
0.00048553181
0.0004854956
0.00048546208
0.00048543158
0.0004854044
0.00048538076
0.00048536086
0.00048534482
0.00048533269
0.00048532446
0.00048532007
0.00048531939
0.00048532224
0.00048532841
0.00048533764
0.00048534966
0.00048536415
0.00048538084
0.0004853994
0.00048541954
0.00048544098
0.00048546345
0.0004854867
0.00048551053
0.00048553471
0.00048555908
0.00048558348
0.00048560777
0.00048563181
0.00048565548
0.00048567867
0.00048570127
0.00048572315
0.00048574424
0.00048576442
0.00048578363
0.00048580179
0.00048581883
0.00048583474
0.0004858495
0.00048586312
0.00048587563
0.00048588709
0.00048589755
0.00048590711
0.00048591588
0.00048592397
0.00048593153
0.00048593875
0.00048594583
0.00048595302
0.00048596065
0.00048596912
0.00048597896
0.0004859908
0.00048600554
0.00048602412
0.00048604799
0.00048607842
0.00048611762
0.00048616689
0.00048622932
0.0004863053
0.00048639894
0.00048650762
0.00048663629
0.00048677637
0.00048693094
0.00048668106
0.00048715179
0.00048674331
0.00048673807
0.00048673352
0.00048672796
0.0004867225
0.00048671637
0.00048671007
0.00048670319
0.00048669602
0.00048668829
0.00048668019
0.00048667149
0.00048666235
0.00048665256
0.00048664227
0.00048663127
0.00048661971
0.00048660736
0.00048659437
0.00048658054
0.00048656598
0.0004865505
0.00048653422
0.00048651693
0.00048649876
0.0004864795
0.00048645929
0.00048643789
0.00048641546
0.00048639177
0.00048636693
0.00048634089
0.00048631349
0.00048628489
0.00048625487
0.00048622362
0.00048619092
0.00048615697
0.00048612158
0.00048608498
0.00048604702
0.00048600789
0.00048596762
0.00048592633
0.00048588417
0.0004858413
0.00048579796
0.00048575437
0.00048571084
0.00048566767
0.00048562522
0.00048558385
0.00048554396
0.00048550593
0.00048547017
0.00048543702
0.00048540686
0.00048537997
0.00048535664
0.00048533707
0.00048532141
0.00048530974
0.00048530209
0.00048529843
0.00048529866
0.00048530264
0.00048531017
0.00048532103
0.00048533495
0.00048535165
0.00048537083
0.0004853922
0.00048541545
0.00048544028
0.00048546641
0.00048549357
0.0004855215
0.00048554999
0.00048557879
0.00048560772
0.0004856366
0.00048566046
0.00048568299
0.0004857072
0.00048573294
0.00048576006
0.00048578841
0.00048581783
0.00048584754
0.00048586967
0.00048589054
0.00048591013
0.0004859284
0.00048594536
0.000485961
0.00048597538
0.00048598857
0.00048600064
0.00048601168
0.00048602182
0.00048603119
0.00048603996
0.00048604834
0.00048605653
0.00048606481
0.00048607354
0.00048608311
0.00048609407
0.00048610703
0.00048612286
0.00048614243
0.00048616706
0.00048619786
0.00048623673
0.00048628476
0.00048634445
0.00048641603
0.00048650255
0.00048660178
0.0004867168
0.0004868409
0.00048697451
0.0004867024
0.00048713091
0.00048672187
0.00048671639
0.00048671139
0.00048670549
0.0004866996
0.00048669305
0.0004866863
0.00048667896
0.0004866713
0.00048666306
0.00048665442
0.00048664515
0.00048663543
0.00048662503
0.00048661412
0.00048660247
0.00048659024
0.00048657721
0.00048656352
0.00048654897
0.00048653369
0.00048651746
0.00048650044
0.00048648239
0.00048646347
0.00048644344
0.00048642247
0.00048640031
0.00048637713
0.0004863527
0.00048632713
0.00048630039
0.0004862723
0.00048624304
0.0004862124
0.00048618055
0.00048614731
0.00048611286
0.00048607704
0.00048604007
0.00048600183
0.00048596252
0.00048592218
0.00048588096
0.00048583901
0.00048579653
0.00048575377
0.00048571096
0.00048566843
0.0004856265
0.00048558554
0.0004855459
0.00048550801
0.00048547222
0.00048543893
0.00048540849
0.00048538123
0.00048535744
0.00048533738
0.0004853212
0.00048530904
0.00048530097
0.00048529698
0.00048529704
0.00048530101
0.00048530877
0.00048532009
0.00048533475
0.0004853525
0.00048537304
0.00048539609
0.00048542136
0.00048544853
0.00048547731
0.00048550741
0.00048553855
0.00048557046
0.00048560292
0.00048563565
0.00048566107
0.00048568168
0.00048569943
0.00048571804
0.00048574052
0.00048576672
0.00048579644
0.00048582946
0.00048586556
0.00048590386
0.0004859364
0.00048596945
0.00048600289
0.00048602327
0.00048604142
0.0004860581
0.00048607337
0.00048608731
0.0004861
0.00048611158
0.00048612219
0.00048613198
0.00048614114
0.0004861499
0.0004861585
0.00048616723
0.00048617647
0.00048618663
0.00048619825
0.00048621194
0.00048622849
0.00048624872
0.00048627381
0.00048630473
0.00048634306
0.00048638969
0.00048644656
0.00048651373
0.00048659335
0.00048668345
0.00048678571
0.00048689491
0.00048701022
0.00048671943
0.00048711969
0.00048671019
0.00048670454
0.00048669918
0.000486693
0.00048668678
0.0004866799
0.00048667279
0.00048666509
0.00048665704
0.00048664839
0.00048663932
0.00048662962
0.00048661944
0.00048660857
0.00048659717
0.00048658501
0.00048657226
0.0004865587
0.00048654447
0.00048652936
0.00048651352
0.00048649672
0.00048647912
0.0004864605
0.00048644099
0.00048642038
0.00048639883
0.0004863761
0.00048635235
0.00048632737
0.00048630125
0.00048627397
0.00048624538
0.00048621563
0.00048618452
0.00048615224
0.0004861186
0.00048608381
0.00048604769
0.0004860105
0.00048597211
0.00048593273
0.00048589243
0.00048585137
0.0004858097
0.00048576766
0.00048572548
0.00048568344
0.00048564185
0.00048560106
0.00048556143
0.00048552333
0.00048548715
0.00048545328
0.00048542208
0.00048539389
0.00048536904
0.00048534779
0.00048533036
0.00048531692
0.00048530759
0.0004853024
0.00048530135
0.00048530438
0.00048531138
0.00048532219
0.00048533662
0.00048535443
0.00048537537
0.00048539916
0.00048542551
0.00048545415
0.00048548474
0.000485517
0.00048555062
0.00048558532
0.00048562081
0.00048565683
0.00048567998
0.00048569256
0.00048570255
0.00048571677
0.00048573516
0.00048575758
0.00048578387
0.00048581383
0.00048584723
0.00048588383
0.00048592336
0.00048596557
0.00048601018
0.00048605693
0.00048609227
0.00048612691
0.00048614977
0.00048616549
0.00048617976
0.00048619268
0.00048620441
0.00048621509
0.00048622491
0.00048623408
0.00048624285
0.00048625149
0.00048626029
0.00048626965
0.00048627997
0.0004862918
0.00048630571
0.00048632244
0.00048634276
0.00048636767
0.00048639805
0.0004864352
0.00048647986
0.00048653351
0.00048659615
0.00048666925
0.00048675112
0.00048684251
0.00048693928
0.00048703975
0.00048673348
0.00048711279
0.00048670289
0.00048669711
0.00048669144
0.00048668505
0.00048667853
0.00048667139
0.00048666398
0.00048665597
0.0004866476
0.00048663861
0.0004866292
0.00048661913
0.00048660857
0.00048659731
0.0004865855
0.00048657293
0.00048655975
0.00048654575
0.00048653108
0.00048651551
0.00048649921
0.00048648194
0.00048646387
0.00048644477
0.00048642479
0.00048640371
0.00048638168
0.00048635848
0.00048633426
0.00048630882
0.00048628225
0.00048625454
0.00048622553
0.00048619538
0.0004861639
0.00048613127
0.00048609732
0.00048606225
0.00048602592
0.00048598855
0.00048595006
0.00048591066
0.00048587043
0.00048582952
0.00048578813
0.00048574648
0.00048570482
0.00048566345
0.00048562267
0.00048558284
0.00048554432
0.00048550748
0.00048547272
0.0004854404
0.00048541088
0.0004853845
0.00048536155
0.0004853423
0.00048532697
0.0004853157
0.0004853086
0.0004853057
0.00048530701
0.00048531246
0.00048532193
0.00048533529
0.00048535234
0.00048537284
0.00048539656
0.00048542323
0.00048545255
0.00048548424
0.00048551798
0.00048555347
0.0004855904
0.00048562845
0.00048566732
0.0004856932
0.00048569899
0.00048570383
0.0004857131
0.00048572678
0.0004857448
0.00048576703
0.0004857933
0.00048582341
0.00048585712
0.00048589417
0.00048593429
0.00048597718
0.00048602256
0.00048607014
0.00048611964
0.00048617079
0.00048621163
0.00048624664
0.00048626532
0.00048627831
0.00048629002
0.00048630065
0.00048631038
0.00048631946
0.00048632815
0.00048633674
0.00048634554
0.00048635495
0.00048636538
0.00048637734
0.00048639139
0.00048640822
0.00048642848
0.00048645309
0.00048648278
0.00048651861
0.00048656115
0.00048661152
0.00048666962
0.00048673638
0.00048681033
0.0004868916
0.00048697694
0.00048706443
0.00048674507
0.00048710771
0.0004866975
0.0004866916
0.00048668566
0.00048667908
0.00048667231
0.00048666494
0.00048665727
0.00048664899
0.00048664034
0.00048663106
0.00048662134
0.00048661095
0.00048660006
0.00048658846
0.0004865763
0.00048656337
0.00048654982
0.00048653543
0.00048652037
0.00048650441
0.0004864877
0.00048647003
0.00048645155
0.00048643204
0.00048641164
0.00048639015
0.00048636771
0.0004863441
0.00048631948
0.00048629364
0.00048626668
0.0004862386
0.00048620922
0.00048617872
0.00048614691
0.00048611398
0.00048607976
0.00048604445
0.00048600791
0.0004859704
0.00048593181
0.00048589238
0.00048585218
0.0004858114
0.00048577022
0.00048572887
0.00048568763
0.00048564677
0.00048560663
0.00048556754
0.00048552988
0.00048549402
0.00048546034
0.0004854292
0.00048540096
0.00048537595
0.00048535446
0.00048533675
0.00048532302
0.00048531343
0.00048530808
0.00048530701
0.00048531022
0.00048531766
0.00048532921
0.00048534475
0.00048536409
0.00048538701
0.00048541326
0.0004854426
0.00048547471
0.00048550933
0.00048554612
0.00048558476
0.00048562493
0.0004856663
0.00048570027
0.00048570429
0.00048570354
0.00048570738
0.00048571587
0.00048572896
0.00048574659
0.00048576863
0.00048579491
0.00048582522
0.0004858593
0.00048589687
0.00048593765
0.00048598133
0.00048602759
0.00048607611
0.00048612659
0.00048617873
0.00048623226
0.00048628693
0.00048632644
0.00048635815
0.00048636975
0.00048638021
0.00048638975
0.00048639861
0.00048640708
0.00048641545
0.00048642407
0.00048643331
0.0004864436
0.0004864554
0.00048646927
0.0004864858
0.00048650562
0.00048652951
0.00048655807
0.0004865922
0.00048663234
0.00048667931
0.00048673298
0.00048679389
0.00048686076
0.00048693332
0.00048700894
0.00048708554
0.00048675502
0.00048710344
0.00048669295
0.00048668695
0.00048668077
0.00048667403
0.00048666702
0.00048665944
0.00048665153
0.00048664302
0.0004866341
0.00048662456
0.00048661456
0.00048660388
0.00048659269
0.00048658078
0.0004865683
0.00048655503
0.00048654115
0.00048652642
0.000486511
0.00048649468
0.00048647761
0.00048645957
0.00048644072
0.00048642083
0.00048640006
0.00048637819
0.00048635537
0.00048633139
0.0004863064
0.00048628019
0.00048625288
0.00048622445
0.00048619473
0.00048616391
0.00048613179
0.00048609858
0.00048606409
0.00048602855
0.00048599181
0.00048595413
0.00048591542
0.00048587593
0.00048583572
0.00048579499
0.00048575393
0.00048571278
0.00048567181
0.00048563131
0.00048559161
0.00048555305
0.00048551599
0.00048548081
0.0004854479
0.0004854176
0.00048539028
0.00048536626
0.00048534583
0.00048532925
0.00048531673
0.00048530841
0.00048530442
0.00048530481
0.00048530958
0.00048531869
0.00048533205
0.00048534953
0.00048537095
0.00048539611
0.00048542477
0.00048545667
0.00048549152
0.00048552903
0.00048556885
0.00048561066
0.00048565411
0.00048569884
0.0004857095
0.00048570277
0.00048570075
0.00048570354
0.0004857112
0.00048572369
0.00048574095
0.00048576284
0.00048578919
0.00048581978
0.00048585433
0.00048589255
0.00048593413
0.00048597872
0.00048602599
0.00048607559
0.00048612719
0.00048618046
0.00048623511
0.00048629084
0.00048634743
0.00048640148
0.00048643625
0.00048645478
0.00048646405
0.00048647263
0.00048648082
0.00048648893
0.00048649729
0.0004865063
0.00048651635
0.00048652791
0.00048654147
0.00048655759
0.00048657682
0.00048659982
0.00048662712
0.00048665941
0.00048669703
0.00048674058
0.00048678985
0.0004868451
0.00048690523
0.00048696972
0.00048703647
0.00048710351
0.00048676343
0.00048709953
0.00048668881
0.00048668272
0.00048667632
0.00048666942
0.00048666221
0.00048665443
0.0004866463
0.00048663756
0.00048662841
0.00048661861
0.00048660835
0.0004865974
0.00048658594
0.00048657373
0.00048656095
0.00048654738
0.00048653318
0.00048651813
0.00048650238
0.00048648573
0.00048646832
0.00048644994
0.00048643074
0.0004864105
0.00048638938
0.00048636715
0.00048634399
0.00048631966
0.00048629432
0.00048626777
0.00048624013
0.00048621136
0.00048618132
0.00048615019
0.00048611777
0.00048608427
0.00048604952
0.00048601374
0.00048597678
0.00048593892
0.00048590006
0.00048586044
0.00048582016
0.00048577941
0.00048573837
0.00048569729
0.00048565646
0.00048561614
0.00048557668
0.00048553842
0.00048550173
0.00048546696
0.00048543452
0.00048540475
0.00048537801
0.00048535463
0.00048533491
0.0004853191
0.00048530744
0.00048530007
0.00048529712
0.00048529867
0.00048530473
0.00048531527
0.00048533022
0.00048534946
0.00048537283
0.00048540014
0.00048543114
0.00048546559
0.00048550317
0.0004855436
0.00048558652
0.00048563158
0.0004856784
0.00048571293
0.0004857029
0.00048569462
0.00048569127
0.00048569297
0.00048569979
0.00048571169
0.00048572863
0.00048575044
0.00048577697
0.00048580795
0.00048584311
0.00048588212
0.00048592464
0.00048597032
0.00048601877
0.00048606961
0.0004861225
0.00048617706
0.00048623297
0.00048628991
0.00048634763
0.00048640584
0.00048646433
0.00048650716
0.00048653424
0.00048654241
0.00048655018
0.00048655785
0.00048656577
0.00048657433
0.00048658392
0.00048659497
0.00048660796
0.00048662337
0.00048664171