/*--------------------------------*- C++ -*----------------------------------*\
| =========                 |                                                 |
| \\      /  F ield         | foam-extend: Open Source CFD                    |
|  \\    /   O peration     | Version:     4.1                                |
|   \\  /    A nd           | Web:         http://www.foam-extend.org         |
|    \\/     M anipulation  |                                                 |
\*---------------------------------------------------------------------------*/
FoamFile
{
    version     2.0;
    format      ascii;
    class       volScalarField;
    location    "0.05";
    object      p;
}
// * * * * * * * * * * * * * * * * * * * * * * * * * * * * * * * * * * * * * //

dimensions      [0 2 -2 0 0 0 0];

internalField   nonuniform List<scalar> 
16796
(
47.436586
57.690002
93.421223
122.07084
153.15108
183.90987
215.17228
246.72718
278.66165
310.9849
343.66879
376.59609
409.72802
443.07584
476.60663
510.27816
544.03782
577.82757
611.59214
645.19653
678.47351
711.30117
743.53803
775.02346
805.59144
835.07304
863.30073
890.11258
915.35648
938.89378
960.60275
980.38169
998.15043
1013.8525
1027.4556
1038.9516
1048.3564
1055.7093
1061.0717
1064.5272
1066.1923
1066.2355
1064.6997
1061.589
1057.0607
1051.2831
1044.4059
1036.5895
1028.0011
1018.8158
1009.2171
999.39709
989.55698
979.90673
970.66498
962.05832
954.32034
947.69019
942.41069
938.7262
936.88002
937.11145
939.65274
944.72585
952.53917
963.28417
977.13238
994.23245
1014.7074
1038.6526
1066.1335
1097.1846
1131.8084
1169.9754
1211.6269
1256.683
1305.0104
1356.391
1410.6233
1467.522
1526.851
1588.3521
1651.747
1716.7419
1783.0313
1850.3028
1918.2406
1986.5302
2054.8618
2122.9348
2190.4607
2257.1664
2322.7971
2387.1184
2449.9176
2511.0055
2570.2167
2627.4099
2682.4672
2735.2941
2785.8177
2833.9861
2879.7663
2923.1427
2964.1155
3002.6987
3038.918
3072.8098
3104.4188
3133.7967
3161.0018
3186.0983
3209.1473
3230.212
3249.3673
3266.6921
3282.2697
3296.1884
3308.5557
3319.5845
3329.4691
3337.6282
3346.1368
3368.4037
47.097941
58.391177
93.893972
122.72106
153.78315
184.54036
215.75504
247.23493
279.05076
311.17854
343.64116
376.47037
409.61502
442.9916
476.55304
510.25071
544.02531
577.80102
611.4804
644.99237
678.25042
711.10297
743.38861
774.94292
805.59586
835.1751
863.51021
890.43646
915.79909
939.45698
961.28603
981.18242
999.06379
1014.8716
1028.5712
1040.1521
1049.6269
1057.0302
1062.4167
1065.8576
1067.4332
1067.2198
1065.3946
1062.1428
1057.5397
1051.6899
1044.7411
1036.8497
1028.1823
1018.9139
1009.2284
999.31808
989.38447
979.638
970.29784
961.59125
953.75257
947.02178
941.64265
937.86052
935.91973
936.06062
938.51652
943.5104
951.25161
961.93254
975.7255
992.77982
1013.2191
1037.1389
1064.6047
1095.6505
1130.2777
1168.4534
1210.1067
1255.1264
1303.3899
1354.7754
1409.0935
1466.1011
1525.5544
1587.1899
1650.7265
1715.8684
1782.3087
1849.7331
1917.8246
1986.2667
2054.7483
2122.9669
2190.6327
2257.4712
2323.2262
2387.6621
2450.5656
2511.7468
2571.0398
2628.3029
2683.4184
2736.2918
2786.8509
2835.0439
2880.8386
2924.2203
2965.1897
3003.7616
3039.9626
3073.8297
3105.4079
3134.7494
3161.9114
3186.9545
3209.9474
3230.962
3250.0661
3267.3311
3282.834
3296.6541
3308.884
3319.6754
3329.1186
3337.0017
3344.6216
3354.2646
46.406648
58.675516
94.157747
123.11725
154.19055
184.95105
216.14087
247.58396
279.35697
311.44771
343.85691
376.56793
409.55141
442.78096
476.22893
509.85433
543.60405
577.40916
611.1799
644.81578
678.19337
711.16388
743.57374
775.26049
806.05382
835.78025
864.26747
891.34851
916.86607
940.67643
962.65296
982.68945
1000.7014
1016.6285
1030.4347
1042.1086
1051.6628
1059.1326
1064.5748
1068.0659
1069.6962
1069.5552
1067.7523
1064.4056
1059.64
1053.6
1046.435
1038.3044
1029.377
1019.8303
1009.8504
999.63277
989.38205
979.31201
969.64528
960.61258
952.45173
945.40616
939.72293
935.65058
933.43638
933.32346
935.54761
940.33403
947.89397
958.42144
972.09011
989.05036
1009.4266
1033.315
1060.7818
1091.8614
1126.556
1164.8319
1206.6204
1251.8209
1300.2978
1351.8862
1406.3933
1463.6019
1523.2716
1585.1387
1648.9208
1714.3197
1781.0259
1848.7222
1917.0883
1985.8048
2054.5572
2123.0402
2190.9608
2258.0421
2324.0255
2388.6736
2451.7714
2513.1277
2572.5761
2629.9746
2685.2055
2738.1749
2788.811
2837.0633
2882.9009
2926.3104
2967.2942
3005.8686
3042.0622
3075.9135
3107.4697
3136.7847
3163.9177
3188.9314
3211.8922
3232.8697
3251.9356
3269.1646
3284.6341
3298.4241
3310.6273
3321.3617
3330.6714
3338.6205
3346.0683
3351.5088
46.286076
58.937138
94.438235
123.47105
154.5379
185.26994
216.39794
247.7553
279.42242
311.3998
343.70405
376.33653
409.2779
442.49437
475.94928
509.59762
543.38278
577.23357
611.0635
644.7746
678.25104
711.35263
743.9231
775.79517
806.79379
836.74037
865.45727
892.7721
918.52222
942.55873
964.75004
984.98533
1003.1758
1019.2571
1033.1896
1044.9581
1054.5715
1062.0611
1067.4794
1070.8974
1072.4029
1072.0978
1070.1066
1066.5622
1061.5921
1055.3303
1047.9237
1039.5314
1030.3222
1020.4747
1010.1771
999.6269
989.03143
978.60739
968.58057
959.18512
950.66239
943.25941
937.2269
932.81696
930.28036
929.86348
931.8052
936.3335
943.66212
953.98721
967.48421
984.30491
1004.5748
1028.3906
1055.8188
1086.8939
1121.6171
1159.9504
1201.8236
1247.141
1295.7734
1347.5639
1402.3191
1459.8136
1519.8004
1582.0111
1646.1587
1711.9409
1779.0436
1847.1452
1915.9207
1985.0458
2054.2013
2123.0772
2191.3762
2258.8173
2325.1385
2390.0992
2453.4821
2515.0942
2574.7678
2632.3605
2687.7546
2740.8566
2791.596
2839.9236
2885.81
2929.2439
2970.2297
3008.7859
3044.9432
3078.7421
3110.2315
3139.467
3166.5093
3191.4228
3214.2752
3235.1356
3254.0731
3271.1578
3286.4602
3300.0508
3312.0069
3322.4051
3331.2576
3338.6825
3345.1193
3348.7855
46.196111
59.032241
94.578244
123.65775
154.72633
185.43758
216.5217
247.81818
279.41058
311.3024
343.51017
376.03676
408.87491
442.00783
475.41139
509.04876
542.86822
576.80081
610.75932
644.63879
678.31463
711.64172
744.46011
776.59884
807.87885
838.11688
867.13021
894.74108
920.78142
945.09698
967.55113
988.02843
1006.436
1022.7061
1036.7961
1048.689
1058.3921
1065.9356
1071.3714
1074.7693
1076.2148
1075.8059
1073.6556
1069.8889
1064.6408
1058.0557
1050.2866
1041.4967
1031.8586
1021.5546
1010.7766
999.72645
988.61577
977.66593
967.10764
957.18007
948.12973
940.20883
933.67324
928.78006
925.78493
924.93882
926.48487
930.65499
937.66641
947.71836
960.98894
977.63215
997.77525
1021.5165
1048.9233
1080.031
1114.8404
1153.3103
1195.3711
1240.9233
1289.8326
1341.9352
1397.0365
1454.9133
1515.3177
1577.9786
1642.6051
1708.8902
1776.5144
1845.1501
1914.4662
1984.1319
2053.8217
2123.2194
2192.0219
2259.9428
2326.7153
2392.0951
2455.8614
2517.8192
2577.7993
2635.6584
2691.2793
2744.5692
2795.4591
2843.9018
2889.8705
2933.3566
2974.3675
3012.925
3049.0629
3082.8248
3114.2629
3143.4356
3170.4059
3195.2405
3218.0082
3238.7793
3257.6239
3274.6117
3289.81
3303.2833
3315.0952
3325.2916
3333.866
3340.9061
3346.4689
3348.9167
46.18368
59.077755
94.661294
123.74603
154.79305
185.45602
216.47026
247.68062
279.17797
310.9747
343.09644
375.55385
408.34673
441.46255
474.87864
508.5595
542.45462
576.49639
610.59901
644.65794
678.54882
712.12681
745.22994
777.68275
809.30026
839.89227
869.26842
897.24297
923.63982
948.29686
971.07
991.83694
1010.4986
1026.9817
1041.2391
1053.2496
1063.0174
1070.5705
1075.9589
1079.2526
1080.5388
1079.9204
1077.5146
1073.4495
1067.864
1060.9044
1052.7245
1043.4889
1033.3724
1022.5602
1011.2472
999.6392
987.95191
976.41138
965.25331
954.72218
945.07004
936.55482
929.43815
923.98293
920.45039
919.09696
920.17088
923.90877
930.53217
940.2441
953.22588
969.63426
989.59868
1013.2191
1040.5643
1071.6709
1106.5379
1145.1237
1187.3602
1233.1492
1282.3568
1334.8181
1390.3358
1448.6825
1509.6053
1572.8276
1638.0526
1704.9665
1773.2429
1842.5466
1912.5384
1982.8796
2053.2364
2123.2848
2192.7141
2261.2312
2328.5634
2394.4611
2458.6997
2521.0811
2581.4342
2639.6151
2695.5065
2749.0168
2800.0787
2848.6476
2894.6995
2938.2293
2979.2482
3017.7814
3053.8667
3087.5515
3118.8913
3147.948
3174.7877
3199.4796
3222.0943
3242.7032
3261.3764
3278.1824
3293.1863
3306.4493
3318.0278
3327.9556
3336.2321
3342.9387
3347.9984
3350.0371
46.168324
59.064393
94.683617
123.75689
154.77858
185.38895
216.33089
247.45136
278.84648
310.5341
342.54647
374.90224
407.61165
440.67338
474.07423
507.78605
541.7634
575.94135
610.23439
644.53553
678.71625
712.62689
746.09981
778.95289
810.99374
842.02403
871.84483
900.26153
927.0892
952.1572
975.31342
996.4283
1015.3963
1032.1388
1046.6042
1058.7677
1068.6309
1076.2195
1081.582
1084.7869
1085.9201
1085.0834
1082.3927
1077.9767
1071.9786
1064.5508
1055.8518
1046.0507
1035.327
1023.8703
1011.8808
999.56928
987.1572
974.87658
962.96945
951.68695
941.28799
932.03753
924.2043
918.05822
913.86743
911.89495
912.39531
915.61091
921.76852
931.07582
943.71818
959.85569
979.62053
1003.1148
1030.4088
1061.5403
1096.5066
1135.2645
1177.7449
1223.8473
1273.4358
1326.3428
1382.3685
1441.2835
1502.8309
1566.7289
1632.6746
1700.3466
1769.4103
1839.5213
1910.3307
1981.4898
2052.6552
2123.4931
2193.6837
2262.9257
2330.939
2397.468
2462.2831
2525.1829
2585.994
2644.5716
2700.7988
2754.5853
2805.8664
2854.6004
2900.7672
2944.366
2985.4124
3023.9366
3059.9809
3093.5975
3124.8463
3153.7931
3180.5078
3205.0626
3227.5305
3247.9843
3266.4946
3283.1287
3297.9485
3311.0094
3322.3575
3332.0135
3339.9713
3346.2894
3350.8405
3352.5266
46.113302
58.984492
94.622803
123.66009
154.63865
185.17837
216.03287
247.05168
278.33849
309.91879
341.83324
374.10879
406.76391
439.80477
473.22431
506.99952
541.08907
575.43103
609.94149
644.51349
679.01701
713.29952
747.18869
780.49572
813.01989
844.55323
874.88622
903.81318
931.13804
956.67928
980.27458
1001.7851
1021.097
1038.1248
1052.8111
1065.1267
1075.0701
1082.6652
1087.9598
1091.0227
1091.9419
1090.8215
1087.7801
1082.9494
1076.4769
1068.519
1059.237
1048.8035
1037.4017
1025.2255
1012.4797
999.38054
986.1552
973.04207
960.29004
948.1575
936.91101
926.82342
918.17149
911.2332
906.28462
903.59645
903.43048
906.03588
911.64559
920.47275
932.70748
948.51391
968.02752
991.35298
1018.563
1049.6968
1084.7509
1123.6817
1166.4204
1212.8664
1262.8826
1316.299
1372.9124
1432.489
1494.7662
1559.4555
1626.246
1694.8075
1764.7951
1835.8535
1907.6225
1979.7414
2051.8548
2123.6174
2194.6988
2264.7875
2333.5947
2400.8576
2466.3409
2529.8389
2591.1758
2650.2057
2706.8122
2760.9068
2812.4274
2861.3365
2907.6184
2951.2772
2992.3341
3030.8249
3066.7977
3100.3101
3131.4276
3160.221
3186.7648
3211.1354
3233.4093
3253.662
3271.9664
3288.3907
3302.9975
3315.8411
3326.9652
3336.3877
3344.1053
3350.164
3354.4251
3355.9666
46.047169
58.884866
94.537634
123.52627
154.45117
184.90636
215.65722
246.55437
277.70878
309.15343
340.93827
373.1005
405.66972
438.66308
472.08345
505.91607
540.12588
574.65495
609.42098
644.31608
679.20705
713.93612
748.32387
782.17255
815.27104
847.39978
878.3369
907.86399
935.7723
961.86811
985.97771
1007.952
1027.6682
1045.0332
1059.9836
1072.4856
1082.5342
1090.1511
1095.3828
1098.2976
1098.9838
1097.5466
1094.1063
1088.7972
1081.772
1073.193
1063.2263
1052.0493
1039.8506
1026.8298
1013.1977
999.1767
985.00114
970.91682
957.1806
944.0593
931.82832
920.76964
911.1693
903.3146
897.4908
893.97747
893.04485
894.94994
899.93279
908.21284
919.98568
935.41999
954.65493
977.79801
1004.9241
1036.0742
1071.2434
1110.3865
1153.4342
1200.2849
1250.7998
1304.8065
1362.0988
1422.4386
1485.5577
1551.1606
1618.9274
1688.5178
1759.5752
1831.7319
1904.6139
1977.8468
2051.0612
2123.8983
2196.0148
2267.0875
2336.8177
2404.9339
2471.1942
2535.3881
2597.337
2656.8941
2713.9434
2768.3988
2820.2018
2869.3191
2915.7406
2959.4765
3000.5542
3039.0161
3074.9169
3108.3206
3139.2986
3167.9275
3194.2868
3218.4573
3240.5193
3260.5509
3278.6268
3294.8161
3309.1809
3321.7743
3332.6378
3341.7888
3349.2282
3355.0007
3358.9849
3360.3951
45.913247
58.719929
94.375257
123.30236
154.16242
184.52089
215.15674
245.92202
276.93617
308.24057
339.89518
371.94764
404.43831
437.39476
470.82935
504.73553
539.08494
573.82441
608.87426
644.12683
679.44671
714.67148
749.61464
784.06898
817.81184
850.61045
882.2286
912.43293
940.99969
967.72064
992.40854
1014.9021
1035.0679
1052.8041
1068.0402
1080.7375
1090.8875
1098.5101
1103.6514
1106.3807
1106.788
1104.9814
1101.0841
1095.2341
1087.5899
1078.3188
1067.5913
1055.5892
1042.5065
1028.5481
1013.9309
998.8843
983.64984
968.48144
953.6447
939.41578
926.07991
913.92931
903.26051
894.37138
887.5576
883.1089
881.30513
882.41227
886.67853
894.33057
905.57023
920.57147
939.47776
962.40001
989.4159
1020.5685
1055.8523
1095.2212
1138.6058
1185.9039
1236.9753
1291.645
1349.7031
1410.9063
1474.9798
1541.6197
1610.4961
1681.2567
1753.5318
1826.9388
1901.0882
1975.5894
2050.0567
2124.1156
2197.4078
2269.5967
2340.3718
2409.4517
2476.587
2541.5618
2604.1944
2664.3368
2721.8744
2776.7234
2828.8297
2878.1656
2924.7273
2968.532
3009.6148
3048.026
3083.8277
3117.0919
3147.8972
3176.3271
3202.4672
3226.4043
3248.2235
3268.0073
3285.8337
3301.7745
3315.8933
3328.2445
3338.8695
3347.7872
3355.002
3360.5579
3364.3512
3365.686
45.760836
58.548532
94.204464
123.06056
153.84308
184.08625
214.58373
245.18878
276.0301
307.15855
338.64581
370.55222
402.93141
435.82402
469.25453
503.2269
537.72116
572.69004
608.05696
643.71431
679.52369
715.31669
750.89794
786.04873
820.53266
854.10145
886.50221
917.48432
946.80686
974.2451
999.59648
1022.686
1043.3684
1061.5322
1077.0994
1090.0253
1100.298
1107.9352
1112.9825
1115.5097
1115.6087
1113.3898
1108.9797
1102.5204
1094.1769
1084.1232
1072.5351
1059.6002
1045.5184
1030.5011
1014.7724
998.56904
982.14106
965.7514
949.67541
934.1997
919.62055
906.24168
894.37145
884.31964
876.39375
870.89497
868.11405
868.32708
871.79143
878.74187
889.38714
903.90701
922.44953
945.12922
972.02652
1003.1865
1038.6032
1078.2285
1121.9929
1169.7941
1221.4901
1276.9037
1335.8215
1397.9948
1463.1421
1530.9503
1601.0784
1673.161
1746.813
1821.6351
1897.2199
1973.1581
2049.0454
2124.4888
2199.1132
2272.5663
2344.5239
2414.6937
2482.8175
2548.6734
2612.0762
2672.8773
2730.963
2786.2532
2838.6985
2888.2777
2934.9945
2978.8742
3019.9606
3058.3126
3094.0012
3127.1068
3157.7161
3185.92
3211.8113
3235.4826
3257.0247
3276.5246
3294.064
3309.718
3323.5527
3335.6245
3345.9775
3354.6345
3361.6061
3366.9416
3370.5567
3371.8217
45.536594
58.325899
93.979014
122.75982
153.45829
183.57567
213.92164
244.35088
275.00241
305.93747
337.24052
368.98555
401.24044
434.05991
467.48161
501.52119
536.16832
571.38286
607.09239
643.19022
679.53545
715.95367
752.24011
788.16346
823.47194
857.89971
891.17477
923.02666
953.19463
981.43488
1007.5272
1031.2807
1052.537
1071.1733
1087.1032
1100.2764
1110.677
1118.3214
1123.2551
1125.5495
1125.2992
1122.6182
1117.6372
1110.5029
1101.3876
1090.4721
1077.9373
1063.9763
1048.7952
1032.6123
1015.6587
998.17944
980.43345
962.69347
945.24551
928.38772
912.42863
897.68478
884.47778
873.13078
863.96461
857.29337
853.42012
852.63237
855.19782
861.36032
871.33642
885.3123
903.44125
925.84178
952.59754
983.75608
1019.3109
1059.2124
1103.3912
1151.7446
1204.1294
1260.366
1320.2372
1383.4889
1449.8318
1518.9428
1590.4686
1664.0288
1739.2212
1815.6275
1892.8197
1970.3671
2047.844
2124.8364
2200.9495
2275.8134
2349.0883
2420.4692
2489.6883
2556.5172
2620.767
2682.2883
2740.9693
2796.7341
2849.5393
2899.3714
2946.2426
2990.1881
3031.2614
3069.5319
3105.0806
3137.9977
3168.3795
3196.3255
3221.9366
3245.3128
3266.5512
3285.7445
3302.9792
3318.3342
3331.879
3343.673
3353.7627
3362.1749
3368.9257
3374.0687
3377.5363
3378.7476
45.282706
58.102871
93.756713
122.45771
153.06064
183.03212
213.19918
243.41833
273.84029
304.53837
335.61195
367.15118
399.24085
431.95242
465.33933
499.43121
534.22933
569.70209
605.78216
642.36405
679.30405
716.42079
753.49859
790.29149
826.52995
861.9278
896.19105
929.02646
960.1506
989.29791
1016.2281
1040.7328
1062.6382
1081.8096
1098.1514
1111.6067
1122.156
1129.8139
1134.6264
1136.6667
1136.0325
1132.8417
1127.2296
1119.3485
1109.3788
1097.5094
1083.927
1068.8311
1052.4348
1034.9633
1016.656
997.76664
978.56388
959.33117
940.36624
921.97989
904.4942
888.23998
873.55354
860.77303
850.23413
842.26544
837.18375
835.28931
836.86128
842.15355
851.39111
864.76712
882.44029
904.53327
931.13291
962.28917
997.99494
1038.199
1082.832
1131.7916
1184.9337
1242.0766
1302.9996
1367.4431
1435.1099
1505.6664
1578.7453
1653.9501
1730.8591
1809.0325
1888.0188
1967.3631
2046.615
2125.3366
2203.1107
2279.5469
2354.2882
2427.015
2497.449
2565.3542
2630.5382
2692.8509
2752.183
2808.4635
2861.6563
2911.7565
2958.7865
3002.7922
3043.8388
3082.0068
3117.3887
3150.0857
3180.2043
3207.8539
3233.1444
3256.1836
3277.076
3295.9205
3312.8095
3327.8265
3341.0458
3352.5305
3362.3317
3370.4813
3377.0017
3381.9517
3385.2778
3386.4377
44.957899
57.849081
93.510047
122.13463
152.63874
182.453
212.42296
242.40736
272.56991
302.99739
333.80581
365.10335
396.99375
429.5674
462.89567
497.02434
531.96824
567.70604
604.17692
641.27757
678.86188
716.74126
754.68821
792.44054
829.7087
866.18347
901.54583
935.47641
967.66584
997.82369
1025.6868
1051.0267
1073.6527
1093.4165
1110.2127
1123.9775
1134.688
1142.3575
1147.0331
1148.7908
1147.7324
1143.9806
1137.6763
1128.9778
1118.0747
1105.1646
1090.4397
1074.1061
1056.3836
1037.5054
1017.7189
997.28735
976.48962
955.62074
934.99118
914.92562
895.76106
877.8441
861.52745
847.16597
835.11199
825.71034
819.29323
816.17514
816.64803
820.97688
829.39604
842.10621
859.27198
881.02042
907.44175
938.58854
974.45316
1014.9826
1060.1075
1109.7262
1163.694
1221.8278
1283.9034
1349.6558
1418.7795
1490.9294
1565.7237
1642.7472
1721.5569
1801.6886
1882.6642
1964.0012
2045.221
2125.8585
2205.4708
2283.6445
2360.0028
2434.2103
2505.9765
2575.0577
2641.2576
2704.426
2764.4569
2821.2855
2874.884
2925.258
2972.4417
3016.4935
3057.4916
3095.5297
3130.7131
3163.1555
3192.975
3220.2919
3245.2261
3267.8946
3288.4097
3306.8775
3323.3965
3338.0556
3350.9339
3362.0989
3371.606
3379.4924
3385.7859
3390.5505
3393.7441
3394.857
44.590234
57.603018
93.282955
121.83407
152.23117
181.86783
211.60958
241.31818
271.17214
301.2739
331.75874
362.75589
394.39125
426.77736
460.0066
494.1437
529.21949
565.22496
602.1072
639.76587
678.05247
716.77053
755.67918
794.4978
832.914
870.59218
907.1846
942.34206
975.72551
1007.0162
1035.9251
1062.201
1085.6344
1106.0622
1123.3679
1137.4812
1148.3751
1156.0624
1160.5919
1162.043
1160.5222
1156.1581
1149.0976
1139.506
1127.5836
1113.5373
1097.5657
1079.8816
1060.7126
1040.2996
1018.8988
996.78339
974.24329
951.58593
929.13555
907.23199
886.2286
866.48942
848.38534
832.28977
818.57363
807.59982
799.71771
795.25761
794.52556
797.7987
805.32143
817.30241
833.91229
855.28249
881.50651
912.63935
948.67266
989.55138
1035.2068
1085.5385
1140.402
1199.6132
1262.9453
1330.1282
1400.848
1474.7478
1551.4296
1630.4583
1711.3667
1793.6631
1876.8396
1960.3818
2043.7793
2126.5359
2208.1795
2288.2706
2366.4101
2442.2446
2515.4705
2585.8356
2653.1397
2717.233
2778.0139
2835.4246
2889.4476
2940.1005
2987.4308
3031.5113
3072.4348
3110.3099
3145.2562
3177.401
3206.8756
3233.8124
3258.3421
3280.5917
3300.6826
3318.7289
3334.8359
3349.099
3361.6026
3372.4197
3381.6106
3389.2179
3395.2753
3399.8508
3402.912
3403.978
44.150546
57.350268
93.066771
121.55634
151.84608
181.29176
210.78004
240.17642
269.67602
299.39896
329.50239
360.13939
391.46113
423.60556
456.68941
490.7994
525.98519
562.25251
599.55831
637.80653
676.8469
716.47473
756.43464
796.42542
836.10894
875.11963
913.077
949.5977
984.30879
1016.8592
1046.9305
1074.246
1098.5748
1119.7378
1137.6069
1152.1043
1163.2001
1170.907
1175.2764
1176.3923
1174.3672
1169.3366
1161.4544
1150.8938
1137.8667
1122.5903
1105.2694
1086.1236
1065.3881
1043.3118
1020.1602
996.21655
971.78258
947.17891
922.74468
898.83617
875.82472
854.09355
834.03374
816.03938
800.50211
787.80503
778.31673
772.3851
770.33185
772.44744
778.98719
790.16823
806.16745
827.12065
853.12446
884.23628
920.44678
961.69857
1007.9235
1059.0233
1114.8541
1175.2319
1239.9281
1308.668
1381.1295
1456.9433
1535.6944
1616.9254
1700.1425
1784.8231
1870.4252
1956.3987
2042.1965
2127.2872
2211.1653
2293.362
2373.453
2451.065
2525.8799
2597.6365
2666.131
2731.2148
2792.7915
2850.8126
2905.2724
2956.2023
3003.6656
3047.7514
3088.5691
3126.244
3160.9118
3192.7151
3221.7996
3248.3108
3272.3917
3294.18
3313.8069
3331.3948
3347.0567
3360.8946
3372.9989
3383.4479
3392.3071
3399.6246
3405.4393
3409.8229
3412.7514
3413.7706
43.653549
57.119843
92.896006
121.3373
151.51607
180.75025
209.949
238.98281
268.06571
297.33811
326.98226
357.1788
388.10834
419.93866
452.81471
486.84892
522.11304
558.63025
596.36951
635.24043
675.09144
715.70914
756.82205
798.10582
839.19307
879.68405
919.16079
957.20092
993.39273
1027.3484
1058.716
1087.1902
1112.5167
1134.4984
1152.9947
1167.9208
1179.2438
1186.9772
1191.1762
1191.9306
1189.3599
1183.6076
1174.8355
1163.2257
1149.0034
1132.3971
1113.6177
1092.892
1070.4631
1046.5881
1021.5419
995.61825
969.13129
942.4157
915.82656
889.73802
864.54103
840.63999
818.44826
798.38293
780.85872
766.28129
755.04057
747.50402
744.01056
744.86518
750.33481
760.64538
775.97993
796.47831
822.23981
853.32382
889.71954
931.36697
978.1992
1030.1208
1086.9902
1148.6245
1214.7945
1285.2219
1359.577
1437.4778
1518.4911
1602.1355
1687.8873
1775.1892
1863.4607
1952.1108
2040.551
2128.2092
2214.5425
2299.0485
2381.2747
2460.8257
2537.3674
2610.6293
2680.4041
2746.5453
2808.9635
2867.6208
2922.5257
2973.7258
3021.3022
3065.3625
3106.0351
3143.4637
3177.802
3209.2095
3237.8478
3263.8769
3287.453
3308.7258
3327.8368
3344.918
3360.0904
3373.4634
3385.1337
3395.1854
3403.6895
3410.6993
3416.259
3420.4432
3423.235
3424.2061
43.078269
56.910564
92.777082
121.19291
151.26376
180.27033
209.14525
237.7652
266.36535
295.10943
324.20873
353.8759
384.32509
415.75799
448.35213
482.24962
517.54824
554.29213
592.46506
631.98425
672.69782
714.3835
756.75228
799.45401
842.08822
884.21625
925.37731
965.1043
1002.9412
1038.4581
1071.2654
1101.0252
1127.4571
1150.3445
1169.5338
1184.9329
1196.5067
1204.2711
1208.2861
1208.649
1205.4879
1198.9556
1189.2231
1176.4825
1160.9738
1142.9373
1122.5898
1100.1655
1075.9148
1050.1031
1023.0148
994.95451
966.24917
937.24833
908.32416
879.87015
852.29868
826.03746
801.52455
779.20263
759.51222
742.8842
729.73238
720.44602
715.38311
714.86451
719.16959
728.53338
743.14496
763.14773
788.64309
819.69187
856.28117
898.34779
945.82626
998.62515
1056.6061
1119.5894
1187.3467
1259.5976
1336.0056
1416.1761
1499.6568
1585.9398
1674.4687
1764.647
1855.8506
1947.4418
2038.7849
2129.2615
2218.2861
2305.3182
2389.8737
2471.5325
2549.9436
2624.8265
2695.9711
2763.2343
2826.5353
2885.8496
2941.2018
2992.6588
3040.3218
3084.3197
3124.8021
3161.9335
3195.8874
3226.8422
3254.9766
3280.4666
3303.4825
3324.1867
3342.7321
3359.2605
3373.9017
3386.7724
3397.9763
3407.6033
3415.7298
3422.4146
3427.7066
3431.6829
3434.3328
3435.2542
42.428283
56.74668
92.740721
121.15814
151.12301
179.88081
208.38876
236.53179
264.56946
292.69218
321.14337
350.17013
380.02603
410.95485
443.17272
476.85643
512.13289
549.07078
587.67188
627.86332
669.49405
712.33271
756.07114
800.33028
844.67216
888.6137
931.64507
973.24791
1012.9154
1050.1698
1084.5784
1115.767
1143.4262
1167.3179
1187.2751
1203.1986
1215.0523
1222.8555
1226.6752
1226.6174
1222.8208
1215.4489
1204.6829
1190.7264
1173.8359
1154.2645
1132.2346
1107.9875
1081.7811
1053.889
1024.6047
994.24422
963.14753
931.67985
900.2316
869.21709
839.07213
810.25001
783.21618
758.44179
736.39616
717.53841
702.30903
691.12156
684.35502
682.3475
685.39156
693.73138
707.56156
727.02819
752.23375
783.23951
820.02945
862.53664
910.69779
964.42685
1023.5907
1088.0148
1157.4741
1231.6879
1310.3145
1392.9471
1479.1131
1568.2766
1659.8442
1753.1756
1847.597
1942.4177
2036.9477
2130.516
2222.4882
2312.2808
2399.3744
2483.3215
2563.7524
2640.3768
2712.9825
2781.4312
2845.6531
2905.6395
2961.4345
3013.1267
3060.8408
3104.7296
3144.9667
3181.7395
3215.2438
3245.6784
3273.241
3298.1247
3320.5152
3340.5887
3358.5102
3374.4318
3388.4927
3400.8175
3411.5167
3420.6866
3428.4089
3434.7476
3439.7561
3443.5133
3446.0146
3446.8839
41.685138
56.637074
92.804462
121.26116
151.1274
179.61716
207.71259
235.30888
262.69194
290.08078
317.75783
346.01882
375.16101
405.47004
437.20118
470.57483
505.75562
542.84012
581.85186
622.73095
665.3289
709.40546
754.63174
800.59639
846.81901
892.76579
937.87063
981.55633
1023.2578
1062.4425
1098.6289
1131.4018
1160.4193
1185.4208
1206.2247
1222.7257
1234.888
1242.7361
1246.346
1245.8351
1241.3545
1233.08
1221.2049
1205.9453
1187.5765
1166.3646
1142.537
1116.3417
1088.0438
1057.9243
1026.2859
993.45584
959.78748
925.66242
891.49046
857.7084
824.77755
793.17937
763.40968
735.97141
711.36614
690.08467
672.59749
659.34527
650.73039
647.10977
648.78991
656.02412
669.01185
687.90063
712.79263
743.74834
780.74711
823.71742
872.59851
927.31125
987.72995
1053.688
1124.9667
1201.288
1282.3066
1367.6046
1456.6887
1548.9924
1643.8816
1740.6666
1838.6171
1936.9814
2035.0076
2131.9644
2227.1616
2319.9672
2409.8218
2496.2479
2578.8559
2657.3455
2731.5033
2801.1983
2866.3744
2927.0417
2983.2672
3035.1648
3082.8861
3126.611
3166.5399
3202.8859
3235.869
3265.7106
3292.629
3316.8357
3338.533
3357.9116
3375.1491
3390.4089
3403.8393
3415.5736
3425.7293
3434.4087
3441.699
3447.6693
3452.3773
3455.9032
3458.2478
3459.0623
40.841135
56.605295
92.999274
121.54095
151.31663
179.51542
207.14456
234.11196
260.73364
287.27384
314.05348
341.39215
369.64385
399.16957
430.28865
463.23991
498.23303
535.4026
574.79738
616.37404
659.98901
705.39354
752.23635
800.07004
848.36604
896.53249
943.93869
989.93974
1033.9036
1075.235
1113.3968
1147.9277
1178.4502
1204.6788
1226.4174
1243.5554
1256.0589
1263.9604
1267.3474
1266.3509
1261.1368
1251.8953
1238.8329
1222.1804
1202.2336
1179.2723
1153.5281
1125.2553
1094.7254
1062.2265
1028.0701
992.59402
956.16565
919.18345
882.07771
845.30943
809.36765
774.76489
742.03063
711.70328
684.32063
660.40915
640.47303
624.98336
614.36844
609.0057
609.21627
615.26228
627.34678
645.61696
670.17259
701.07143
738.28622
781.73975
831.3747
887.12085
948.86285
1016.4456
1089.6608
1168.2363
1251.8265
1340.0037
1432.2538
1527.9773
1626.4951
1727.0613
1828.8814
1931.1339
2032.9954
2133.6655
2232.3903
2328.4826
2421.3383
2510.4468
2595.3972
2675.8793
2751.6804
2822.6793
2888.8367
2950.1856
3006.8197
3058.8822
3106.5554
3150.0498
3189.5957
3225.435
3257.8144
3286.9797
3313.1716
3336.6215
3357.5493
3376.1611
3392.6479
3407.1846
3419.9295
3431.0242
3440.5933
3448.7455
3455.5733
3461.1505
3465.5389
3468.8196
3470.9987
3471.7551
39.871988
56.667931
93.350387
122.03588
151.73374
179.61889
206.72222
232.96796
258.7209
284.29399
310.0251
336.2837
363.47097
392.00138
422.30496
454.70034
489.39323
526.56524
566.2995
608.57256
653.24886
700.07215
748.66721
798.54641
849.12648
899.74905
949.70904
998.28347
1044.7633
1088.481
1128.8365
1165.3162
1197.5033
1225.0856
1247.8527
1265.6898
1278.5678
1286.5295
1289.6775
1288.1596
1282.159
1271.8827
1257.5522
1239.4151
1217.79
1192.9703
1165.1904
1134.7101
1101.8064
1066.7733
1029.9304
991.62623
952.24161
912.1926
871.93111
831.94409
792.75082
754.89799
718.95249
685.4925
655.09657
628.33142
605.73936
587.82578
575.04794
567.80572
566.4356
571.208
582.32797
599.93987
624.13835
654.97584
692.41571
736.37347
786.79587
843.62376
906.75563
976.05256
1051.3214
1132.3011
1218.6495
1309.9315
1405.6126
1505.0578
1607.5381
1712.2443
1818.308
1924.8274
2030.8969
2135.6364
2238.2191
2337.8951
2434.0102
2526.0173
2613.4832
2696.0885
2773.6233
2845.9791
2913.1379
2975.1599
3032.1702
3084.3461
3131.9045
3175.0908
3214.1687
3249.4118
3281.096
3309.4939
3334.8702
3357.4775
3377.5545
3395.3234
3410.9891
3424.7384
3436.7398
3447.1433
3456.081
3463.6674
3470.0004
3475.1583
3479.2068
3482.2274
3484.2309
3484.926
38.751813
56.850538
93.890411
122.79172
152.42621
179.971
206.47703
231.90073
256.68196
281.11952
305.59882
330.57181
356.50345
383.85692
413.11187
444.74271
479.00591
516.07819
556.09123
599.0489
644.82681
693.1629
743.65651
795.77515
848.87335
902.21639
955.01332
1006.451
1055.7314
1102.1043
1144.8973
1183.5385
1217.5673
1246.6433
1270.5419
1289.1464
1302.4353
1310.4657
1313.3589
1311.2831
1304.4421
1293.062
1277.3807
1257.6654
1234.2602
1207.4713
1177.5346
1144.7143
1109.2917
1071.5658
1031.8629
990.54149
947.99598
904.66022
861.00884
817.55658
774.85561
733.49024
694.06904
657.21476
623.55195
593.69298
568.2234
547.6874
532.57468
523.30979
520.24519
523.65866
533.75487
550.67197
574.49572
605.26956
642.94373
687.42449
738.66368
796.61596
861.19804
932.29295
1009.7291
1093.263
1182.5612
1277.1847
1376.5792
1480.0723
1586.8794
1696.1193
1806.8389
1918.0437
2028.7326
2137.9337
2244.7364
2348.3198
2447.9731
2543.1096
2633.2725
2718.1343
2797.4909
2871.2508
2939.422
3002.0973
3059.4385
3111.6623
3159.0251
3201.8116
3240.3228
3274.8672
3305.7528
3333.2812
3357.7427
3379.4128
3398.5496
3415.3925
3430.1607
3443.0532
3454.2488
3463.9061
3472.1641
3479.1437
3484.9473
3489.658
3493.3447
3496.0889
3497.9064
3498.5364
37.434299
57.17612
94.648895
123.85618
153.44549
180.62048
206.45164
230.97508
254.63262
277.72901
300.74855
324.20436
348.63449
374.57996
402.56872
433.17111
466.81758
503.66705
543.87608
587.49025
634.40178
684.34491
736.89237
791.46168
847.33651
903.69426
959.64468
1014.2701
1066.6696
1115.9978
1161.4996
1202.5373
1238.602
1269.3236
1294.4643
1313.908
1327.6448
1335.7509
1338.3707
1335.6973
1327.9587
1315.4027
1298.2858
1276.8989
1251.6129
1222.7452
1190.532
1155.2403
1117.1539
1076.5747
1033.8348
989.3015
943.38233
896.52919
849.24042
802.06045
755.57724
710.41658
667.23349
626.70086
589.49537
556.28135
527.69368
504.32074
486.6889
475.24994
470.37302
472.34196
481.35796
497.54851
520.9854
551.69829
589.61925
634.64249
686.72569
745.84043
811.92702
884.89764
964.61062
1050.848
1143.2921
1241.5053
1344.9151
1452.8095
1564.3422
1678.55
1794.382
1910.736
2026.5003
2140.5964
2252.0175