/*--------------------------------*- C++ -*----------------------------------*\
| =========                 |                                                 |
| \\      /  F ield         | foam-extend: Open Source CFD                    |
|  \\    /   O peration     | Version:     4.1                                |
|   \\  /    A nd           | Web:         http://www.foam-extend.org         |
|    \\/     M anipulation  |                                                 |
\*---------------------------------------------------------------------------*/
FoamFile
{
    version     2.0;
    format      ascii;
    class       volScalarField;
    location    "0.05";
    object      p;
}
// * * * * * * * * * * * * * * * * * * * * * * * * * * * * * * * * * * * * * //

dimensions      [0 2 -2 0 0 0 0];

internalField   nonuniform List<scalar> 
16796
(
-28.404804
-54.795225
-84.123691
-113.98353
-144.44968
-175.54013
-207.31433
-239.847
-273.22113
-307.52448
-342.84767
-379.28304
-416.92397
-455.86424
-496.19758
-538.01715
-581.41509
-626.48192
-673.30605
-721.97304
-772.56493
-825.15942
-879.82904
-936.64005
-995.65154
-1056.9141
-1120.4687
-1186.3453
-1254.5614
-1325.1204
-1398.0102
-1473.2016
-1550.6464
-1630.2758
-1711.9988
-1795.7001
-1881.2391
-1968.4482
-2057.131
-2147.062
-2237.9849
-2329.6127
-2421.6267
-2513.6776
-2605.3853
-2696.3405
-2786.1063
-2874.2206
-2960.1985
-3043.5366
-3123.7162
-3200.2086
-3272.4804
-3339.9985
-3402.2369
-3458.6828
-3508.843
-3552.2509
-3588.4728
-3617.1143
-3637.8261
-3650.3091
-3654.3199
-3649.6737
-3636.2484
-3613.9833
-3582.8751
-3542.9859
-3494.4965
-3437.6548
-3372.7086
-3299.9575
-3219.7675
-3132.5555
-3038.782
-2938.9445
-2833.572
-2723.2179
-2608.4549
-2489.8688
-2368.0523
-2243.6
-2117.1028
-1989.143
-1860.2893
-1731.0928
-1602.0826
-1473.7626
-1346.6081
-1221.0631
-1097.5384
-976.40968
-858.01638
-742.6612
-630.60994
-522.09185
-417.30052
-316.39513
-219.50205
-126.71682
-38.106274
46.289086
126.45261
202.38894
274.12149
341.68979
405.14719
464.55841
519.99741
571.54536
619.28891
663.3187
703.72829
740.61298
774.06865
804.1933
831.09623
854.90974
875.76389
893.65641
908.492
921.22292
935.68181
953.95419
-26.801308
-54.366232
-83.841938
-113.74599
-144.2067
-175.27353
-207.01586
-239.51252
-272.84839
-307.11219
-342.39512
-378.7899
-416.39019
-455.29
-495.58332
-537.36352
-580.72302
-625.75261
-672.541
-721.17409
-771.73431
-824.29977
-878.94342
-935.73204
-994.72523
-1055.9742
-1119.5204
-1185.3945
-1253.6147
-1324.1849
-1397.094
-1472.3132
-1549.7952
-1629.4719
-1711.2527
-1795.0232
-1880.6432
-1967.9455
-2056.7343
-2146.7841
-2237.8389
-2329.6115
-2421.7831
-2514.0038
-2605.8931
-2697.0407
-2787.0087
-2875.3336
-2961.5291
-3045.0898
-3125.4953
-3202.2147
-3274.7121
-3342.4523
-3404.9067
-3461.5598
-3511.9163
-3555.507
-3591.8961
-3620.6871
-3641.5292
-3654.1223
-3658.2223
-3653.6446
-3640.2685
-3618.0391
-3586.9708
-3547.1461
-3498.6852
-3441.776
-3376.7007
-3303.7924
-3223.4249
-3136.0184
-3042.0358
-2941.9765
-2836.3711
-2725.7752
-2610.7632
-2491.9226
-2369.8482
-2245.1363
-2118.3796
-1990.1624
-1861.0551
-1731.6104
-1602.3595
-1473.8076
-1346.4316
-1220.6771
-1096.9559
-975.64473
-857.08402
-741.57703
-629.38996
-520.75225
-415.85745
-314.86447
-217.89926
-125.05674
-36.403006
48.022306
128.20348
204.14619
275.8748
343.42991
406.86578
466.24804
521.6514
573.15767
620.85389
664.83082
705.18167
742.00071
775.38184
805.42003
832.21972
855.90285
876.56734
894.20349
908.82991
921.2769
933.41964
943.89243
-25.449262
-53.771397
-83.436504
-113.385
-143.81973
-174.82866
-206.49759
-238.91294
-272.16339
-306.33973
-341.53442
-377.84104
-415.35393
-454.1677
-494.37692
-536.07556
-579.35664
-624.31166
-671.03006
-719.59853
-770.10038
-822.61466
-877.21535
-933.9703
-992.94027
-1054.1776
-1117.7253
-1183.615
-1251.8663
-1322.4847
-1395.4602
-1470.7655
-1548.3546
-1628.1604
-1710.0936
-1794.0406
-1879.8623
-1967.3918
-2056.4339
-2146.763
-2238.123
-2330.226
-2422.7525
-2515.3511
-2607.6394
-2699.2051
-2789.6075
-2878.3801
-2965.033
-3049.0569
-3129.9272
-3207.1083
-3280.0595
-3348.2404
-3411.1174
-3468.1699
-3518.8973
-3562.8255
-3599.5141
-3628.5621
-3649.6147
-3662.3684
-3666.5761
-3662.0507
-3648.6689
-3626.376
-3595.1933
-3555.2084
-3506.5578
-3449.4376
-3384.1157
-3310.9193
-3230.2256
-3142.4589
-3048.086
-2947.6102
-2841.5661
-2730.5132
-2615.0297
-2495.707
-2373.1436
-2247.9397
-2120.6916
-1991.9869
-1862.3998
-1732.4863
-1602.7806
-1473.7911
-1345.9974
-1219.8474
-1095.7553
-974.09955
-855.22184
-739.4265
-626.98028
-518.11275
-413.01721
-311.8519
-214.74178
-121.78047
-33.032474
51.464345
131.69624
207.67093
279.41497
346.97112
410.39583
469.75687
525.13105
576.60215
624.25913
668.19447
708.5029
745.27987
778.62039
808.62066
835.38383
859.01727
879.59489
897.13786
911.80482
924.21866
934.6256
940.64359
-24.61275
-53.140852
-82.853819
-112.78296
-143.15058
-174.0649
-205.62361
-237.9198
-271.04597
-305.09517
-340.16133
-376.33912
-413.72372
-452.41055
-492.49492
-534.07163
-577.23453
-622.07606
-668.68666
-717.15417
-767.56311
-819.99387
-874.52186
-931.21653
-990.14026
-1051.3472
-1114.8821
-1180.7787
-1249.0586
-1319.7291
-1392.7825
-1468.1934
-1545.9178
-1625.8906
-1708.0242
-1792.2067
-1878.3002
-1966.1391
-2055.5287
-2146.2442
-2238.029
-2330.595
-2423.6214
-2516.7552
-2609.6117
-2701.7758
-2792.8031
-2882.2228
-2969.5405
-3054.2412
-3135.7942
-3213.6578
-3287.2842
-3356.1261
-3419.6424
-3477.3052
-3528.6068
-3573.0662
-3610.2362
-3639.7098
-3661.1269
-3674.1793
-3678.6158
-3674.2457
-3660.9428
-3638.6526
-3607.3956
-3567.2524
-3518.3651
-3460.9405
-3395.2506
-3321.6253
-3240.4468
-3152.1448
-3057.1916
-2956.0964
-2849.3996
-2737.6664
-2621.4809
-2501.4403
-2378.1488
-2252.2121
-2124.2321
-1994.802
-1864.5011
-1733.8905
-1603.5092
-1473.8702
-1345.4573
-1218.7222
-1094.0822
-971.91865
-852.57528
-736.35794
-623.53426
-514.33406
-408.95027
-307.54022
-210.22743
-117.10364
-28.231107
56.354875
136.64333
212.64489
284.3891
351.92168
415.30202
474.60065
529.89697
581.27712
628.83209
672.65604
712.84484
749.49451
782.70038
812.55891
839.16982
862.62616
882.98772
900.30979
914.81311
926.88958
936.10628
940.51444
-24.156328
-52.617443
-82.256603
-112.09238
-142.34104
-173.11732
-204.52534
-236.66292
-269.6257
-303.5089
-338.40798
-374.41883
-411.63767
-450.16089
-490.08479
-531.50519
-574.51708
-619.21409
-665.68802
-714.02817
-764.32065
-816.64762
-871.08638
-927.7084
-986.57826
-1047.7524
-1111.278
-1177.1914
-1245.5165
-1316.2637
-1389.4277
-1464.9858
-1542.8966
-1623.0975
-1705.5032
-1790.0039
-1876.4635
-1964.7177
-2054.573
-2145.8049
-2238.1568
-2331.3397
-2425.0313
-2518.8766
-2612.4876
-2705.4452
-2797.3005
-2887.5768
-2975.773
-3061.3671
-3143.8203
-3222.5819
-3297.0953
-3366.8032
-3431.1548
-3489.6125
-3541.6586
-3586.8027
-3624.5888
-3654.6019
-3676.4746
-3689.8927
-3694.6002
-3690.4025
-3677.1718
-3654.8566
-3623.479
-3583.1182
-3533.9194
-3476.0941
-3409.9178
-3335.7253
-3253.905
-3164.8936
-3069.1708
-2967.2536
-2859.6899
-2747.0529
-2629.9344
-2508.9393
-2384.6793
-2257.7677
-2128.8138
-1998.4178
-1867.1661
-1735.6265
-1604.3445
-1473.839
-1344.5994
-1217.0823
-1091.7095
-968.86571
-848.89757
-732.11284
-618.78026
-509.1299
-403.35414
-301.60901
-204.01602
-110.6643
-21.613014
63.106047
143.48571
219.54061
291.30438
358.82686
422.17141
481.41243
536.6329
587.92223
635.37422
679.0853
719.15283
755.67346
788.74238
818.45443
844.90277
868.16634
888.29615
905.36235
919.55895
931.05457
939.23991
942.83043
-23.803319
-52.05675
-81.527473
-111.19956
-141.2742
-171.86481
-203.0778
-235.01365
-267.77031
-301.44479
-336.13402
-371.93511
-408.94544
-447.26252
-486.9838
-528.20635
-571.02651
-615.53942
-661.83852
-710.01491
-760.15673
-812.34827
-866.66923
-923.19361
-981.98873
-1043.114
-1106.6195
-1172.5448
-1240.9173
-1311.7505
-1385.0427
-1460.7746
-1538.908
-1619.3837
-1702.1193
-1787.0078
-1873.9154
-1962.6799
-2053.1089
-2144.9788
-2238.0332
-2331.9821
-2426.5016
-2521.2339
-2615.7876
-2709.7386
-2802.6321
-2893.9845
-2983.2867
-3070.0075
-3153.5981
-3233.4969
-3309.1356
-3379.945
-3445.3619
-3504.836
-3557.8374
-3603.8636
-3642.4472
-3673.1626
-3695.6329
-3709.5357
-3714.6082
-3710.6498
-3697.5294
-3675.1974
-3643.6767
-3603.0487
-3553.4631
-3495.137
-3428.3519
-3353.4495
-3270.8259
-3180.9267
-3084.2408
-2981.2949
-2872.6467
-2758.879
-2640.5936
-2518.4048
-2392.9341
-2264.8041
-2134.6333
-2003.031
-1870.5923
-1737.8936
-1605.4883
-1473.9032
-1343.6344
-1215.1449
-1088.8619
-965.17459
-844.43323
-726.94799
-612.98896
-502.78653
-396.53234
-294.38072
-196.45065
-102.82794
-13.567804
71.302424
151.7804
227.88585
299.6576
367.15073
430.43376
489.58608
544.69539
595.85551
643.16428
686.72166
726.6279
762.98197
795.88077
825.41923
851.68671
874.75542
894.67753
911.53081
925.46023
936.48409
943.9956
947.15696
-23.547444
-51.53551
-80.772148
-110.22112
-140.0705
-170.42974
-201.40513
-233.09836
-265.60885
-299.03506
-333.47521
-369.02763
-405.7909
-443.86379
-483.34504
-524.33317
-566.92609
-611.22068
-657.31232
-705.29425
-755.25695
-807.28731
-861.46782
-917.8755
-976.58094
-1037.6469
-1101.1273
-1167.0655
-1235.4927
-1306.4266
-1379.8696
-1455.8064
-1534.203
-1615.0039
-1698.1306
-1783.4792
-1870.919
-1960.2901
-2051.4019
-2144.0318
-2237.9235
-2332.7861
-2428.2939
-2524.0859
-2619.7663
-2714.9053
-2809.0411
-2901.6818
-2992.3085
-3080.379
-3165.3325
-3246.5943
-3323.5821
-3395.7121
-3462.4061
-3523.0988
-3577.2452
-3624.3286
-3663.8677
-3695.4244
-3718.6105
-3733.0941
-3738.6042
-3734.9335
-3721.9473
-3699.597
-3667.9065
-3626.9593
-3576.9097
-3517.9811
-3450.4624
-3374.7039
-3291.1115
-3200.1414
-3102.2938
-2998.1068
-2888.1501
-2773.0183
-2653.3249
-2529.6958
-2402.7641
-2273.1636
-2141.5239
-2008.4653
-1874.5933
-1740.4947
-1606.7326
-1473.8428
-1342.3303
-1212.6655
-1085.2821
-960.57499
-838.89856
-720.56597
-605.84896
-494.97826
-388.1446
-285.50024
-187.16102
-93.208718
-3.6937502
81.361937
161.96183
238.13174
309.91674
377.3781
440.59042
499.63887
554.61665
605.62257
652.75893
696.12949
735.83761
771.98465
804.66907
833.98568
860.02089
882.84396
902.51067
919.1005
932.71965
943.31928
950.36143
953.26806
-23.267963
-50.939909
-79.885743
-109.05625
-138.62892
-168.70872
-199.4007
-230.80684
-263.02745
-296.16206
-330.31006
-365.57097
-402.04464
-439.83115
-479.03073
-519.74351
-562.06921
-606.10672
-651.95365
-699.70574
-749.4562
-801.29492
-855.30766
-911.57499
-970.17129
-1031.1634
-1094.6096
-1160.5575
-1229.0433
-1300.0893
-1373.7027
-1449.8733
-1528.5718
-1609.7475
-1693.326
-1779.2077
-1867.2654
-1957.342
-2049.2494
-2142.766
-2237.6359
-2333.5675
-2430.2328
-2527.2674
-2624.2703
-2720.8054
-2816.4025
-2910.5599
-3002.7476
-3092.4103
-3178.973
-3261.8454
-3340.4287
-3414.1218
-3482.3287
-3544.466
-3599.971
-3648.3096
-3688.9841
-3721.5413
-3745.5794
-3760.755
-3766.7874
-3763.4615
-3750.6379
-3728.2694
-3696.3815
-3655.0608
-3604.4669
-3544.8306
-3476.4498
-3399.6852
-3314.9543
-3222.726
-3123.5138
-3017.8697
-2906.377
-2789.6444
-2668.2991
-2542.9808
-2414.3358
-2283.0113
-2149.6499
-2014.8845
-1879.3333
-1743.5948
-1608.2439
-1473.8273
-1340.8597
-1209.8208
-1081.1522
-955.255
-832.48878
-713.17014
-597.57271
-485.92754
-378.42418
-275.2123
-176.4039
-82.075837
7.7273029
92.990116
173.72314
249.9596
321.75208
389.1694
452.29354
511.21676
566.03896
616.86515
663.80322
706.96181
746.44837
782.36751
814.81991
843.90078
869.69494
892.2705
911.68512
928.01382
941.33506
951.57923
958.28495
961.02586
-23.008915
-50.333614
-78.943173
-107.78686
-137.03554
-166.79043
-197.15508
-228.23124
-260.1197
-292.92082
-326.735
-361.66292
-397.80568
-435.26481
-474.14213
-514.53954
-556.55877
-600.30097
-645.86628
-693.35322
-742.85812
-794.47427
-848.29117
-904.39342
-962.85977
-1023.7617
-1087.1624
-1153.1147
-1221.6601
-1292.8266
-1366.627
-1443.0568
-1522.0922
-1603.6879
-1687.7748
-1774.2582
-1863.0148
-1953.8914
-2046.7023
-2141.2278
-2237.2125
-2334.3638
-2432.3516
-2530.8076
-2629.3251
-2727.4606
-2824.7347
-2920.6345
-3014.6168
-3106.1117
-3194.5274
-3279.2561
-3359.6796
-3435.1768
-3505.1309
-3568.9377
-3626.0138
-3675.8048
-3717.7941
-3751.5109
-3776.5373
-3792.5167
-3799.1569
-3796.2337
-3783.6023
-3761.2164
-3729.1031
-3687.3528
-3636.1315
-3575.6784
-3506.3022
-3428.3756
-3342.3301
-3248.6492
-3147.862
-3040.5364
-2927.2718
-2808.6928
-2685.4426
-2558.1765
-2427.5562
-2294.2442
-2158.8979
-2022.1649
-1884.6776
-1747.0486
-1609.866
-1473.6891
-1339.0445
-1206.4223
-1076.2732
-949.00609
-824.98625
-704.53438
-587.92628
-475.39337
-367.12376
-263.26409
-163.92185
-69.168114
20.959347
106.45275
187.33085
263.63542
335.42778
402.78544
465.79888
524.56856
579.20207
629.81161
676.51159
719.41646
758.63873
794.28728
826.46604
855.2721
880.79103
903.09237
922.23603
938.29278
951.32564
961.26637
967.71659
970.33953
-22.70916
-49.646039
-77.874272
-106.34429
-135.22218
-164.60626
-194.59859
-225.30055
-256.81314
-289.23739
-322.6746
-357.22658
-392.99574
-430.0851
-468.59818
-508.63886
-550.31107
-593.71845
-638.96395
-686.14922
-735.37406
-786.73559
-840.3275
-896.23896
-954.55361
-1015.3483
-1078.6915
-1144.6423
-1213.2482
-1284.5435
-1358.5475
-1435.2621
-1514.6701
-1596.7325
-1681.3863
-1768.5421
-1858.0817
-1949.8562
-2043.683
-2139.3447
-2236.5865
-2335.1154
-2434.5987
-2534.6639
-2634.8982
-2734.8497
-2834.0286
-2931.9094
-3027.9339
-3121.5155
-3212.0438
-3298.8901
-3381.4144
-3458.9725
-3530.924
-3596.6404
-3655.5145
-3706.9687
-3750.4642
-3785.5099
-3811.6697
-3828.5714
-3835.9096
-3833.4499
-3821.0413
-3798.6379
-3766.2693
-3724.0305
-3672.0947
-3610.7111
-3540.2006
-3460.9505
-3373.408
-3278.0739
-3175.4949
-3066.2571
-2950.9784
-2830.3016
-2704.8877
-2575.41
-2442.5474
-2306.9795
-2169.3805
-2030.4146
-1890.7305
-1750.9566
-1611.6963
-1473.5234
-1336.9778
-1202.5618
-1070.7366
-941.9199
-816.48362
-694.75307
-577.00653
-463.47566
-354.34682
-249.76299
-149.82628
-54.600948
35.883231
121.62741
202.6599
279.03244
350.81649
418.09958
480.982
539.57361
593.99083
644.35408
690.78519
733.40525
772.33255
807.68087
839.55799
868.06368
893.28556
915.29569
934.15632
949.93605
962.69217
972.36746
978.61184
981.1437
-22.402615
-48.918171
-76.723572
-104.77569
-133.23786
-162.20633
-191.78196
-222.06566
-253.1586
-285.16231
-318.17895
-352.31141
-387.66344
-424.33962
-462.44531
-502.08646
-543.36943
-586.40058
-631.28593
-678.13059
-727.03819
-778.11012
-831.44469
-887.13617
-945.27368
-1005.9399
-1069.2098
-1135.1488
-1203.8114
-1275.2391
-1349.4584
-1426.4788
-1506.2904
-1588.8614
-1674.1356
-1762.0302
-1852.4327
-1945.1992
-2040.151
-2137.0733
-2235.7126
-2335.7753
-2436.9263
-2538.7886
-2640.9428
-2742.9277
-2844.242
-2944.346
-3042.6652
-3138.5938
-3231.5002
-3320.7326
-3405.6262
-3485.5105
-3559.718
-3627.5929
-3688.5006
-3741.8371
-3787.0385
-3823.5902
-3851.0352
-3868.9835
-3877.1149
-3875.1832
-3863.0302
-3840.61
-3807.9554
-3765.1667
-3712.4254
-3649.9924
-3578.2027
-3497.4602
-3408.2304
-3311.0335
-3206.4368
-3095.0468
-2977.5022
-2854.4662
-2726.6201
-2594.6567
-2459.2746
-2321.1721
-2181.0424
-2039.5681
-1897.4162
-1755.2329
-1613.639
-1473.2246
-1334.5451
-1198.1164
-1064.412
-933.85944
-806.83839
-683.67943
-564.66353
-450.02263
-339.94098
-234.55723
-133.96724
-38.227398
52.641798
138.65177
219.84183
296.27514
368.0347
435.21955
497.94117
556.3201
610.4829
660.55935
706.67987
748.97324
787.56455
822.57346
854.11256
882.28544
907.18302
928.88074
947.44359
962.94012
975.42769
984.86268
990.93125
993.38753
-22.058404
-48.112968
-75.453444
-103.04414
-131.04636
-159.55484
-188.66951
-218.49088
-249.1202
-280.65948
-313.21168
-346.88075
-381.77182
-417.99107
-455.64581
-494.84422
-535.69525
-578.30822
-622.79248
-669.25691
-717.80934
-768.55581
-821.59977
-877.04107
-934.9749
-995.49047
-1058.6697
-1124.5853
-1193.2997
-1264.8622
-1339.3078
-1416.654
-1496.8994
-1580.0203
-1665.9686
-1754.6686
-1846.0147
-1939.8687
-2036.0567
-2134.367
-2234.5478
-2336.3052
-2439.3019
-2543.156
-2647.441
-2751.6858
-2855.3762
-2957.9572
-3058.8355
-3157.3845
-3252.9487
-3344.8503
-3432.3965
-3514.8873
-3591.6245
-3661.9215
-3725.1127
-3780.5639
-3827.6827
-3865.9281
-3894.8192
-3913.9458
-3922.9708
-3921.6349
-3909.7714
-3887.3346
-3854.3608
-3810.9568
-3757.3137
-3693.7056
-3620.4842
-3538.0722
-3446.9558
-3347.6777
-3240.8278
-3127.0362
-3006.9646
-2881.2991
-2750.7432
-2616.0116
-2477.824
-2336.8999
-2193.9531
-2049.6867
-1904.7879
-1759.923
-1615.732
-1472.8238
-1331.7708
-1193.1049
-1057.3132
-924.83447
-796.05728
-671.31802
-550.90068
-435.03734
-323.90966
-217.65123
-116.35065
-20.055109
71.225519
157.51445
238.86357
315.34903
387.06694
454.12933
516.66025
574.7923
628.66335
678.41367
724.18328
766.1096
804.32541
838.95705
870.12283
897.93114
922.47723
943.84076
962.09016
977.296
989.51893
998.72873
1004.6391
1007.0286
-21.694136
-47.250726
-74.084959
-101.1713
-128.66972
-156.67397
-185.28326
-214.59778
-244.71886
-275.74895
-307.79178
-340.95237
-375.33722
-411.05423
-448.2127
-486.92321
-527.29744
-569.4479
-613.48754
-659.52932
-707.68563
-758.06756
-810.78417
-865.94143
-923.64118
-983.97982
-1047.0469
-1112.9234
-1181.6802
-1253.3755
-1328.0535
-1405.7411
-1486.4462
-1570.1544
-1656.8263
-1746.395
-1838.7624
-1933.797
-2031.3305
-2131.1551
-2233.0213
-2336.6353
-2441.6576
-2547.7014
-2654.3325
-2761.0693
-2867.3836
-2972.7032
-3076.4149
-3177.8682
-3276.3815
-3371.2479
-3461.7433
-3547.1346
-3626.6894
-3699.6859
-3765.4239
-3823.2355
-3872.4956
-3912.6334
-3943.1413
-3963.586
-3973.6116
-3972.9437
-3961.4065
-3938.9538
-3905.6262
-3861.538
-3806.8916
-3741.9763
-3667.1625
-3582.8945
-3489.6824
-3388.0937
-3278.7446
-3162.2908
-3039.42
-2910.8434
-2777.2891
-2639.4954
-2498.2056
-2354.1617
-2208.1004
-2060.7472
-1912.8116
-1764.9821
-1617.9202
-1472.2557
-1328.5807
-1187.4447
-1049.3504
-914.74948
-784.04027
-657.56581
-535.6134
-418.41513
-306.14957
-198.94438
-96.879701
0.0078023231
91.720495
178.29506
259.79767
336.31922
407.97065
474.8786
537.18129
595.02481
648.5597
697.93796
743.31033
784.8239
822.62006
856.83272
887.58671
914.99613
939.16135
960.16686
978.08529
992.9906
1004.9483
1013.9403
1019.7018
1022.0294
-21.296265
-46.315173
-72.601571
-99.141028
-126.09238
-153.54865
-181.6085
-210.37187
-239.94018
-270.41631
-301.90472
-334.51152
-368.3446
-403.5136
-440.12992
-478.30666
-518.15841
-559.80104
-603.35138
-648.92674
-696.64443
-746.62102
-798.97164
-853.80889
-911.24188
-971.37485
-1034.3058
-1100.1246
-1168.9115
-1240.7348
-1315.6487
-1393.6905
-1474.8786
-1559.2089
-1646.6523
-1737.1511
-1830.6164
-1926.9243
-2025.913
-2127.3796
-2231.0774
-2336.7133
-2443.9457
-2552.3831
-2661.5832
-2771.0528
-2880.249
-2988.581
-3095.4131
-3200.0692
-3301.8384
-3399.9818
-3493.7401
-3582.3436
-3665.0213
-3741.0124
-3809.5777
-3870.011
-3921.6511
-3963.8934
-3996.2
-4018.1119
-4029.2518
-4029.3286
-4018.1561
-3995.6874
-3961.9683
-3917.122
-3861.3637
-3795.0002
-3718.4233
-3632.102
-3536.5732
-3432.4328
-3320.3259
-3200.9372
-3074.9829
-2943.2018
-2806.3487
-2665.1879
-2520.4876
-2373.0147
-2223.5302
-2072.7841
-1921.5104
-1770.4221
-1620.2048
-1471.5114
-1324.956
-1181.1084
-1040.4885
-903.56281
-770.74059
-642.37232
-518.74889
-400.10221
-286.60716
-178.38443
-75.504393
22.008385
114.17024
201.03318
282.67955
359.21685
430.7727
497.49008
559.52298
617.0325
670.18322
719.14011
764.06577
805.11797
842.44765
876.19714
906.49864
933.47271
957.2256
977.8472
995.41499
1010.0073
1021.6951
1030.4708
1036.0872
1038.3549
-20.871896
-45.314175
-71.011102
-96.961106
-123.32205
-150.18641
-177.65244
-205.81988
-234.79023
-264.6668
-295.55477
-327.56133
-360.79576
-395.36951
-431.39617
-468.99143
-508.27297
-549.36021
-592.37409
-637.43659
-684.67027
-734.19759
-786.14018
-840.61787
-897.74761
-957.64217
-1020.4087
-1086.1469
-1154.9474
-1226.8892
-1302.0379
-1380.4422
-1462.1323
-1547.1156
-1635.3742
-1726.8615
-1821.4984
-1919.1702
-2019.7225
-2122.9584
-2228.6348
-2336.4599
-2446.0904
-2557.1301
-2669.1282
-2781.5798
-2893.9256
-3005.5547
-3115.8073
-3223.9789
-3329.3266
-3431.0757
-3528.4285
-3620.574
-3706.6986
-3785.9979
-3857.6888
-3921.0227
-3975.2974
-4019.8707
-4054.1706
-4077.7091
-4090.0851
-4090.989
-4080.2227
-4057.7381
-4023.5874
-3977.9042
-3920.9183
-3852.9566
-3774.4355
-3685.8516
-3587.7725
-3480.8258
-3365.689
-3243.0792
-3113.7436
-2978.4516
-2837.9866
-2693.1408
-2544.7093
-2393.4855
-2240.2565
-2085.7988
-1930.8732
-1776.2192
-1622.5495
-1470.5428
-1320.8379
-1174.0271
-1030.6503
-891.19023
-756.0688
-625.64467
-500.21261
-380.00414
-265.18966
-155.88176
-52.139532
46.026387
138.64826
225.79548
307.56867
384.09405
455.51786
522.00133
583.71599
640.83953
693.55203
742.03273
786.45723
826.99504
863.80752
897.04624
926.85154
953.35115
976.65778
996.86723
1014.0623
1028.3263
1039.7356
1048.292
1053.7631
1055.9713
-20.416062
-44.241794
-69.307551
-94.625764
-120.35326
-146.58209
-173.41011
-200.9369
-229.26407
-258.4953
-288.73648
-320.09587
-352.68418
-386.61466
-422.00315
-458.96806
-497.63029
-538.11299
-580.54145
-625.04257
-671.74451
-720.77603
-772.26575
-826.34122
-883.12787
-942.74769
-1005.3178
-1070.9485
-1139.7418
-1211.7886
-1287.1666
-1365.9377
-1448.1445
-1533.8077
-1622.922
-1715.4529
-1811.3329
-1910.4575
-2012.6812
-2117.814
-2225.6175
-2335.802
-2448.0231
-2561.8798
-2676.9132
-2792.6053
-2908.3799
-3023.6046
-3137.5929
-3249.6098
-3358.8768
-3464.5803
-3565.8797
-3661.9185
-3751.8357
-3834.7782
-3909.9142
-3976.4473
-4033.6298
-4080.777
-4117.2791
-4142.6153
-4156.358
-4158.1768
-4147.8604
-4125.3592
-4090.733
-4044.1275
-3985.7894
-3916.0685
-3835.409
-3744.3393
-3643.4614
-3533.4386
-3414.9846
-3288.8523
-3155.8232
-3016.6993
-2872.2955
-2723.4332
-2570.9363
-2415.626
-2258.3176
-2099.8157
-1940.9102
-1782.37
-1624.9371
-1469.3193
-1316.1832
-1166.1464
-1019.7714
-877.55929
-739.94607
-607.2996
-479.91881
-358.03451
-241.81176
-131.35366
-26.706258
72.135724
165.22271
252.64378
334.52019
410.99909
482.24753
548.44703
609.78851
666.46794
718.68239
766.62674
810.49075
850.45667
886.69723
919.37404
948.63626
974.6194
997.44317
1017.2097
1034.0075
1047.9251
1059.044
1067.3745
1072.6972
1074.8448
-19.931018
-43.100388
-67.49313
-92.137096
-117.18801
-142.73751
-168.88309
-195.72418
-223.36243
-251.9019
-281.44916
-312.1135
-344.00705
-377.24492
-411.94525
-448.22923
-486.2211
-526.04794
-567.83956
-611.7281
-657.84763
-706.33359
-757.32205
-810.94884
-867.34849
-926.65291
-988.98994
-1054.4816
-1123.2419
-1195.3749
-1270.9719
-1350.1086
-1432.8422
-1519.2074
-1609.2133
-1702.8391
-1800.0302
-1900.6939
-2004.695
-2111.8519
-2221.932
-2334.6485
-2449.6566
-2566.5512
-2684.8645
-2804.0657
-2923.5604
-3042.6928
-3160.7482
-3276.9578
-3390.5048
-3500.5323
-3606.1528
-3706.4594
-3800.5384
-3887.4825
-3966.4059
-4036.4588
-4096.8426
-4146.8252
-4185.7542
-4213.0725
-4228.3225
-4231.1508
-4221.3313
-4198.8126
-4163.6634
-4116.0434
-4056.2188
-3984.5656
-3901.5596
-3807.7655
-3703.8239
-3590.4385
-3468.3634
-3338.3907
-3201.3398
-3058.048
-2909.3633
-2756.1387
-2599.2277
-2439.4812
-2277.7436
-2114.8502
-1951.6216
-1788.859
-1627.337
-1467.7957
-1310.9329
-1157.395
-1007.7696
-862.57887
-722.27463
-587.23494
-457.7632
-334.08908
-216.37123
-104.70167
0.8885942
100.42312
193.97299
281.64957
363.59731
439.98679
511.00828
576.86571
637.77141
693.9414
745.59134
792.93307
836.17173
875.50335
911.11288
943.1727
971.84145
997.263
1019.5644
1038.8545
1055.2279
1068.7783
1079.5922
1087.6871
1092.856
1094.941
-19.415308
-41.88824
-65.566148
-89.493541
-113.82489
-138.65137
-164.07014
-190.18038
-217.0838
-244.88475
-273.69045
-303.6112
-334.76053
-367.25541
-401.2163
-436.76727
-474.036
-513.15364
-554.25475
-597.47691
-642.96047
-690.8479
-741.28321
-794.41102
-850.37559
-909.31948
-971.3821
-1036.6979
-1105.3944
-1177.5895
-1253.3896
-1332.8856
-1416.1503
-1503.2346
-1594.1631
-1688.9307
-1787.4973
-1889.7838
-1995.6668
-2104.9744
-2217.4815
-2332.9053
-2450.9013
-2571.0608
-2692.9077
-2815.8973
-2939.4165
-3062.7846
-3185.2563
-3306.0264
-3424.2361
-3538.9812
-3649.3225
-3754.2975
-3852.9341
-3944.265
-4027.344
-4101.2621
-4165.1637
-4218.2639
-4259.8625
-4289.3617
-4306.2707
-4310.2102
-4300.9377
-4278.3993
-4242.6747
-4193.9396
-4132.4826
-4058.7097
-3973.133
-3876.3579
-3769.0691
-3652.0155
-3525.9964
-3391.8474
-3250.4289
-3102.6164
-2949.2931
-2791.3447
-2629.6558
-2465.1077
-2298.5758
-2130.9269
-1963.0154
-1795.6773
-1629.7232
-1465.9296
-1305.0289
-1147.7003
-994.56001
-846.154
-702.9518
-565.34288
-433.6354
-308.05733
-188.75967
-75.821466
30.743682
130.98025
224.98284
312.88801
394.86626
471.11439
541.84841
607.29707
667.69618
723.28372
774.29554
820.96189
863.50445
902.13405
937.04869
968.43227
996.45347
1021.265
1043.0016
1061.7791
1077.6982
1090.8579
1101.3494
1109.1969
1114.2049
1116.2244
-18.869501
-40.60593
-63.527148
-86.695623
-110.26439
-134.32414
-158.97155
-184.30558
-210.42787
-237.44304
-265.45888
-294.58665
-324.94126
-356.64151
-389.81023
-424.57441
-461.06524
-499.41809
-539.77244
-582.27158
-627.06241
-674.29481
-724.12118
-776.69547
-832.1723
-890.70561
-952.44722
-1017.545
-1086.1409
-1158.3682
-1234.3492
-1314.1918
-1397.9862
-1485.8006
-1577.6775
-1673.6287
-1773.6309
-1877.6201
-1985.4869
-2097.071
-2212.1559
-2330.4644
-2451.6536
-2575.3117
-2700.9544
-2828.0234
-2955.8855
-3083.8338
-3211.0903
-3336.8104
-3460.0894
-3579.9717
-3695.4611
-3805.5339
-3909.1532
-4005.2855
-4092.9172
-4171.0733
-4238.8349
-4295.3579
-4339.889
-4371.7844
-4390.5166
-4395.6772
-4387.0055
-4364.4444
-4328.0866
-4278.1266
-4214.8784
-4138.7825
-4050.3923
-3950.3597
-3839.4192
-3718.3709
-3588.0643
-3449.3831
-3303.2325
-3150.5289
-2992.1923
-2829.1425
-2662.296
-2492.565
-2320.8566
-2148.0712
-1975.0987
-1802.8133
-1632.0655
-1463.672
-1298.4049
-1136.9801
-980.04668
-828.1774
-681.8619
-541.5023
-407.4118
-279.81597
-158.85661
-44.597579
62.967657
163.90757
258.3435
346.44049
428.39829
504.44296
574.81904
639.78263
699.59531
754.51895
804.81131
850.72244
892.49182
930.346
964.4969
995.14053
1022.4562
1046.6056
1067.7319
1085.9577
1101.3902
1114.1334
1124.2827
1131.8687
1136.7072
1138.6579
-18.29335
-39.253242
-61.376016
-83.743359
-106.50666
-129.75599
-153.58753
-178.09986
-203.3945
-229.57622
-256.75335
-285.038
-314.54644
-345.39927
-377.72167
-411.64358
-447.2998
-484.83001
-524.37876
-566.0953
-610.13333
-656.65054
-705.80811
-757.76989
-812.70147
-870.76889
-932.13727
-996.96889
-1065.4212
-1137.6441
-1213.7774
-1293.9473
-1378.263
-1466.8122
-1559.6567
-1656.8278
-1758.3205
-1864.0886
-1974.0383
-2088.023
-2205.8368
-2327.2096
-2451.8016
-2579.1987
-2708.9091
-2840.3605
-2972.8992
-3105.7906
-3238.2215
-3369.3049
-3498.0866
-3623.5545
-3744.65
-3860.2819
-3969.342
-4070.7229
-4163.3366
-4246.1346
-4318.1271
-4378.4042
-4426.1529
-4460.6784
-4481.4116
-4487.9122
-4479.8986
-4457.3103
-4420.2551
-4368.9492
-4303.736
-4225.0952
-4133.6276
-4030.0383
-3915.1181
-3789.7247
-3654.7641
-3511.173
-3359.9054
-3201.9212
-3038.1792
-2869.6337
-2697.2331
-2521.9209
-2344.6364
-2166.3145
-1987.8833
-1810.2582
-1634.3338
-1460.9722
-1290.9903
-1125.1459
-964.12544
-808.53221
-658.87861
-515.58086
-378.9574
-249.23052
-126.53094
-10.904712
97.678018
199.31325
294.15278
382.3938
464.26892
540.03675
609.97346
674.36523
733.50179
787.67097
837.15417
882.22273
923.13505
960.13442
993.44739
1023.2827
1049.8306
1073.2626
1093.7297
1111.362
1126.2729
1138.5713
1148.3567
1155.6654
1160.3245
1162.2024
-17.687049
-37.830485
-59.113181
-80.637294
-102.55232
-124.94763
-147.91873
-171.56372
-195.98392
-221.28413
-247.57309
-274.96373
-303.57356
-333.52494
-364.94541
-397.96783
-432.73066
-469.37798
-508.05958
-548.93082
-592.1525
-637.89044
-686.31504
-737.60055
-791.92416
-849.46478
-910.40167
-974.91253
-1043.1715
-1115.3463
-1191.5959
-1272.0664
-1356.8877
-1446.1689
-1539.9935
-1638.414
-1741.4465
-1849.0646
-1961.1926
-2077.6998
-2198.3933
-2323.0119
-2451.2203
-2582.6037
-2716.6633
-2852.8131
-2990.3782
-3128.5949
-3266.6128
-3403.499
-3538.2456
-3669.7791
-3796.9725
-3918.6602
-4033.6553
-4140.7687
-4238.8297
-4326.7077
-4403.3343
-4467.7256
-4519.0023
-4556.4121
-4579.3399
-4587.3093
-4580.0155
-4557.3937
-4519.5696
-4466.7842
-4399.4149
-4317.9864
-4223.1536
-4115.6822
-3996.4274
-3866.3122
-3726.3054
-3577.4029
-3420.6116
-3256.9376
-3087.3797
-2912.9269
-2734.559
-2553.2501
-2369.9714
-2185.6934
-2001.3842
-1818.0043
-1636.4971
-1457.7759
-1282.7084
-1112.1007
-946.68151
-787.08939
-633.86243
-487.43253
-348.12353
-216.15327
-91.639146
25.393724
135.00226
237.31408
332.51564
420.84049
502.55804
577.96318
647.36702
711.08874
769.44879
822.76311
871.33851
915.46907
955.43331
991.49213
1023.8874
1052.8412
1078.5551
1101.2103
1120.9663
1137.9604
1152.3121
1164.1354
1173.533
1180.5471
1185.0158
1186.8166
-17.05075
-36.338017
-56.739225
-77.378225
-98.402369
-119.90015
-141.96629
-164.69827
-188.19703
-212.56732
-237.91814
-264.36313
-292.02095
-321.01567
-351.47709
-383.54103
-417.34961
-453.05137
-490.80144
-530.76149
-573.09963
-617.99013
-665.61303
-716.15348
-769.8009
-826.7478
-887.18846
-951.31704
-1019.3255
-1091.401
-1167.7228
-1248.4589
-1333.762
-1423.7643
-1518.5733
-1618.2656
-1722.8804
-1832.4139
-1946.8113
-2065.9603
-2189.6832
-2317.7303
-2449.7729
-2585.3968
-2724.0973
-2865.2751
-3008.2338
-3152.1791
-3296.221
-3439.3779
-3580.5835
-3718.6975
-3852.5178
-3980.7974
-4102.2622
-4215.6326
-4319.646
-4413.0807
-4494.7803
-4563.6786
-4618.8217
-4659.3934
-4684.7266
-4694.3047
-4687.7968
-4665.1329
-4626.4596
-4572.0467
-4502.3103
-4417.8269
-4319.3135
-4207.6051
-4083.6305
-3948.3865
-3802.9132
-3648.2716
-3485.5263
-3315.7325
-3139.9296
-2959.1406
-2774.3752
-2586.6364
-2396.9265
-2206.2516
-2015.622
-1826.0471
-1638.5247
-1454.0259
-1273.4768
-1097.7387
-927.58929
-763.70724
-606.65996
-456.89679
-314.747
-180.42254
-54.024683
64.446121
175.07823
278.03562
373.54426
461.87877
543.34979
618.29256
687.05675
749.99773
807.46931
859.81776
907.37717
950.46578
989.38334
1024.4093
1055.8014
1083.7954
1108.6046
1130.4201
1149.4097
1165.7181
1179.4708