/*--------------------------------*- C++ -*----------------------------------*\
| =========                 |                                                 |
| \\      /  F ield         | foam-extend: Open Source CFD                    |
|  \\    /   O peration     | Version:     4.1                                |
|   \\  /    A nd           | Web:         http://www.foam-extend.org         |
|    \\/     M anipulation  |                                                 |
\*---------------------------------------------------------------------------*/
FoamFile
{
    version     2.0;
    format      ascii;
    class       surfaceScalarField;
    location    "0.05";
    object      phi;
}
// * * * * * * * * * * * * * * * * * * * * * * * * * * * * * * * * * * * * * //

dimensions      [0 3 -1 0 0 0 0];

internalField   nonuniform List<scalar> 
32976
(
-0.2417885
-0.00060055272
-0.24123905
-0.0005494516
-0.24076263
-0.00047642008
-0.24035697
-0.00040565668
-0.24002562
-0.00033135094
-0.23976738
-0.00025823812
-0.23957997
-0.00018740571
-0.23945896
-0.00012101236
-0.23939817
-6.0793945e-05
-0.23938962
-8.5486165e-06
-0.23942287
3.3251376e-05
-0.23948465
6.1777355e-05
-0.23956157
7.6918514e-05
-0.23964242
8.0857691e-05
-0.23971788
7.5459594e-05
-0.23978012
6.2230929e-05
-0.23982264
4.2528602e-05
-0.23984035
1.770416e-05
-0.23982937
-1.0980018e-05
-0.23978603
-4.3338926e-05
-0.23970636
-7.9664765e-05
-0.23958704
-0.00011931989
-0.23942585
-0.00016119218
-0.23922177
-0.00020408711
-0.23897505
-0.00024671457
-0.2386873
-0.00028774647
-0.23836145
-0.00032584995
-0.23800171
-0.00035974367
-0.23761349
-0.00038821691
-0.23720331
-0.00041018463
-0.23677862
-0.00042469028
-0.23634767
-0.00043094955
-0.23591932
-0.00042834427
-0.2355029
-0.00041642886
-0.23510795
-0.00039494625
-0.23474415
-0.0003637978
-0.23442109
-0.00032306517
-0.23414811
-0.00027298115
-0.23393414
-0.00021396053
-0.23378754
-0.00014660483
-0.23371579
-7.17462e-05
-0.2337251
9.3044118e-06
-0.23381789
9.2794421e-05
-0.23399244
0.00017454953
-0.2342462
0.00025375355
-0.23457701
0.00033081055
-0.23498247
0.00040546447
-0.23545964
0.00047716492
-0.23600483
0.00054519088
-0.23661359
0.00060876683
-0.23728073
0.00066713794
-0.23800034
0.00071960875
-0.2387659
0.0007655641
-0.23957039
0.00080448275
-0.24040633
0.00083594131
-0.24126595
0.00085962143
-0.24214126
0.00087531054
-0.24302416
0.00088290244
-0.24390656
0.00088239578
-0.24478045
0.00087389329
-0.24563805
0.00085759386
-0.24647184
0.00083379078
-0.2472747
0.00080286329
-0.24803997
0.00076526905
-0.2487615
0.00072153554
-0.24943375
0.00067225021
-0.25005181
0.00061805204
-0.25061142
0.00055961828
-0.25110908
0.00049765671
-0.25154198
0.00043289371
-0.25190804
0.00036606376
-0.25220594
0.00029789814
-0.25243505
0.00022911379
-0.25259545
0.00016039546
-0.25268783
9.2382784e-05
-0.25271346
2.5628524e-05
-0.25267359
-3.9869882e-05
-0.25256888
-0.00010471093
-0.2524007
-0.00016817921
-0.25217205
-0.00022864448
-0.25188685
-0.00028520011
-0.25154959
-0.00033726501
-0.25116516
-0.00038443034
-0.25073876
-0.00042639976
-0.2502758
-0.00046295882
-0.24978183
-0.00049396577
-0.24926249
-0.00051934687
-0.24872339
-0.00053909374
-0.24817013
-0.0005532609
-0.24760817
-0.00056196261
-0.2470428
-0.00056537025
-0.24647909
-0.00056370555
-0.24592186
-0.00055723781
-0.24537558
-0.0005462767
-0.24484441
-0.00053116615
-0.24433214
-0.00051227746
-0.24384213
-0.00049000218
-0.24337739
-0.00046474591
-0.24294047
-0.00043691941
-0.24253353
-0.0004069341
-0.24215834
-0.00037519479
-0.24181624
-0.00034209442
-0.24150824
-0.00030800913
-0.24123494
-0.00027329474
-0.24099666
-0.00023828232
-0.24079338
-0.0002032772
-0.24062482
-0.0001685566
-0.24049046
-0.00013436911
-0.24038952
-0.00010093488
-0.24032107
-6.8447018e-05
-0.240284
-3.7071198e-05
-0.24027705
-6.954965e-06
-0.24029874
2.1691556e-05
-0.24034748
4.8738562e-05
-0.24042172
7.4247846e-05
-0.24051998
9.8252286e-05
-0.24064068
0.00012069881
-0.24078216
0.00014148213
-0.24094258
0.00016041967
-0.24111984
0.00017726085
-0.24131075
0.0001909121
-0.24150861
0.00019785547
-0.24171157
0.00020296809
0.00022387557
-0.27147065
-0.0011503208
-0.27096966
-0.0010504408
-0.27051542
-0.00093066403
-0.27010832
-0.00081275968
-0.26974491
-0.00069475407
-0.26942174
-0.00058141132
-0.26913427
-0.00047487214
-0.26887747
-0.00037781916
-0.26864577
-0.00029249483
-0.2684333
-0.00022101259
-0.268235
-0.0001650496
-0.26804738
-0.00012584618
-0.26786612
-0.00010433997
-0.26768445
-0.00010080924
-0.26749432
-0.00011467652
-0.26728729
-0.00014479971
-0.26705514
-0.00018961264
-0.26679022
-0.00024721842
-0.26648574
-0.00031546308
-0.26613723
-0.00039184437
-0.26574315
-0.00047374378
-0.2653038
-0.00055867678
-0.26482089
-0.00064410108
-0.26429749
-0.00072748683
-0.26373786
-0.00080634483
-0.26314728
-0.00087832268
-0.26253192
-0.00094120963
-0.26189863
-0.00099303755
-0.26125478
-0.0010320652
-0.26060809
-0.001056875
-0.25996645
-0.0010663336
-0.25933772
-0.0010596714
-0.25872962
-0.0010364449
-0.25814952
-0.00099653323
-0.2576043
-0.0009401683
-0.25710024
-0.00086785136
-0.25664292
-0.000780394
-0.25623707
-0.00067883016
-0.25588658
-0.00056444962
-0.25559445
-0.0004387306
-0.2553628
-0.00030339309
-0.25519306
-0.00016043945
-0.25508845
-1.1820039e-05
-0.2550541
0.00014020759
-0.25509324
0.00029289258
-0.2552063
0.0004438674
-0.255392
0.00059116818
-0.25564778
0.00073293817
-0.25597
0.00086740908
-0.25635414
0.0009929147
-0.25679492
0.0011079129
-0.25728632
0.0012110108
-0.25782174
0.0013009851
-0.25839406
0.0013768017
-0.25899574
0.0014376212
-0.25961893
0.001482813
-0.26025558
0.0015119561
-0.26089752
0.0015248409
-0.26153659
0.0015214664
-0.26216473
0.0015020381
-0.26277409
0.0014669537
-0.2633571
0.0014167982
-0.26390656
0.0013523282
-0.26441575
0.0012744561
-0.26487845
0.0011842337
-0.26528903
0.0010828322
-0.2656425
0.00097152456
-0.26593455
0.00085166074
-0.26616154
0.0007246512
-0.26632059
0.00059194421
-0.26640953
0.00045500625
-0.26642694
0.00031530243
-0.2663721
0.0001742805
-0.26624506
3.3350193e-05
-0.26604651
-0.00010616588
-0.26577783
-0.00024305111
-0.26544162
-0.00037607924
-0.26504234
-0.00050399657
-0.26458473
-0.00062578862
-0.2640728
-0.00074057236
-0.26351053
-0.00084746567
-0.2629021
-0.00094569683
-0.26225191
-0.0010346189
-0.2615646
-0.0011137127
-0.26084497
-0.0011825848
-0.26009797
-0.001240968
-0.2593286
-0.0012887191
-0.25854188
-0.0013258167
-0.25774278
-0.0013523581
-0.25693619
-0.0013685539
-0.25612683
-0.0013747233
-0.25531926
-0.0013712809
-0.25451776
-0.001358732
-0.25372638
-0.0013376587
-0.25294884
-0.001308708
-0.25218854
-0.0012725792
-0.25144853
-0.0012300092
-0.25073152
-0.0011817623
-0.25003982
-0.0011286114
-0.24937543
-0.0010713313
-0.24873994
-0.001010684
-0.24813462
-0.00094740912
-0.24756042
-0.00088221445
-0.24701794
-0.00081577035
-0.24650752
-0.0007487
-0.24602922
-0.00068157877
-0.24558285
-0.00061492933
-0.245168
-0.00054922052
-0.24478407
-0.00048486687
-0.24443028
-0.00042223044
-0.24410573
-0.00036162087
-0.24380938
-0.00030330307
-0.24354021
-0.00024747856
-0.24329717
-0.00019431082
-0.24307897
-0.00014394728
-0.24288421
-9.650659e-05
-0.24271141
-5.2103434e-05
-0.24255902
-1.0903592e-05
-0.24242544
2.6839012e-05
-0.24230889
6.0709629e-05
-0.24220725
8.9275234e-05
-0.24211901
0.00010961042
-0.24204046
0.00012441462
0.0001188697
-0.27349676
-0.0016734347
-0.27302843
-0.0015187742
-0.27260323
-0.0013558574
-0.27221966
-0.0011963314
-0.27187268
-0.0010417317
-0.27155768
-0.00089641765
-0.27126922
-0.0007633308
-0.27100155
-0.00064548329
-0.27074863
-0.00054541429
-0.27050432
-0.00046532432
-0.2702625
-0.00040686851
-0.27001717
-0.00037117705
-0.26976258
-0.00035893511
-0.2694932
-0.00037019051
-0.26920378
-0.00040409303
-0.26888952
-0.00045906078
-0.26854622
-0.00053291145
-0.26817044
-0.00062300106
-0.26775964
-0.00072626319
-0.26731222
-0.00083925963
-0.26682765
-0.00095831404
-0.26630655
-0.0010797755
-0.26575068
-0.0011999785
-0.26516283
-0.0013153311
-0.26454686
-0.0014223193
-0.26390752
-0.0015176602
-0.26325044
-0.0015982893
-0.26258195
-0.0016615229
-0.261909
-0.0017050184
-0.26123895
-0.0017269282
-0.26057945
-0.0017258281
-0.25993828
-0.0017008433
-0.25932314
-0.0016515856
-0.25874153
-0.0015781474
-0.25820054
-0.0014811507
-0.25770678
-0.0013616148
-0.25726615
-0.0012210213
-0.25688381
-0.0010611731
-0.25656402
-0.00088423813
-0.25631013
-0.00069262449
-0.25612451
-0.00048901126
-0.25600871
-0.00027623506
-0.25596338
-5.7155244e-05
-0.25598843
0.00016525648
-0.25608327
0.00038773538
-0.25624645
0.0006070462
-0.2564755
0.00082022026
-0.25676708
0.0010245197
-0.25711707
0.0012173937
-0.25752063
0.0013964794
-0.25797234
0.0015596181
-0.25846621
0.0017048793
-0.2589958
0.0018305822
-0.25955432
0.0019353183
-0.26013466
0.0020179578
-0.26072951
0.0020776669
-0.26133146
0.0021139094
-0.26193307
0.002126448
-0.26252694
0.0021153409
-0.26310584
0.002080938
-0.26366275
0.0020238615
-0.26419095
0.0019449989
-0.26468411
0.00184548
-0.2651363
0.0017266556
-0.26554214
0.001590073
-0.26589676
0.0014374482
-0.26619588
0.0012706403
-0.26643583
0.0010916158
-0.2666136
0.00090242544
-0.26672683
0.00070517116
-0.2667738
0.00050197833
-0.26675347
0.00029496866
-0.26666543
8.6238926e-05
-0.26650991
-0.00012216376
-0.26628781
-0.00032827055
-0.26600064
-0.00053022103
-0.26565049
-0.00072622788
-0.26523991
-0.00091458064
-0.26477189
-0.0010938101
-0.26424984
-0.0012626204
-0.26367754
-0.0014197676
-0.26305909
-0.0015641392
-0.26239892
-0.0016947907
-0.26170167
-0.0018109592
-0.2609722
-0.0019120645
-0.26021545
-0.0019977101
-0.25943649
-0.0020676824
-0.25864036
-0.002121947
-0.25783207
-0.0021606451
-0.25701654
-0.0021840847
-0.25619853
-0.0021927355
-0.2553826
-0.0021872076
-0.25457309
-0.0021682459
-0.25377404
-0.0021367086
-0.2529892
-0.0020935501
-0.25222197
-0.0020398012
-0.25147544
-0.0019765488
-0.25075228
-0.0019049197
-0.25005484
-0.0018260528
-0.24938508
-0.0017410894
-0.24874461
-0.0016511515
-0.24813469
-0.001557328
-0.24755625
-0.0014606604
-0.24700988
-0.0013621355
-0.24649591
-0.0012626697
-0.24601438
-0.0011631097
-0.24556508
-0.0010642249
-0.2451476
-0.00096670545
-0.2447613
-0.0008711619
-0.24440541
-0.00077812751
-0.24407897
-0.00068805677
-0.24378094
-0.00060133179
-0.24351016
-0.000518258
-0.24326539
-0.00043908676
-0.2430453
-0.00036403166
-0.24284855
-0.00029326362
-0.24267371
-0.00022693833
-0.24251936
-0.00016525824
-0.242384
-0.00010852013
-0.24226603
-5.7259542e-05
-0.24216387
-1.2885355e-05
-0.24207689
2.2636212e-05
-0.24200179
4.9313507e-05
5.2677104e-05
-0.27356203
-0.0021936729
-0.27309538
-0.0019854284
-0.27267379
-0.00177744
-0.27229446
-0.0015756659
-0.27195237
-0.0013838175
-0.27164259
-0.0012062014
-0.27135949
-0.0010464295
-0.27109712
-0.00090785618
-0.27084923
-0.00079330686
-0.27060943
-0.00070512515
-0.27037129
-0.00064500507
-0.27012848
-0.00061398692
-0.269875
-0.00061241426
-0.26960532
-0.00063986566
-0.2693144
-0.00069502013
-0.26899767
-0.00077579019
-0.2686512
-0.00087937825
-0.26827179
-0.0010024151
-0.26785706
-0.0011409946
-0.2674055
-0.0012908147
-0.26691656
-0.0014472601
-0.26639069
-0.0016056417
-0.26582948
-0.0017611897
-0.26523558
-0.0019092255
-0.26461274
-0.0020451656
-0.26396565
-0.0021647436
-0.26329996
-0.0022639859
-0.26262204
-0.002339439
-0.26193895
-0.0023881092
-0.2612582
-0.0024076763
-0.26058764
-0.0023963893
-0.25993524
-0.0023532414
-0.25930895
-0.0022778791
-0.2587165
-0.0021705941
-0.25816527
-0.0020323881
-0.25766209
-0.0018647902
-0.25721317
-0.0016699429
-0.25682394
-0.0014504061
-0.25649896
-0.0012092124
-0.25624189
-0.00094969137
-0.2560554
-0.00067550421
-0.25594115
-0.00039048504
-0.25589973
-9.857442e-05
-0.25593072
0.00019623976
-0.25603288
0.00048990099
-0.25620426
0.00077843008
-0.25644209
0.0010580471
-0.25674277
0.0013252026
-0.25710197
0.0015765899
-0.25751466
0.0018091696
-0.25797523
0.002020191
-0.25847757
0.0022072159
-0.25901513
0.0023681399
-0.25958102
0.0025012148
-0.26016812
0.0026050537
-0.2607691
0.0026786493
-0.26137657
0.0027213748
-0.2619831
0.0027329843
-0.26258137
0.0027136077
-0.26316418
0.0026637464
-0.26372457
0.002584248
-0.26425587
0.0024762986
-0.26475178
0.0023413938
-0.26520644
0.0021813125
-0.26561445
0.0019980856
-0.26597096
0.0017939619
-0.2662717
0.0015713753
-0.26651298
0.0013328998
-0.26669178
0.0010812193
-0.26680569
0.00081908623
-0.266853
0.00054928484
-0.26683263
0.00027459819
-0.26674417
-2.2186243e-06
-0.26658785
-0.00027848572
-0.2663645
-0.00055162151
-0.26607553
-0.00081918671
-0.26572291
-0.0010788446
-0.2653091
-0.0013283906
-0.26483709
-0.0015658277
-0.26431035
-0.0017893522
-0.2637328
-0.0019973218
-0.26310865
-0.0021882926
-0.2624424
-0.002361038
-0.2617388
-0.0025145607
-0.26100276
-0.0026480985
-0.26023935
-0.002761129
-0.25945366
-0.0028533699
-0.25865083
-0.0029247766
-0.25783594
-0.002975537
-0.25701396
-0.0030060611
-0.25618972
-0.0030169741
-0.25536784
-0.0030090879
-0.25455269
-0.0029833936
-0.25374837
-0.0029410334
-0.25295864
-0.0028832766
-0.25218695
-0.0028114942
-0.25143637
-0.0027271307
-0.2507096
-0.0026316829
-0.25000899
-0.0025266632
-0.2493365
-0.0024135857
-0.24869371
-0.0022939384
-0.24808187
-0.0021691641
-0.24750189
-0.0020406422
-0.24695435
-0.0019096783
-0.24643953
-0.0017774846
-0.24595746
-0.00164518
-0.24550791
-0.0015137805
-0.24509042
-0.0013841971
-0.24470434
-0.0012572345
-0.24434888
-0.0011335957
-0.24402305
-0.0010138786
-0.2437258
-0.000898585
-0.24345594
-0.00078811974
-0.24321222
-0.00068280527
-0.24299336
-0.00058289649
-0.24279803
-0.00048859172
-0.24262491
-0.00040006062
-0.24247267
-0.00031749817
-0.24234001
-0.00024117882
-0.24222565
-0.00017162046
-0.24212854
-0.00010998814
-0.24204825
-5.7661858e-05
-0.24198298
-1.5950947e-05
5.1464375e-06
-0.27350719
-0.0027132491
-0.27304038
-0.002452237
-0.27262085
-0.0021969665
-0.27224534
-0.0019511853
-0.2719089
-0.0017202559
-0.27160639
-0.001508707
-0.27133204
-0.001320777
-0.27107971
-0.0011601941
-0.27084294
-0.001030072
-0.27061517
-0.00093290085
-0.27038977
-0.00087039668
-0.27016025
-0.00084351361
-0.2699203
-0.00085235828
-0.269664
-0.00089617196
-0.26938581
-0.00097321122
-0.26908074
-0.0010808588
-0.26874446
-0.0012156526
-0.26837343
-0.0013734475
-0.26796498
-0.0015494428
-0.26751742
-0.001738374
-0.26703011
-0.0019345695
-0.26650354
-0.0021322196
-0.26593933
-0.00232539
-0.26534029
-0.0025082701
-0.26471029
-0.0026751682
-0.26405423
-0.0028207991
-0.26337797
-0.002940248
-0.26268814
-0.0030292649
-0.26199207
-0.0030841828
-0.26129755
-0.0031021942
-0.26061273
-0.0030812133
-0.25994587
-0.0030201016
-0.2593052
-0.0029185494
-0.25869873
-0.0027770635
-0.25813407
-0.0025970499
-0.25761828
-0.0023805763
-0.25715774
-0.0021304806
-0.25675803
-0.0018501145
-0.25642384
-0.0015434069
-0.2561589
-0.0012146301
-0.25596598
-0.00086842684
-0.25584686
-0.00050960779
-0.25580231
-0.00014312022
-0.25583212
0.00022605328
-0.25593514
0.00059291651
-0.25610929
0.00095258347
-0.25635164
0.0013003983
-0.25665843
0.0016319927
-0.25702515
0.0019433102
-0.25744662
0.0022306387
-0.25791707
0.0024906358
-0.25843021
0.002720355
-0.25897933
0.0029172669
-0.2595574
0.0030792845
-0.26015711
0.0032047645
-0.26077099
0.003292529
-0.26139148
0.0033418638
-0.26201102
0.0033525188
-0.26262211
0.0033247002
-0.26321743
0.0032590663
-0.26378988
0.0031566968
-0.26433266
0.0030190837
-0.26483937
0.002848097
-0.26530401
0.0026459533
-0.2657211
0.0024151787
-0.26608571
0.0021585669
-0.26639347
0.00187914
-0.26664066
0.0015800933
-0.2668242
0.0012647585
-0.26694167
0.00093655269
-0.26699132
0.00059893334
-0.26697208
0.0002553589
-0.26688355
-9.0743044e-05
-0.266726
-0.00043604035
-0.2665003
-0.00077731823
-0.26620797
-0.0011115194
-0.26585108
-0.0014357363
-0.26543222
-0.001747246
-0.26495449
-0.0020435606
-0.26442142
-0.00232242
-0.26383696
-0.0025817864
-0.26320538
-0.0028198666
-0.26253129
-0.0030351357
-0.26181949
-0.0032263525
-0.26107503
-0.0033925676
-0.26030302
-0.0035331309
-0.2595087
-0.003647692
-0.25869728
-0.003736198
-0.25787393
-0.0037988878
-0.25704371
-0.0038362789
-0.25621153
-0.0038491593
-0.25538206
-0.0038385509
-0.25455976
-0.0038057009
-0.25374874
-0.0037520455
-0.25295284
-0.0036791802
-0.25217551
-0.0035888266
-0.25141984
-0.003482798
-0.25068855
-0.0033629717
-0.24998397
-0.0032312428
-0.24930805
-0.0030895073
-0.24866236
-0.0029396266
-0.24804812
-0.0027834042
-0.2474662
-0.0026225622
-0.24691715
-0.0024587295
-0.24640122
-0.0022934168
-0.24591838
-0.0021280169
-0.24546837
-0.0019637931
-0.24505069
-0.0018018768
-0.24466466
-0.0016432656
-0.24430943
-0.001488829
-0.243984
-0.0013393042
-0.24368728
-0.0011953075
-0.24341806
-0.0010573358
-0.24317509
-0.00092577835
-0.24295706
-0.00080092889
-0.24276265
-0.00068299907
-0.24259057
-0.00057214321
-0.24243956
-0.00046850484
-0.24230847
-0.00037226764
-0.2421963
-0.00028379321
-0.24210246
-0.00020382324
-0.24202698
-0.00013314682
-0.24196981
-7.3116214e-05
-2.9216265e-05
-0.27344719
-0.0032323666
-0.27298215
-0.0029172809
-0.27256692
-0.002612199
-0.27219789
-0.0023202175
-0.27187012
-0.0020480244
-0.27157824
-0.0018005815
-0.27131626
-0.0015827619
-0.27107773
-0.0013987263
-0.27085588
-0.0012519204
-0.27064375
-0.0011450303
-0.27043432
-0.0010798269
-0.27022065
-0.001057183
-0.26999605
-0.0010769584
-0.2697542
-0.001138024
-0.26948925
-0.0012381625
-0.26919592
-0.0013741852
-0.26886964
-0.0015419317
-0.26850664
-0.0017364482
-0.26810408
-0.0019520065
-0.26766011
-0.0021823379
-0.26717401
-0.0024206755
-0.26664617
-0.0026600571
-0.26607821
-0.0028933431
-0.26547295
-0.0031135354
-0.26483435
-0.0033137715
-0.26416746
-0.0034876834
-0.26347836
-0.0036293539
-0.26277394
-0.0037336812
-0.26206184
-0.0037962785
-0.26135022
-0.0038138151
-0.26064759
-0.0037838463
-0.2599626
-0.0037050898
-0.25930387
-0.0035772782
-0.25867979
-0.003401143
-0.25809833
-0.0031785125
-0.25756689
-0.002912019
-0.25709214
-0.0026052274
-0.25667994
-0.0022623179
-0.25633519
-0.0018881603
-0.25606179
-0.0014880218
-0.25586263
-0.0010675949
-0.25573948
-0.00063274878
-0.2556931
-0.00018950033
-0.25572319
0.00025613709
-0.25582848
0.00069820865
-0.25600682
0.0011309222
-0.25625517
0.0015487462
-0.25656966
0.0019464826
-0.25694565
0.0023193078
-0.25737784
0.0026628197
-0.25786027
0.0029730694
-0.2583865
0.0032465891
-0.25894965
0.0034804154
-0.25954248
0.0036721147
-0.2601575
0.0038197835
-0.26078704
0.0039220708
-0.26142335
0.003978175
-0.26205868
0.0039878438
-0.26268534
0.0039513647
-0.26329584
0.0038695599
-0.26388289
0.00374375
-0.26443955
0.003575745
-0.26495926
0.0033678029
-0.2654359
0.003122594
-0.26586388
0.0028431567
-0.26623816
0.0025328485
-0.26655432
0.0021952991
-0.26680857
0.0018343454
-0.2669978
0.0014539866
-0.26711957
0.0010583236
-0.26717214
0.00065150506
-0.26715446
0.00023768028
-0.26706616
-0.0001790435
-0.26690753
-0.00059467229
-0.26667949
-0.0010053559
-0.26638359
-0.001407419
-0.26602195
-0.0017973757
-0.26559723
-0.0021719625
-0.26511262
-0.0025281793
-0.26457174
-0.0028632939
-0.26397867
-0.0031748591
-0.26333781
-0.0034607282
-0.26265387
-0.0037190767
-0.2619318
-0.0039484189
-0.26117675
-0.0041476184
-0.26039398
-0.0043158974
-0.25958884
-0.004452839
-0.25876665
-0.0045583858
-0.2579327
-0.0046328325
-0.25709217
-0.004676811
-0.25625005
-0.004691281
-0.25541112
-0.0046774853
-0.25457988
-0.0046369389
-0.25376054
-0.0045713851
-0.25295696
-0.0044827588
-0.25217264
-0.0043731468
-0.25141069
-0.004244744
-0.25067384
-0.0040998216
-0.24996442
-0.0039406693
-0.24928435
-0.0037695758
-0.24863519
-0.0035887855
-0.24801812
-0.0034004702
-0.24743398
-0.0032067014
-0.24688328
-0.0030094361
-0.24636621
-0.0028104865
-0.2458827
-0.0026115214
-0.24543244
-0.0024140521
-0.24501489
-0.0022194296
-0.24462931
-0.0020288431
-0.24427482
-0.0018433263
-0.24395037
-0.0016637524
-0.24365483
-0.0014908475
-0.24338697
-0.0013251924
-0.24314552
-0.0011672329
-0.24292916
-0.0010172908
-0.24273658
-0.00087557906
-0.2425665
-0.00074222219
-0.24241771
-0.00061729517
-0.24228911
-0.00050086851
-0.24217979
-0.00039311053
-0.24208924
-0.00029436743
-0.24201745
-0.00020494031
-0.24196496
-0.00012561085
-5.8721908e-05
-0.27337989
-0.0037509412
-0.27291748
-0.003379691
-0.27250767
-0.0030220158
-0.27214661
-0.0026812761
-0.2718293
-0.0023653373
-0.27155013
-0.0020797426
-0.27130287
-0.0018300223
-0.27108078
-0.001620816
-0.27087677
-0.0014559344
-0.27068351
-0.0013382926
-0.27049359
-0.0012697495
-0.27029964
-0.0012511308
-0.2700945
-0.0012820949
-0.26987135
-0.0013611773
-0.26962382
-0.0014856903
-0.26934616
-0.0016518469
-0.26903335
-0.0018547435
-0.26868123
-0.0020885599
-0.26828667
-0.002346572
-0.26784758
-0.0026214238
-0.2673631
-0.002905162
-0.26683357
-0.0031895847
-0.26626065
-0.0034662629
-0.26564725
-0.0037269308
-0.26499755
-0.0039634797
-0.26431684
-0.00416839
-0.26361151
-0.0043346798
-0.26288885
-0.0044563435
-0.2621569
-0.0045282322
-0.26142425
-0.0045464626
-0.26069988
-0.0045082138
-0.25999292
-0.0044120572
-0.25931241
-0.0042577783
-0.2586672
-0.0040463558
-0.25806564
-0.0037800744
-0.25751549
-0.0034621725
-0.25702372
-0.0030969892
-0.25659646
-0.0026895824
-0.25623881
-0.0022458097
-0.25595486
-0.0017719762
-0.25574759
-0.0012748613
-0.25561891
-0.00076142612
-0.25556963
-0.00023878562
-0.25559947
0.00028597636
-0.25570714
0.00080588048
-0.25589038
0.00131416
-0.25614599
0.0018043617
-0.25646994
0.0022704312
-0.2568574
0.0027067626
-0.25730283
0.0031082526
-0.25780009
0.0034703357
-0.25834252
0.0037890149
-0.25892299
0.0040608857
-0.25953404
0.004283163
-0.26016793
0.0044536794
-0.26081677
0.0045709095
-0.26147256
0.0046339657
-0.26212732
0.0046425966
-0.26277313
0.0045971768
-0.26340227
0.0044987007
-0.26400726
0.0043487412
-0.26458096
0.0041494393
-0.26511661
0.0039034575
-0.26560795
0.0036139376
-0.26604925
0.0032844508
-0.26643534
0.00291894
-0.26676171
0.0025216657
-0.26702449
0.0020971292
-0.26722052
0.0016500211
-0.26734735
0.001185149
-0.26740322
0.00070737532
-0.2673871
0.00022156102
-0.26729866
-0.00026748571
-0.26713825
-0.00075508399
-0.26690688
-0.0012367248
-0.26660619
-0.0017081062
-0.26623841
-0.0021651534
-0.26580632
-0.0026040549
-0.2653132
-0.0030213
-0.26476281
-0.0034136879
-0.26415931
-0.0037783559
-0.26350724
-0.0041127938
-0.26281145
-0.0044148681
-0.26207703
-0.0046828419
-0.26130926
-0.004915387
-0.26051356
-0.0051115965
-0.25969541
-0.0052709877
-0.2588603
-0.0053935016
-0.25801363
-0.0054794947
-0.25716072
-0.0055297221
-0.25630668
-0.0055453258
-0.25545638
-0.0055277824
-0.25461443
-0.0054788897
-0.2537851
-0.0054007138
-0.25297231
-0.0052955463
-0.25217961
-0.0051658554
-0.25141011
-0.0050142348
-0.25066657
-0.0048433651
-0.2499513
-0.0046559454
-0.2492662
-0.0044546701
-0.24861281
-0.0042421778
-0.24799226
-0.0040210184
-0.24740534
-0.0037936201
-0.2468525
-0.0035622736
-0.24633389
-0.0033290964
-0.24584938
-0.0030960353
-0.24539858
-0.0028648497
-0.2449809
-0.0026371091
-0.24459555
-0.0024141914
-0.24424159
-0.0021972906
-0.24391793
-0.0019874106
-0.2436234
-0.0017853813
-0.24335673
-0.0015918591
-0.24311663
-0.001407337
-0.24290177
-0.0012321526
-0.24271084
-0.001066503
-0.2425426
-0.00091045966
-0.2423959
-0.0007640008
-0.24226972
-0.00062704843
-0.24216329
-0.00049953892
-0.24207621
-0.00038144515
-0.2420085
-0.0002726519
-0.24196077
-0.00017333878
-8.3895163e-05
-0.27330763
-0.0042680536
-0.27284971
-0.0038376093
-0.27244755
-0.003424173
-0.27209712
-0.0030317085
-0.27179322
-0.0026692374
-0.27152997
-0.0023429948
-0.27130077
-0.0020592148
-0.27109852
-0.0018230708
-0.27091567
-0.0016387813
-0.27074444
-0.0015095272
-0.27057691
-0.00143728
-0.27040521
-0.0014228301
-0.27022167
-0.0014656378
-0.27001895
-0.0015638945
-0.26979022
-0.00171442
-0.26952927
-0.0019127975
-0.26923067
-0.0021533413
-0.26888991
-0.002429317
-0.26850354
-0.0027329481
-0.26806924
-0.0030557244
-0.26758597
-0.0033884329
-0.267054
-0.0037215545
-0.26647497
-0.0040452895
-0.26585188
-0.0043500171
-0.26518907
-0.0046262929
-0.2644921
-0.0048653572
-0.2637677
-0.0050590805
-0.26302357
-0.0052004795
-0.26226822
-0.0052835823
-0.26151077
-0.0053039074
-0.26076076
-0.0052582288
-0.26002785
-0.0051449602
-0.25932169
-0.004963946
-0.25865161
-0.0047164336
-0.25802648
-0.0044052005
-0.25745452
-0.004034138
-0.25694309
-0.003608417
-0.25649863
-0.0031340365
-0.25612653
-0.0026179115
-0.25583105
-0.0020674567
-0.2556153
-0.0014906126
-0.25548122
-0.00089550216
-0.25542961
-0.00029039879
-0.25546013
0.0003164945
-0.25557138
0.00091713433
-0.25576097
0.0015037489
-0.25602555
0.0020689378
-0.25636089
0.0026057682
-0.25676195
0.0031078309
-0.257223
0.0035693033
-0.25773766
0.0039849882
-0.25829899
0.0043503469
-0.25889963
0.004661524
-0.25953184
0.004915376
-0.26018763
0.0051094669
-0.26085881
0.0052420955
-0.26153714
0.0053122884
-0.26221434
0.005319799
-0.26288226
0.0052650955
-0.26353291
0.005149354
-0.26415858
0.0049744125
-0.2647519
0.0047427588
-0.26530592
0.0044574784
-0.26581419
0.0041222068
-0.26627081
0.0037410716
-0.2666705
0.0033186271
-0.26700863
0.0028597912
-0.26728125
0.0023697576
-0.26748517
0.001853935
-0.26761788
0.0013178639
-0.26767765
0.00076714487
-0.26766346
0.00020737208
-0.26757502
-0.00035592621
-0.26741274
-0.0009173704
-0.26717768
-0.0014717774
-0.26687159
-0.002014202
-0.26649678
-0.0025399644
-0.26605614
-0.003044688
-0.26555311
-0.0035243384
-0.26499156
-0.0039752355
-0.26437582
-0.0043940915
-0.26371059
-0.0047780248
-0.26300087
-0.005124587
-0.26225193
-0.0054317848
-0.26146922
-0.005698095
-0.26065834
-0.0059224802
-0.25982493
-0.0061043931
-0.25897466
-0.0062437769
-0.25811309
-0.006341057
-0.2572457
-0.0063971214
-0.25637771
-0.0064133075
-0.25551415
-0.0063913409
-0.25465972
-0.0063333197
-0.25381879
-0.0062416525
-0.25299533
-0.0061190068
-0.25219293
-0.005968253
-0.25141476
-0.0057924033
-0.25066356
-0.0055945665
-0.24994164
-0.0053778683
-0.24925088
-0.0051454247
-0.24859278
-0.0049002819
-0.24796842
-0.0046453788
-0.24737853
-0.0043835095
-0.2468235
-0.004117305
-0.2463034
-0.0038491926
-0.24581803
-0.0035813996
-0.24536695
-0.0033159343
-0.24494948
-0.0030545838
-0.24456475
-0.0027989126
-0.24421177
-0.0025502714
-0.24388939
-0.0023097902
-0.24359638
-0.0020783966
-0.24333142
-0.0018568157
-0.24309318
-0.0016455793
-0.2428803
-0.0014450326
-0.24269146
-0.0012553474
-0.24252538
-0.001076531
-0.24238093
-0.0009084536
-0.2422571
-0.00075087519
-0.24215315
-0.00060349102
-0.24206867
-0.00046592711
-0.24200365
-0.00033767186
-0.24195868
-0.00021831139
-0.00010712331
-0.27322404
-0.0047834086
-0.27277148
-0.0042901633
-0.27237836
-0.0038172943
-0.27204038
-0.0033696871
-0.27175212
-0.0029574967
-0.27150738
-0.0025877361
-0.27129921
-0.0022673922
-0.27112005
-0.0020022257
-0.27096192
-0.0017969104
-0.27081651
-0.0016549365
-0.27067537
-0.0015784272
-0.27053003
-0.00156817
-0.27037221
-0.0016234524
-0.27019397
-0.0017421326
-0.26998786
-0.0019205283
-0.2697471
-0.0021535623
-0.26946572
-0.0024347197
-0.26913875
-0.0027562886
-0.26876233
-0.0031093633
-0.26833387
-0.0034841887
-0.26785211
-0.0038701918
-0.26731724
-0.0042564304
-0.2667309
-0.0046316244
-0.26609623
-0.0049846874
-0.26541779
-0.0053047306
-0.2647015
-0.0055816521
-0.2639545
-0.0058060808
-0.263185
-0.0059699759
-0.26240211
-0.0060664766
-0.26161556
-0.0060904575
-0.26083552
-0.0060382603
-0.26007235
-0.0059081353
-0.2593363
-0.0056999998
-0.25863733
-0.0054154016
-0.25798487
-0.0050576593
-0.25738763
-0.004631377
-0.25685342
-0.0041426268
-0.25638904
-0.0035984216
-0.25600014
-0.0030068088
-0.25569121
-0.0023763849
-0.2554655
-0.0017163214
-0.25532503
-0.0010359686
-0.25527061
-0.00034481849
-0.25530187
0.00034774789
-0.2554173
0.0010325637
-0.25561434
0.0017007961
-0.25588946
0.0023440543
-0.25623819
0.0029544956
-0.25665524
0.003524885
-0.2571346
0.0040486634
-0.2576696
0.0045199883
-0.25825303
0.0049337693
-0.25887719
0.0052856918
-0.25953407
0.0055722485
-0.26021533
0.0057907316
-0.2609125
0.0059392626
-0.26161699
0.0060167844
-0.26232025
0.0060230594
-0.26301381
0.0059586565
-0.26368941
0.0058249446
-0.26433903
0.0056240405
-0.26495507
0.0053587966
-0.26553034
0.0050327428
-0.26605816
0.0046500321
-0.26653247
0.0042153759
-0.26694781
0.0037339692
-0.26729943
0.0032114187
-0.26758332
0.0026536421
-0.26779618
0.0020667985
-0.26793551
0.0014571928
-0.26799956
0.00083119311
-0.26798734
0.00019515507
-0.26789862
-0.00044464673
-0.26773389
-0.0010821067
-0.26749431
-0.0017113485
-0.26718174
-0.0023267718
-0.26679863
-0.0029230788
-0.266348
-0.0034953165
-0.26583342
-0.004038918
-0.26525894
-0.0045497157
-0.26462905
-0.0050239867
-0.2639486
-0.005458468
-0.2632228
-0.0058503865
-0.2624571
-0.006197485
-0.26165716
-0.0064980399
-0.26082876
-0.0067508805
-0.25997776
-0.0069553953
-0.25911
-0.0071115339
-0.25823126
-0.0072197981
-0.25734716
-0.0072812205
-0.25646312
-0.0072973487
-0.25558428
-0.0072701759
-0.25471548
-0.0072021212
-0.25386118
-0.0070959577
-0.25302543
-0.0069547531
-0.25221188
-0.0067818034
-0.25142372
-0.0065805626
-0.2506637
-0.0063545896
-0.24993411
-0.0061074573
-0.24923681
-0.0058427204
-0.24857325
-0.0055638486
-0.24794444
-0.0052741821
-0.24735106
-0.0049768909
-0.24679341
-0.0046749531
-0.2462715
-0.0043711104
-0.24578502
-0.0040678728
-0.24533346
-0.0037674973
-0.24491606
-0.0034719869
-0.24453188
-0.0031830888
-0.24417985
-0.0029023055
-0.24385875
-0.0026308869
-0.2435673
-0.0023698507
-0.24330413
-0.0021199822
-0.24306787
-0.0018818423
-0.24285712
-0.0016557734
-0.24267056
-0.0014419103
-0.24250691
-0.001240185
-0.24236501
-0.00105035
-0.24224389
-0.00087199863
-0.24214278
-0.00070459524
-0.24206125
-0.0005474647
-0.24199916
-0.00039975745
-0.24195689
-0.00026058572
-0.00012855988
-0.27313026
-0.0052958294
-0.27268489
-0.0047355372
-0.27230304
-0.0041991422
-0.27198018
-0.0036925455
-0.27171058
-0.0032270995
-0.27148764
-0.0028106738
-0.27130397
-0.0024510674
-0.27115151
-0.002154685
-0.27102171
-0.001926703
-0.27090569
-0.0017709605
-0.27079435
-0.0016897635
-0.27067861
-0.0016839171
-0.27054951
-0.0017525472
-0.27039847
-0.0018931772
-0.27021739
-0.0021016077
-0.26999888
-0.0023720704
-0.26973642
-0.0026971761
-0.26942454