/*--------------------------------*- C++ -*----------------------------------*\
| =========                 |                                                 |
| \\      /  F ield         | foam-extend: Open Source CFD                    |
|  \\    /   O peration     | Version:     4.1                                |
|   \\  /    A nd           | Web:         http://www.foam-extend.org         |
|    \\/     M anipulation  |                                                 |
\*---------------------------------------------------------------------------*/
FoamFile
{
    version     2.0;
    format      ascii;
    class       surfaceScalarField;
    location    "0.05";
    object      phi;
}
// * * * * * * * * * * * * * * * * * * * * * * * * * * * * * * * * * * * * * //

dimensions      [0 3 -1 0 0 0 0];

internalField   nonuniform List<scalar> 
32976
(
-0.21076383
0.00062612016
-0.21142567
0.00066183561
-0.21209599
0.00067032498
-0.21277131
0.00067531517
-0.2134505
0.00067919166
-0.21413367
0.00068317134
-0.21482138
0.00068770546
-0.2155144
0.00069302714
-0.21621365
0.00069924568
-0.21692009
0.00070644664
-0.21763476
0.00071466855
-0.21835872
0.00072395934
-0.21909306
0.00073433425
-0.21983888
0.0007458253
-0.22059732
0.00075843417
-0.2213695
0.00077218091
-0.22215655
0.00078705427
-0.22295961
0.00080306128
-0.22377979
0.00082017542
-0.22461818
0.00083838776
-0.22547583
0.00085765296
-0.22635377
0.0008779424
-0.22725296
0.00089918779
-0.2281743
0.00092133677
-0.22911859
0.00094429385
-0.23008657
0.00096797886
-0.23107883
0.00099226516
-0.23209588
0.0010170412
-0.23313802
0.0010421458
-0.23420545
0.0010674332
-0.23529816
0.0010927057
-0.23641594
0.0011177771
-0.23755837
0.0011424312
-0.23872479
0.0011664188
-0.23991429
0.0011895071
-0.2411257
0.001211409
-0.24235756
0.0012318619
-0.24360812
0.0012505509
-0.24487531
0.0012671911
-0.24615676
0.001281449
-0.24744978
0.0012930281
-0.24875137
0.0013015908
-0.25005821
0.0013068353
-0.25136666
0.0013084479
-0.25267279
0.0013061338
-0.25397241
0.0012996136
-0.25526103
0.0012886295
-0.25653399
0.0012729527
-0.25778637
0.0012523832
-0.25901313
0.00122676
-0.26020909
0.0011959635
-0.26136901
0.0011599196
-0.26248762
0.0011186037
-0.26355966
0.0010720458
-0.26457999
0.0010203283
-0.26554358
0.00096359198
-0.26644562
0.00090203464
-0.26728153
0.00083591079
-0.26804706
0.00076552998
-0.26873831
0.00069125582
-0.26935181
0.00061349909
-0.26988453
0.00053271584
-0.27033393
0.00044940163
-0.270698
0.00036407325
-0.27097528
0.0002772718
-0.27116485
0.00018957183
-0.27126642
0.00010157238
-0.27128011
1.3691205e-05
-0.27120555
-7.4557512e-05
-0.27104247
-0.000163089
-0.27079213
-0.00025033878
-0.27045708
-0.00033504949
-0.27004052
-0.00041655223
-0.2695462
-0.00049432484
-0.26897828
-0.00056791796
-0.26834135
-0.00063693522
-0.26764032
-0.00070102936
-0.26688042
-0.0007599016
-0.26606711
-0.00081330353
-0.26520608
-0.00086103389
-0.26430314
-0.00090294284
-0.26336421
-0.00093892889
-0.26239527
-0.0009689393
-0.2614023
-0.00099296959
-0.26039124
-0.001011062
-0.25936793
-0.0010233046
-0.2583381
-0.0010298293
-0.25730729
-0.0010308098
-0.25628083
-0.0010264589
-0.25526381
-0.001017025
-0.25426102
-0.0010027903
-0.25327696
-0.00098406252
-0.25231578
-0.00096117451
-0.2513813
-0.00093447694
-0.25047697
-0.0009043336
-0.24960585
-0.000871116
-0.24877066
-0.00083519778
-0.24797371
-0.00079695123
-0.24721697
-0.00075673904
-0.24650205
-0.00071491347
-0.24583024
-0.00067181069
-0.24520249
-0.00062774786
-0.24461947
-0.0005830203
-0.24408157
-0.00053790063
-0.24358894
-0.00049263501
-0.24314149
-0.00044744496
-0.24273897
-0.00040252588
-0.24238092
-0.0003580478
-0.24206676
-0.00031415619
-0.24179579
-0.00027097412
-0.24156719
-0.00022860287
-0.24138006
-0.00018712603
-0.24123345
-0.00014661214
-0.24112633
-0.00010712008
-0.24105762
-6.8706222e-05
-0.24102619
-3.1432852e-05
-0.2410308
4.6119507e-06
-0.24107006
3.9264185e-05
-0.24114237
7.2302911e-05
-0.24124537
0.00010299849
-0.24137547
0.00013010644
-0.2415304
0.00015492697
-0.24171738
0.00018697929
0.00021807106
-0.24149432
0.0010689094
-0.24193091
0.0010984244
-0.2423712
0.0011106187
-0.24281452
0.0011186345
-0.2432609
0.0011255664
-0.24371072
0.0011329917
-0.24416463
0.0011416241
-0.24462347
0.0011518631
-0.24508813
0.0011639083
-0.2455596
0.0011779165
-0.2460389
0.0011939632
-0.24652707
0.0012121368
-0.24702521
0.0012324691
-0.2475344
0.0012550183
-0.24805576
0.00127979
-0.2485904
0.0013068192
-0.24913943
0.0013360863
-0.24970397
0.0013676006
-0.25028511
0.0014013127
-0.25088392
0.0014372006
-0.25150144
0.0014751776
-0.25213868
0.0015151831
-0.25279658
0.001557085
-0.25347602
0.0016007757
-0.2541778
0.0016460694
-0.25490262
0.0016928033
-0.25565108
0.0017407299
-0.25642367
0.0017896239
-0.25722069
0.0018391691
-0.25804233
0.0018890725
-0.25888857
0.0019389446
-0.2597592
0.0019884129
-0.26065382
0.0020370468
-0.26157176
0.0020843538
-0.26251211
0.0021298662
-0.26347372
0.0021730159
-0.26445513
0.0022132755
-0.2654546
0.0022500208
-0.26647009
0.002282679
-0.26749923
0.0023105878
-0.26853935
0.0023331505
-0.26958746
0.0023496951
-0.27064024
0.0023596151
-0.27169407
0.0023622828
-0.27274505
0.0023571062
-0.27378896
0.0023435246
-0.27482135
0.0023210195
-0.27583752
0.0022891297
-0.27683259
0.0022474518
-0.27780149
0.0021956601
-0.27873904
0.0021335109
-0.27963997
0.002060852
-0.280499
0.0019776301
-0.28131085
0.0018839007
-0.28207035
0.0017798249
-0.28277244
0.0016656811
-0.28341227
0.0015418616
-0.28398523
0.0014088732
-0.28448703
0.0012673334
-0.28491374
0.0011179686
-0.28526185
0.00096160124
-0.28552828
0.00079914575
-0.28571047
0.00063159749
-0.2858064
0.00045999869
-0.28581458
0.00028545387
-0.28573413
0.0001091245
-0.28556472
-6.7839948e-05
-0.28530664
-0.00024438806
-0.284962
-0.00041919924
-0.28453413
-0.00059095629
-0.28402577
-0.00075870308
-0.28343938
-0.00092143612
-0.28277782
-0.0010781148
-0.28204436
-0.0012277814
-0.28124271
-0.0013695703
-0.28037694
-0.0015027062
-0.27945146
-0.0016265062
-0.27847098
-0.00174038
-0.27744045
-0.0018438354
-0.27636501
-0.001936471
-0.27524997
-0.0020179856
-0.27410073
-0.0020881716
-0.27292275
-0.0021469161
-0.27172152
-0.0021941995
-0.27050249
-0.0022300929
-0.26927104
-0.002254756
-0.26803244
-0.0022684335
-0.26679179
-0.0022714506
-0.26555405
-0.002264208
-0.2643239
-0.0022471752
-0.2631058
-0.0022208874
-0.26190393
-0.0021859284
-0.26072218
-0.0021429306
-0.25956409
-0.002092561
-0.25843291
-0.002035512
-0.25733154
-0.0019724907
-0.25626253
-0.0019042086
-0.2552281
-0.0018313754
-0.25423016
-0.0017546819
-0.25327027
-0.0016747995
-0.25234972
-0.0015923691
-0.25146947
-0.0015079956
-0.25063025
-0.0014222423
-0.24983252
-0.0013356296
-0.24907653
-0.0012486274
-0.24836231
-0.0011616587
-0.24768974
-0.0010750972
-0.24705852
-0.00098926774
-0.24646823
-0.00090444861
-0.24591833
-0.00082087553
-0.24540819
-0.00073874167
-0.24493711
-0.00065820625
-0.24450432
-0.00057939867
-0.24410901
-0.00050242822
-0.24375032
-0.00042739699
-0.24342734
-0.00035441194
-0.24313915
-0.00028358079
-0.24288485
-0.00021503374
-0.2426633
-0.00014924605
-0.24247289
-8.7413924e-05
-0.24231227
-3.0515933e-05
-0.24218082
2.3482748e-05
-0.24206972
7.5871273e-05
8.3805466e-05
-0.24703715
0.0014375205
-0.24739233
0.0014535988
-0.24774569
0.001463978
-0.24810002
0.0014729679
-0.24845667
0.0014822146
-0.24881657
0.0014928932
-0.2491806
0.0015056537
-0.24954966
0.001520926
-0.2499247
0.0015389421
-0.25030668
0.0015599008
-0.25069662
0.0015839009
-0.25109554
0.0016110616
-0.2515045
0.0016414272
-0.25192456
0.0016750768
-0.25235679
0.0017120187
-0.25280227
0.0017522989
-0.25326207
0.0017958896
-0.25373727
0.0018427999
-0.25422892
0.0018929581
-0.25473805
0.001946328
-0.25526565
0.0020027838
-0.2558127
0.0020622325
-0.2563801
0.0021244823
-0.25696869
0.0021893716
-0.25757925
0.0022566301
-0.25821247
0.0023260156
-0.2588689
0.0023971673
-0.25954903
0.002469752
-0.26025317
0.002543308
-0.2609815
0.0026174024
-0.26173402
0.0026914663
-0.26251056
0.0027649507
-0.26331074
0.0028372229
-0.26413394
0.0029075613
-0.26497935
0.0029752755
-0.26584587
0.0030395326
-0.26673215
0.0030995533
-0.26763655
0.0031544209
-0.26855716
0.0032032882
-0.26949175
0.0032451809
-0.27043782
0.0032792151
-0.27139252
0.0033043996
-0.27235274
0.0033198353
-0.27331505
0.0033245928
-0.27427574
0.0033177938
-0.27523082
0.0032986049
-0.27617605
0.0032662542
-0.27710698
0.0032200532
-0.27801892
0.0031593983
-0.27890706
0.0030837995
-0.27976644
0.0029928871
-0.28059201
0.0028864268
-0.28137871
0.0027643294
-0.28212148
0.0026266664
-0.28281532
0.002473666
-0.28345537
0.0023057291
-0.28403693
0.0021234262
-0.28455556
0.0019274971
-0.28500707
0.0017188464
-0.28538764
0.0014985402
-0.28569383
0.0012677878
-0.28592262
0.0010279373
-0.28607147
0.00078045245
-0.28613835
0.00052687427
-0.28612175
0.00026885379
-0.28602075
8.1223845e-06
-0.28583499
-0.00025360064
-0.28556478
-0.00051458928
-0.28521092
-0.0007730605
-0.28477459
-0.0010272846
-0.28425763
-0.0012756679
-0.28366241
-0.0015166509
-0.28299181
-0.0017487247
-0.2822491
-0.0019704819
-0.28143804
-0.0021806386
-0.2805627
-0.0023780398
-0.27962754
-0.0025616651
-0.27863729
-0.0027306317
-0.27759692
-0.0028842028
-0.27651162
-0.0030217753
-0.27538671
-0.0031428963
-0.27422763
-0.0032472517
-0.27303988
-0.0033346679
-0.27182897
-0.0034051103
-0.27060038
-0.003458679
-0.26935953
-0.003495606
-0.26811172
-0.0035162492
-0.26686208
-0.0035210868
-0.26561558
-0.0035107091
-0.26437694
-0.0034858086
-0.26315066
-0.0034471763
-0.26194091
-0.0033956746
-0.2607516
-0.003332239
-0.25958631
-0.0032578563
-0.25844827
-0.0031735507
-0.25734039
-0.0030803692
-0.25626523
-0.0029793643
-0.25522502
-0.0028715867
-0.25422165
-0.0027580582
-0.25325667
-0.0026397723
-0.25233136
-0.0025176772
-0.25144669
-0.0023926673
-0.25060336
-0.0022655755
-0.24980182
-0.0021371715
-0.2490423
-0.0020081493
-0.24832482
-0.0018791343
-0.24764924
-0.0017506781
-0.24701525
-0.0016232607
-0.2464224
-0.0014972926
-0.24587016
-0.0013731215
-0.24535787
-0.0012510317
-0.24488482
-0.0011312569
-0.24445023
-0.0010139858
-0.24405328
-0.00089937532
-0.24369311
-0.00078756621
-0.24336883
-0.00067869517
-0.24307951
-0.00057289727
-0.24282415
-0.00047039166
-0.24260164
-0.00037176389
-0.242411
-0.00027804938
-0.24225197
-0.00018954481
-0.24212283
-0.00010566272
-0.24201556
-3.1395709e-05
3.8460657e-06
-0.24805676
0.0017774586
-0.24838776
0.0017845982
-0.24871636
0.0017925756
-0.2490453
0.0018019068
-0.24937623
0.0018131477
-0.24971034
0.0018270044
-0.25004865
0.0018439595
-0.25039213
0.0018644069
-0.25074176
0.0018885748
-0.25109855
0.0019166841
-0.25146349
0.0019488476
-0.25183764
0.0019852091
-0.25222204
0.0020258235
-0.25261775
0.0020707888
-0.25302585
0.0021201163
-0.25344741
0.0021738633
-0.25388352
0.0022319945
-0.25433524
0.0022945199
-0.25480363
0.0023613475
-0.25528973
0.0024324282
-0.25579454
0.0025075997
-0.25631905
0.0025867389
-0.25686416
0.0026695971
-0.25743075
0.0027559618
-0.25801961
0.0028454814
-0.25863143
0.002937838
-0.25926682
0.0030325611
-0.25992628
0.003129213
-0.26061017
0.0032271909
-0.26131869
0.0033259255
-0.26205189
0.0034246722
-0.26280965
0.003522709
-0.26359163
0.003619204
-0.26439728
0.0037132091
-0.26522582
0.0038038132
-0.26607621
0.0038899197
-0.26694715
0.003970498
-0.26783707
0.0040443381
-0.2687441
0.0041103166
-0.26966606
0.0041671442
-0.27060049
0.0042136449
-0.27154459
0.0042485036
-0.27249528
0.0042705209
-0.27344914
0.0042784575
-0.27440249
0.0042711388
-0.27535133
0.0042474481
-0.27629143
0.0042063482
-0.27721828
0.0041469105
-0.2781272
0.0040683181
-0.27901331
0.003969903
-0.27987158
0.0038511565
-0.2806969
0.0037117487
-0.28148411
0.0035515428
-0.28222806
0.0033706153
-0.28292365
0.0031692519
-0.28356589
0.002947969
-0.28414997
0.0027075096
-0.28467132
0.0024488439
-0.28512563
0.0021731634
-0.28550897
0.0018818764
-0.28581777
0.0015765837
-0.2860489
0.0012590756
-0.28619974
0.00093128861
-0.28626815
0.0005952812
-0.28625255
0.0002532616
-0.28615196
-9.2468601e-05
-0.28596594
-0.00043962519
-0.28569465
-0.00078587447
-0.28533885
-0.0011288626
-0.28489982
-0.0014663126
-0.28437944
-0.0017960476
-0.28378012
-0.0021159697
-0.28310477
-0.0024240831
-0.28235673
-0.0027185224
-0.28153978
-0.0029975812
-0.2806581
-0.0032597221
-0.27971618
-0.0035035855
-0.27871882
-0.0037279946
-0.27767105
-0.0039319668
-0.27657813
-0.0041146977
-0.27544545
-0.0042755824
-0.2742785
-0.0044142008
-0.27308284
-0.0045303193
-0.27186406
-0.0046238899
-0.2706277
-0.004695043
-0.26937922
-0.0047440848
-0.26812398
-0.0047714897
-0.26686718
-0.0047778917
-0.26561381
-0.0047640749
-0.26436866
-0.0047309598
-0.26313624
-0.0046795979
-0.26192078
-0.0046111368
-0.26072619
-0.0045268211
-0.25955609
-0.0044279641
-0.25841371
-0.004315929
-0.25730197
-0.0041921089
-0.25622343
-0.0040579044
-0.2551803
-0.0039147129
-0.25417447
-0.003763893
-0.25320747
-0.0036067654
-0.25228056
-0.0034445895
-0.25139468
-0.0032785529
-0.25055049
-0.0031097604
-0.24974843
-0.0029392329
-0.24898869
-0.0027678895
-0.24827127
-0.002596558
-0.24759598
-0.0024259677
-0.24696248
-0.0022567523
-0.24637032
-0.0020894527
-0.24581892
-0.0019245263
-0.24530761
-0.0017623451
-0.24483565
-0.0016032135
-0.24440226
-0.0014473748
-0.24400661
-0.0012950277
-0.24364783
-0.0011463415
-0.24332506
-0.0010014715
-0.24303738
-0.00086057622
-0.24278384
-0.00072393289
-0.24256347
-0.00059212618
-0.24237563
-0.00046589211
-0.24221989
-0.00034528636
-0.24209394
-0.00023160721
-0.24199508
-0.00013025518
-5.5788896e-05
-0.24826033
0.0021066106
-0.24858426
0.0021085262
-0.24890628
0.0021145983
-0.24922854
0.0021241712
-0.24955263
0.0021372302
-0.24987977
0.0021541487
-0.25021106
0.0021752486
-0.25054752
0.0022008689
-0.25089017
0.0022312177
-0.25124001
0.0022665264
-0.25159808
0.0023069153
-0.25196542
0.0023525491
-0.25234308
0.0024034915
-0.25273215
0.0024598593
-0.2531337
0.0025216669
-0.25354882
0.0025889835
-0.2539786
0.002661768
-0.25442411
0.0027400323
-0.25488643
0.0028236664
-0.25536661
0.0029126097
-0.25586568
0.0030066657
-0.25638462
0.0031056832
-0.25692438
0.0032093591
-0.25748585
0.0033174319
-0.25806984
0.0034294711
-0.25867709
0.0035450849
-0.25930822
0.0036636957
-0.25996377
0.0037847627
-0.26064413
0.0039075437
-0.26134954
0.0040313342
-0.26208008
0.0041552148
-0.26283566
0.0042782905
-0.26361599
0.0043995303
-0.26442054
0.004517759
-0.26524856
0.0046318425
-0.26609906
0.0047404189
-0.26697077
0.0048422022
-0.26786212
0.0049356856
-0.26877126
0.005019464
-0.26969605
0.0050919272
-0.270634
0.0051516006
-0.27158233
0.0051968366
-0.27253794
0.0052261274
-0.2734974
0.0052379142
-0.27445698
0.0052307165
-0.27541265
0.0052031239
-0.27636013
0.0051538235
-0.27729485
0.0050816363
-0.27821206
0.0049855217
-0.27910678
0.0048646244
-0.27997391
0.0047182879
-0.28080824
0.0045460793
-0.2816045
0.0043478075
-0.28235744
0.0041235496
-0.28306183
0.0038736457
-0.28371259
0.0035987268
-0.28430479
0.0032997094
-0.28483374
0.0029777973
-0.28529505
0.0026344742
-0.28568468
0.0022714977
-0.28599896
0.00189087
-0.28623472
0.0014948344
-0.28638925
0.0010858136
-0.28646036
0.00066640059
-0.28644647
0.00023937205
-0.28634655
-0.00019239281
-0.28616016
-0.00062601219
-0.28588748
-0.001058554
-0.28552926
-0.0014870879
-0.28508682
-0.0019087547
-0.28456207
-0.0023207969
-0.28395747
-0.0027205711
-0.28327597
-0.0031055782
-0.28252101
-0.0034734847
-0.28169643
-0.0038221557
-0.28080649
-0.0041496667
-0.27985576
-0.0044543166
-0.27884912
-0.0047346326
-0.2777917
-0.0049893855
-0.27668883
-0.0052175692
-0.27554599
-0.0054184273
-0.27436875
-0.0055914341
-0.27316277
-0.0057362979
-0.27193371
-0.0058529582
-0.27068717
-0.0059415783
-0.26942871
-0.0060025418
-0.26816376
-0.0060364426
-0.26689758
-0.0060440755
-0.26563523
-0.0060264235
-0.26438155
-0.0059846413
-0.2631411
-0.0059200485
-0.26191815
-0.0058340852
-0.26071665
-0.0057283141
-0.25954023
-0.0056043839
-0.25839216
-0.0054640057
-0.25727534
-0.005308928
-0.25619233
-0.0051409079
-0.25514535
-0.004961698
-0.25413624
-0.0047730011
-0.25316654
-0.0045764715
-0.25223744
-0.0043736854
-0.25134986
-0.0041661281
-0.25050444
-0.0039551799
-0.24970156
-0.0037421149
-0.24894137
-0.0035280788
-0.24822383
-0.0033141018
-0.24754871
-0.0031010904
-0.24691563
-0.0028898302
-0.24632409
-0.00268099
-0.24577348
-0.0024751334
-0.24526311
-0.0022727155
-0.24479222
-0.0020741056
-0.24436
-0.0018795941
-0.24396562
-0.0016894101
-0.24360822
-0.001503738
-0.24328696
-0.0013227349
-0.24300097
-0.0011465623
-0.24274941
-0.00097549539
-0.24253153
-0.00081000933
-0.24234686
-0.00065055735
-0.24219489
-0.00049725693
-0.24207394
-0.00035256017
-0.2419845
-0.00021969934
-0.0001048342
-0.24833654
0.0024298826
-0.24865708
0.0024290701
-0.2489764
0.0024339167
-0.24929605
0.002443826
-0.24961744
0.0024586131
-0.24994176
0.0024784758
-0.25027013
0.0025036204
-0.2506036
0.0025343384
-0.2509432
0.0025708139
-0.25128996
0.0026132844
-0.25164492
0.0026618741
-0.25200913
0.0027167665
-0.25238368
0.0027780332
-0.25276963
0.0028458098
-0.25316807
0.0029201145
-0.25358012
0.0030010298
-0.25400686
0.00308851
-0.2544494
0.0031825709
-0.25490882
0.0032830863
-0.2553862
0.0033899865
-0.25588258
0.0035030429
-0.25639897
0.0036220786
-0.25693635
0.0037467384
-0.25749563
0.0038767141
-0.25807766
0.0040114989
-0.2586832
0.0041506291
-0.25931293
0.0042934218
-0.2599674
0.0044392351
-0.26064705
0.0045871887
-0.26135216
0.0047364441
-0.26208285
0.0048859076
-0.26283907
0.0050345115
-0.26362057
0.0051810249
-0.26442685
0.0053240439
-0.26525722
0.0054622102
-0.26611069
0.0055938927
-0.26698604
0.0057175471
-0.26788172
0.0058313644
-0.2687959
0.0059336524
-0.26972645
0.0060224731
-0.2706709
0.0060960455
-0.27162644
0.0061523811
-0.27258997
0.0061896538
-0.27355803
0.0062059755
-0.27452686
0.0061995486
-0.27549239
0.0061686578
-0.27645027
0.0061117027
-0.27739588
0.0060272424
-0.27832436
0.0059140014
-0.27923066
0.0057709263
-0.28010957
0.0055972026
-0.28095578
0.0053922853
-0.2817639
0.0051559219
-0.28252853
0.0048881838
-0.28324435
0.0045894617
-0.28390612
0.0042604989
-0.28450879
0.003902386
-0.28504756
0.0035165628
-0.2855179
0.00310481
-0.28591564
0.0026692421
-0.28623704
0.0022122717
-0.28647881
0.0017366061
-0.28663817
0.00124517
-0.28671287
0.00074110619
-0.28670128
0.00022777329
-0.28660232
-0.00029135047
-0.28641556
-0.00081276846
-0.28614118
-0.0013329336
-0.28577996
-0.0018483134
-0.28533326
-0.0023554497
-0.28480306
-0.0028509994
-0.28419187
-0.0033317637
-0.28350272
-0.0037947273
-0.28273913
-0.0042370775
-0.28190504
-0.0046562432
-0.2810048
-0.0050499078
-0.28004309
-0.0054160245
-0.2790249
-0.0057528224
-0.27795546
-0.0060588249
-0.27684021
-0.0063328234
-0.27568472
-0.0065739105
-0.2744947
-0.0067814564
-0.27327589
-0.006955112
-0.27203404
-0.007094807
-0.27077487
-0.0072007401
-0.26950404
-0.0072733756
-0.26822705
-0.0073134317
-0.26694926
-0.0073218692
-0.26567581
-0.0072998769
-0.26441159
-0.0072488514
-0.26316125
-0.0071703896
-0.2619291
-0.0070662342
-0.26071914
-0.0069382767
-0.25953501
-0.0067885122
-0.25838001
-0.0066190119
-0.25725704
-0.0064318907
-0.25616868
-0.0062292736
-0.2551171
-0.0060132785
-0.25410414
-0.005785962
-0.25313129
-0.0055493202
-0.25219972
-0.0053052535
-0.2513103
-0.0050555502
-0.25046361
-0.0048018706
-0.24965998
-0.0045457452
-0.24889951
-0.0042885478
-0.2481821
-0.0040315119
-0.24750747
-0.0037757203
-0.24687519
-0.0035221092
-0.24628471
-0.003271473
-0.24573536
-0.003024478
-0.24522642
-0.0027816586
-0.24475708
-0.0025434438
-0.24432651
-0.0023101647
-0.24393385
-0.0020820731
-0.24357823
-0.0018593577
-0.24325879
-0.0016421671
-0.24297471
-0.0014306447
-0.24272519
-0.0012250148
-0.24250961
-0.001025594
-0.24232755
-0.00083261839
-0.24217853
-0.00064627734
-0.24206172
-0.00046936177
-0.24197885
-0.00030257362
-0.00014823471
-0.24840637
0.0027497084
-0.24872427
0.0027469666
-0.24904134
0.0027509888
-0.24935886
0.0027613463
-0.24967807
0.0027778212
-0.25000013
0.0028005354
-0.25032613
0.0028296246
-0.25065714
0.0028653487
-0.2509942
0.0029078721
-0.25133836
0.0029574379
-0.25169066
0.0030141731
-0.25205217
0.0030782799
-0.25242397
0.0031498378
-0.25280717
0.0032290016
-0.25320285
0.0033157946
-0.25361213
0.0034103139
-0.25403613
0.0035125114
-0.25447597
0.003622409
-0.25493275
0.0037398663
-0.25540757
0.0038648074
-0.2559015
0.0039969742
-0.25641559
0.0041361667
-0.25695083
0.0042819805
-0.25750818
0.0044340636
-0.25808852
0.0045918354
-0.25869265
0.0047547628
-0.25932129
0.0049220602
-0.25997504
0.0050929867
-0.26065438
0.0052665256
-0.26135964
0.0054417056
-0.26209099
0.0056172597
-0.26284843
0.0057919473
-0.26363174
0.0059643373
-0.26444049
0.0061327958
-0.26527402
0.0062957377
-0.26613139
0.0064512599
-0.26701139
0.0065975549
-0.26791254
0.0067325061
-0.26883301
0.0068541277
-0.26977068
0.0069601459
-0.2707231
0.0070484643
-0.27168746
0.0071167432
-0.27266064
0.0071628272
-0.27363915
0.0071844861
-0.27461919
0.0071795927
-0.27559665
0.0071461127
-0.27656709
0.0070821448
-0.27752582
0.0069859718
-0.27846789
0.0068560696
-0.27938813
0.0066911731
-0.28028123
0.0064902979
-0.28114172
0.006252776
-0.28196408
0.0059782838
-0.28274278
0.0056668798
-0.28347232
0.0053190002
-0.28414732
0.0049354985
-0.28476257
0.0045176393
-0.28531311
0.004067102
-0.28579427
0.0035859704
-0.28620175
0.0030767249
-0.28653168
0.0025422009
-0.28678066
0.0019855831
-0.2869458
0.0014103163
-0.28702481
0.00082011116
-0.28701596
0.00021892614
-0.28691817
-0.0003891399
-0.28673098
-0.00099995603
-0.28645458
-0.0016093398
-0.28608976
-0.0022131304
-0.28563796
-0.0028072509
-0.2851012
-0.0033877582
-0.28448208
-0.0039508841
-0.28378373
-0.0044930828
-0.28300975
-0.0050110509
-0.28216422
-0.005501772
-0.2812516
-0.005962531
-0.28027669
-0.0063909311
-0.27924461
-0.0067849011
-0.27816072
-0.0071427152
-0.27703058
-0.0074629629
-0.27585991
-0.0077445859
-0.27465451
-0.0079868515
-0.27342027
-0.0081893554
-0.27216306
-0.0083520196
-0.27088872
-0.0084750815
-0.269603
-0.0085590901
-0.26831154
-0.0086048933
-0.26701979
-0.0086136244
-0.26573298
-0.0085866859
-0.2644561
-0.0085257259
-0.26319386
-0.0084326292
-0.26195064
-0.0083094534
-0.26073049
-0.0081584319
-0.25953708
-0.0079819203
-0.25837373
-0.0077823634
-0.25724336
-0.0075622567
-0.25614853
-0.0073241064
-0.2550914
-0.0070704085
-0.25407378
-0.0068035843
-0.25309712
-0.0065259819
-0.25216253
-0.0062398337
-0.25127085
-0.0059472385
-0.25042258
-0.0056501408
-0.24961799
-0.0053503311
-0.24885713
-0.0050494129
-0.24813981
-0.0047488231
-0.24746571
-0.0044498197
-0.24683434
-0.0041534873
-0.24624507
-0.0038607419
-0.2456972
-0.0035723482
-0.24518994
-0.0032889143
-0.24472246
-0.0030109224
-0.24429389
-0.0027387366
-0.24390334
-0.0024726221
-0.24354994
-0.0022127625
-0.24323282
-0.0019592873
-0.24295116
-0.0017123029
-0.24270422
-0.0014719533
-0.24249142
-0.0012383972
-0.24231232
-0.0010117154
-0.24216652
-0.0007920778
-0.24205369
-0.00058218838
-0.24197561
-0.00038066033
-0.0001882403
-0.2484897
0.0030659907
-0.24880472
0.0030619855
-0.24911923
0.0030654993
-0.24943429
0.0030764078
-0.24975103
0.0030945535
-0.25007054
0.0031200471
-0.2503939
0.0031529904
-0.25072218
0.0031936287
-0.25105643
0.003242114
-0.25139769
0.0032986977
-0.25174702
0.0033635112
-0.25210552
0.0034367753
-0.25247426
0.0035185787
-0.25285436
0.0036090967
-0.25324692
0.0037083593
-0.25365309
0.0038164802
-0.25407399
0.0039334114
-0.25451076
0.004059183
-0.25496454
0.0041936438
-0.25543644
0.0043367143
-0.25592758
0.0044881101
-0.25643903
0.0046476116
-0.25697181
0.0048147682
-0.25752694
0.0049891874
-0.25810532
0.0051702181
-0.25870782
0.0053572609
-0.25933519
0.0055494304
-0.25998809
0.005745889
-0.26066705
0.0059454859
-0.26137246
0.0061471187
-0.26210455
0.006349348
-0.26286337
0.0065507609
-0.26364875
0.0067497253
-0.26446033
0.0069443762
-0.2652975
0.0071328988
-0.26615935
0.0073131143
-0.26704474
0.0074829475
-0.2679522
0.0076399677
-0.26887996
0.0077818877
-0.26982591
0.0079060888
-0.27078759
0.0080101489
-0.27176221
0.0080913647
-0.27274662
0.0081472387
-0.27373732
0.0081751844
-0.27473046
0.008172729
-0.27572185
0.0081375037
-0.27670699
0.008067289
-0.2776811
0.0079600753
-0.2786391
0.0078140729
-0.27957572
0.0076277895
-0.28048547
0.0074000555
-0.28136276
0.0071300667
-0.2822019
0.0068174168
-0.28299716
0.0064621427
-0.28374288
0.0060647194
-0.28443349
0.005626107
-0.28506359
0.0051477446
-0.28562805
0.0046315543
-0.28612201
0.0040799301
-0.28654101
0.003495729
-0.28688103
0.0028822233
-0.28713854
0.0022430922
-0.28731055
0.0015823207
-0.28739464
0.00090421043
-0.28738906
0.00021334301
-0.28729267
-0.00048553571
-0.28710499
-0.0011876368
-0.28682621
-0.0018881162
-0.28645718
-0.0025821587
-0.28599939
-0.0032650457
-0.28545493
-0.0039322153
-0.2848265
-0.0045793121
-0.28411734
-0.0052022441
-0.28333119
-0.005797204
-0.28247224
-0.00636072
-0.2815451
-0.0068896713
-0.28055472
-0.0073813065
-0.27950637
-0.007833251
-0.27840556
-0.0082435292
-0.27725799
-0.0086105281
-0.27606954
-0.00893304
-0.27484616
-0.0092102304
-0.27359387
-0.0094416419
-0.2723187
-0.0096271918
-0.27102662
-0.0097671594
-0.26972353
-0.0098621833
-0.26841518
-0.0099132467
-0.26710714
-0.0099216631
-0.26580477
-0.0098890581
-0.26451315
-0.0098173423
-0.26323708
-0.0097087015
-0.26198101
-0.0095655225
-0.26074904
-0.0093903962
-0.25954491
-0.0091860553
-0.25837194
-0.0089553352
-0.25723306
-0.0087011286
-0.25613083
-0.008426339
-0.25506739
-0.0081338554
-0.25404449
-0.0078264776
-0.25306356
-0.0075069175
-0.25212564
-0.0071777497
-0.25123149
-0.0068413907
-0.25038155
-0.0065000762
-0.24957602
-0.0061558598
-0.24881486
-0.0058105771
-0.24809781
-0.0054658688
-0.24742447
-0.0051231668
-0.24679425
-0.0047837012
-0.24620649
-0.0044485061
-0.2456604
-0.0041184393
-0.24515514
-0.0037941763
-0.24468981
-0.0034762452
-0.24426351
-0.0031650343
-0.24387532
-0.0028608125
-0.24352434
-0.0025637476
-0.24320969
-0.0022739363
-0.24293056
-0.0019914286
-0.24268625
-0.0017162687
-0.24247618
-0.0014484668
-0.24229992
-0.0011879704
-0.24215717
-0.00093483464
-0.24204779
-0.00069156354
-0.24197323
-0.00045522519
-0.00022601759
-0.24858933
0.0033792037
-0.24890131
0.003373967
-0.24921291
0.0033770916
-0.2495251
0.0033886054
-0.24983895
0.0034084038
-0.25015552
0.0034366142
-0.25047586
0.0034733279
-0.25080102
0.0035187904
-0.25113206
0.0035731491
-0.25147003
0.0036366679
-0.251816
0.0037094846
-0.25217106
0.0037918409
-0.25253632
0.0038838361
-0.25291289
0.0039856678
-0.25330191
0.0040973753
-0.25370452
0.0042190909
-0.25412188
0.0043507695
-0.25455515
0.0044924528
-0.25500549
0.0046439819
-0.25547405
0.004805277
-0.25596197
0.0049760314
-0.25647037
0.0051560091
-0.25700032
0.0053447178
-0.25755286
0.0055417279
-0.25812896
0.0057463216
-0.25872954
0.005957837
-0.2593554
0.0061752919
-0.26000726
0.0063977553
-0.26068572
0.006623945
-0.26139123
0.0068526293
-0.26212408
0.0070821978
-0.26288439
0.0073110659
-0.26367206
0.0075374004
-0.26448679
0.007759103
-0.26532802
0.0079741271
-0.26619492
0.0081800139
-0.26708639
0.008374415
-0.268001
0.0085545784
-0.26893702
0.0087179071
-0.26989235
0.0088614269
-0.27086458
0.0089823779
-0.2718509
0.0090776798
-0.27284814
0.0091444773
-0.27385276
0.0091798111
-0.27486088
0.0091808453
-0.27586823
0.0091448574
-0.27687024
0.0090692908
-0.27786198
0.0089518233
-0.27883829
0.0087903807
-0.27979373
0.0085832246
-0.28072265
0.008328983
-0.28161929
0.0080266993
-0.28247774
0.0076758716
-0.2832921
0.0072765036
-0.28405648
0.006829102
-0.28476511
0.0063347294
-0.28541236
0.005794999
-0.28599289
0.0052120796
-0.28650164
0.0045886835
-0.28693397
0.0039280565
-0.28728567
0.0032339238
-0.28755305
0.0025104791
-0.287733
0.0017622707
-0.28782301
0.00099421731
-0.28782122
0.00021155199
-0.28772645
-0.00058030285
-0.28753822
-0.0013758706
-0.28725672
-0.0021696158
-0.28688284
-0.0029560388
-0.28641813
-0.0037297528
-0.2858648
-0.0044855532
-0.28522563
-0.005218477
-0.28450401
-0.0059238678
-0.28370381
-0.0065973998
-0.2828294
-0.0072351347
-0.28188553
-0.007833538
-0.28087734
-0.0083894988
-0.27981025
-0.0089003366
-0.27868996
-0.0093638247
-0.27752234
-0.0097781484
-0.27631342
-0.010141951
-0.27506935
-0.0104543
-0.27379631
-0.010714685
-0.27250048
-0.010923022
-0.271188
-0.011079637
-0.26986492
-0.011185263
-0.26853715
-0.011241024
-0.26721039
-0.011248423
-0.26589012
-0.011209319
-0.26458157
-0.011125898
-0.26328961
-0.011000661
-0.26201879
-0.010836342
-0.26077328
-0.010635906
-0.25955685
-0.010402484
-0.25837286
-0.010139321
-0.25722427
-0.0098497259
-0.25611359
-0.0095370187
-0.25504294
-0.0092044986
-0.25401406
-0.00885536
-0.25302829
-0.0084926919
-0.25208661
-0.0081194226
-0.25118971
-0.0077382956
-0.25033794
-0.0073518436
-0.24953141
-0.0069623883
-0.24876999
-0.0065719995
-0.24805334
-0.0061825216
-0.24738095
-0.005795559
-0.24675216
-0.0054124843
-0.24616622
-0.0050344451
-0.24562228
-0.0046623868
-0.24511941
-0.004297046
-0.24465666
-0.0039389893
-0.24423308
-0.0035886209
-0.24384768
-0.0032462046
-0.24349955
-0.0029118832
-0.24318777
-0.0025857094
-0.24291154
-0.0022676623
-0.24267013
-0.0019576777
-0.24246297
-0.0016556262
-0.24228962
-0.00136132
-0.24214982
-0.0010746369
-0.24204347
-0.00079791075
-0.24197163
-0.00052706769
-0.00026219865
-0.24870502
0.0036888174
-0.24901359
0.0036825379
-0.24932186
0.0036853645
-0.24963077
0.0036975091
-0.2499413
0.0037189333
-0.25025448
0.0037497982
-0.25057135
0.0037902002
-0.25089296
0.0038403963
-0.25122035
0.0039005366
-0.25155458
0.0039709021
-0.25189674
0.0040516404
-0.25224791
0.0041430164
-0.25260922
0.0042451424
-0.25298179
0.0043582407
-0.25336678
0.0044823624
-0.25376535
0.0046176617
-0.25417868
0.0047640996
-0.25460796
0.0049217326
-0.25505437
0.005090398
-0.25551912
0.0052700199
-0.25600336
0.005460273
-0.25650826
0.0056609098
-0.25703494
0.0058714002
-0.2575845
0.006091282
-0.25815795
0.0063197751
-0.25875627
0.0065561591
-0.25938034
0.0067993592
-0.26003094
0.0070483545
-0.26070873
0.0073017344
-0.26141424
0.0075581404
-0.26214783
0.007815793
-0.2629097
0.0080729365
-0.26369984
0.0083275363
-0.264518
0.0085772596
-0.2653637
0.0088198252
-0.26623617
0.0090524897