/*--------------------------------*- C++ -*----------------------------------*\
| =========                 |                                                 |
| \\      /  F ield         | foam-extend: Open Source CFD                    |
|  \\    /   O peration     | Version:     4.1                                |
|   \\  /    A nd           | Web:         http://www.foam-extend.org         |
|    \\/     M anipulation  |                                                 |
\*---------------------------------------------------------------------------*/
FoamFile
{
    version     2.0;
    format      ascii;
    class       volScalarField;
    location    "0.05";
    object      rAU;
}
// * * * * * * * * * * * * * * * * * * * * * * * * * * * * * * * * * * * * * //

dimensions      [0 0 1 0 0 0 0];

internalField   nonuniform List<scalar> 
16796
(
3.8125977e-05
3.8146646e-05
3.8167878e-05
3.8186498e-05
3.8202421e-05
3.8215639e-05
3.8226025e-05
3.823379e-05
3.8238933e-05
3.8241813e-05
3.8241661e-05
3.8239582e-05
3.8236731e-05
3.8233697e-05
3.8230696e-05
3.8228183e-05
3.8226269e-05
3.8225307e-05
3.8225269e-05
3.8225343e-05
3.822651e-05
3.8229063e-05
3.8232988e-05
3.8238527e-05
3.8245586e-05
3.8254318e-05
3.826453e-05
3.8276279e-05
3.8289274e-05
3.8303474e-05
3.8318501e-05
3.8334198e-05
3.8350263e-05
3.8366259e-05
3.8381986e-05
3.8396938e-05
3.8410897e-05
3.842335e-05
3.8434086e-05
3.8442614e-05
3.8448755e-05
3.845208e-05
3.8449644e-05
3.8443752e-05
3.843486e-05
3.8423051e-05
3.8408413e-05
3.8391068e-05
3.8371143e-05
3.8348811e-05
3.8324269e-05
3.8297741e-05
3.8269471e-05
3.8239736e-05
3.8208809e-05
3.8176986e-05
3.8144569e-05
3.8111861e-05
3.8079161e-05
3.8046778e-05
3.801499e-05
3.7984078e-05
3.7954304e-05
3.7925912e-05
3.7899127e-05
3.7874146e-05
3.785116e-05
3.783031e-05
3.7811729e-05
3.7795517e-05
3.7781749e-05
3.777047e-05
3.7761715e-05
3.7755471e-05
3.7751717e-05
3.7750409e-05
3.7750409e-05
3.7751494e-05
3.7754958e-05
3.7760745e-05
3.7768764e-05
3.7778876e-05
3.7790921e-05
3.7804727e-05
3.7820107e-05
3.7836867e-05
3.7854807e-05
3.7873724e-05
3.7893413e-05
3.7913665e-05
3.7934292e-05
3.7955087e-05
3.7975866e-05
3.799645e-05
3.8016669e-05
3.8036367e-05
3.8055397e-05
3.8073641e-05
3.8090971e-05
3.8107293e-05
3.8122521e-05
3.8136586e-05
3.8149428e-05
3.8161017e-05
3.8171316e-05
3.8180314e-05
3.8188006e-05
3.8194402e-05
3.8199514e-05
3.820338e-05
3.8206022e-05
3.8207485e-05
3.8207064e-05
3.8205294e-05
3.8202559e-05
3.8198927e-05
3.8194445e-05
3.8189181e-05
3.8183204e-05
3.8176596e-05
3.8169472e-05
3.8162095e-05
3.8154524e-05
3.8143689e-05
3.7038791e-05
3.705822e-05
3.7078996e-05
3.7098133e-05
3.7115653e-05
3.7131654e-05
3.7146049e-05
3.7159071e-05
3.7170667e-05
3.7181122e-05
3.718955e-05
3.7196752e-05
3.7203446e-05
3.7209924e-05
3.7216251e-05
3.7222864e-05
3.7229905e-05
3.7237825e-05
3.7246715e-05
3.7255943e-05
3.7266483e-05
3.7278592e-05
3.729216e-05
3.730734e-05
3.732393e-05
3.7341997e-05
3.7361257e-05
3.7381705e-05
3.7402995e-05
3.7425064e-05
3.7447521e-05
3.7470233e-05
3.749294e-05
3.7515262e-05
3.7537096e-05
3.7558036e-05
3.7577998e-05
3.7596609e-05
3.7613826e-05
3.7629322e-05
3.76431e-05
3.7654888e-05
3.7661937e-05
3.7662549e-05
3.7658901e-05
3.7652651e-05
3.7643837e-05
3.7632576e-05
3.7619009e-05
3.760333e-05
3.7585757e-05
3.7566532e-05
3.7545913e-05
3.7524188e-05
3.7501636e-05
3.7478554e-05
3.7455241e-05
3.7431996e-05
3.7409108e-05
3.7386874e-05
3.7365557e-05
3.7345421e-05
3.732671e-05
3.7309646e-05
3.7294433e-05
3.7281247e-05
3.7270256e-05
3.7261578e-05
3.7255324e-05
3.7251573e-05
3.725038e-05
3.7251769e-05
3.7255758e-05
3.7262316e-05
3.7268398e-05
3.7275063e-05
3.7283175e-05
3.7292463e-05
3.7304082e-05
3.7317907e-05
3.7333843e-05
3.7351774e-05
3.737157e-05
3.7393093e-05
3.741619e-05
3.7440701e-05
3.7466456e-05
3.749328e-05
3.7520994e-05
3.7549414e-05
3.757837e-05
3.7607674e-05
3.7637154e-05
3.7666643e-05
3.769598e-05
3.7725012e-05
3.7753596e-05
3.7781611e-05
3.7808928e-05
3.7835446e-05
3.7861072e-05
3.7885727e-05
3.7909341e-05
3.7931873e-05
3.7953271e-05
3.7973509e-05
3.7992571e-05
3.8010449e-05
3.8027142e-05
3.8042672e-05
3.8057046e-05
3.8070294e-05
3.8081697e-05
3.8091762e-05
3.8100851e-05
3.8109019e-05
3.8116307e-05
3.8122773e-05
3.8127511e-05
3.8131234e-05
3.8134513e-05
3.8137549e-05
3.8140286e-05
3.8140935e-05
3.6949268e-05
3.6969358e-05
3.6990497e-05
3.7010147e-05
3.7028256e-05
3.7044981e-05
3.7060237e-05
3.7074269e-05
3.7087035e-05
3.7098823e-05
3.7109626e-05
3.7119768e-05
3.712927e-05
3.7138476e-05
3.714744e-05
3.7156546e-05
3.7165863e-05
3.7175771e-05
3.7186316e-05
3.7197842e-05
3.7210354e-05
3.7224133e-05
3.7239103e-05
3.7255465e-05
3.7273065e-05
3.7292024e-05
3.7312109e-05
3.733336e-05
3.7355472e-05
3.7378415e-05
3.7401819e-05
3.7425563e-05
3.7449389e-05
3.747291e-05
3.7496003e-05
3.7518236e-05
3.753949e-05
3.7559352e-05
3.7577733e-05
3.7594259e-05
3.760889e-05
3.7621312e-05
3.7631485e-05
3.7631463e-05
3.7623155e-05
3.7612406e-05
3.759937e-05
3.7584243e-05
3.7567228e-05
3.7548563e-05
3.7528501e-05
3.7507308e-05
3.748526e-05
3.7462651e-05
3.7439757e-05
3.7416867e-05
3.7394265e-05
3.7372225e-05
3.7351007e-05
3.7330876e-05
3.7312056e-05
3.7294771e-05
3.7279219e-05
3.7265578e-05
3.7254005e-05
3.7244629e-05
3.723757e-05
3.7232901e-05
3.7230686e-05
3.7230963e-05
3.7233744e-05
3.7239016e-05
3.7246761e-05
3.725374e-05
3.7255878e-05
3.7258512e-05
3.7263602e-05
3.7271121e-05
3.7281035e-05
3.7293259e-05
3.7307717e-05
3.7324309e-05
3.7342918e-05
3.7363413e-05
3.7385648e-05
3.7409466e-05
3.7434701e-05
3.7461178e-05
3.7488716e-05
3.7517127e-05
3.7546237e-05
3.7575849e-05
3.7605785e-05
3.7635867e-05
3.7665924e-05
3.7695791e-05
3.7725311e-05
3.7754353e-05
3.7782774e-05
3.7810459e-05
3.7837303e-05
3.7863216e-05
3.7888114e-05
3.7911945e-05
3.7934647e-05
3.7956184e-05
3.7976531e-05
3.7995672e-05
3.8013599e-05
3.8030329e-05
3.8045863e-05
3.8060226e-05
3.8073447e-05
3.8085559e-05
3.8096596e-05
3.8106612e-05
3.811564e-05
3.8123729e-05
3.8129958e-05
3.813502e-05
3.8139427e-05
3.8142419e-05
3.8144665e-05
3.8144851e-05
3.6928234e-05
3.695016e-05
3.6972772e-05
3.699379e-05
3.7013078e-05
3.7030805e-05
3.7046867e-05
3.7061502e-05
3.7074662e-05
3.7086637e-05
3.7097428e-05
3.7107372e-05
3.7116508e-05
3.7125199e-05
3.7133509e-05
3.7141829e-05
3.7150241e-05
3.7159138e-05
3.716859e-05
3.7178966e-05
3.7190302e-05
3.7202919e-05
3.7216786e-05
3.7232148e-05
3.7248895e-05
3.7267184e-05
3.7286819e-05
3.7307868e-05
3.7330046e-05
3.735334e-05
3.7377389e-05
3.7402072e-05
3.7427124e-05
3.7452146e-05
3.7476995e-05
3.7501214e-05
3.7524652e-05
3.7546861e-05
3.7567711e-05
3.7586783e-05
3.7603991e-05
3.7618978e-05
3.7631666e-05
3.7633373e-05
3.7622283e-05
3.7608763e-05
3.7593016e-05
3.7575284e-05
3.7555805e-05
3.753485e-05
3.7512702e-05
3.7489653e-05
3.7465998e-05
3.7442048e-05
3.741809e-05
3.7394421e-05
3.7371328e-05
3.7349084e-05
3.7327947e-05
3.7308172e-05
3.7289974e-05
3.7273563e-05
3.7259123e-05
3.7246816e-05
3.7236781e-05
3.7229125e-05
3.722395e-05
3.7221309e-05
3.7221243e-05
3.7223768e-05
3.7228876e-05
3.7236532e-05
3.7246694e-05
3.7247761e-05
3.7245583e-05
3.7245932e-05
3.7248826e-05
3.7254258e-05
3.7262211e-05
3.7272617e-05
3.7285411e-05
3.7300501e-05
3.7317775e-05
3.7337109e-05
3.7358362e-05
3.7381379e-05
3.7405995e-05
3.7432033e-05
3.7459309e-05
3.7487631e-05
3.7516818e-05
3.7546665e-05
3.7576985e-05
3.7607589e-05
3.7638293e-05
3.7668922e-05
3.7699305e-05
3.7729298e-05
3.7758744e-05
3.7787517e-05
3.7815498e-05
3.7842584e-05
3.786868e-05
3.7893723e-05
3.7917641e-05
3.7940389e-05
3.7961932e-05
3.7982248e-05
3.8001323e-05
3.8019165e-05
3.8035772e-05
3.8051166e-05
3.8065371e-05
3.8078417e-05
3.8090337e-05
3.810118e-05
3.8110976e-05
3.8119768e-05
3.8127594e-05
3.8134481e-05
3.814042e-05
3.8144559e-05
3.8147559e-05
3.814732e-05
3.6911392e-05
3.6935201e-05
3.6959437e-05
3.6981918e-05
3.7002443e-05
3.7021177e-05
3.7037999e-05
3.7053137e-05
3.7066535e-05
3.7078486e-05
3.7088991e-05
3.7098397e-05
3.7106757e-05
3.711446e-05
3.7121598e-05
3.7128596e-05
3.7135572e-05
3.7142957e-05
3.7150863e-05
3.7159699e-05
3.7169542e-05
3.718075e-05
3.7193333e-05
3.7207572e-05
3.7223392e-05
3.7240981e-05
3.7260169e-05
3.7281047e-05
3.7303347e-05
3.7327067e-05
3.735185e-05
3.7377572e-05
3.7403961e-05
3.7430604e-05
3.7457337e-05
3.7483678e-05
3.7509448e-05
3.7534165e-05
3.7557663e-05
3.7579488e-05
3.7599513e-05
3.7617342e-05
3.7632853e-05
3.7636481e-05
3.7622787e-05
3.7606659e-05
3.7588339e-05
3.7568101e-05
3.754622e-05
3.7522999e-05
3.7498747e-05
3.7473781e-05
3.7448416e-05
3.7422983e-05
3.7397783e-05
3.7373125e-05
3.7349302e-05
3.7326595e-05
3.7305261e-05
3.7285557e-05
3.7267693e-05
3.7251873e-05
3.7238272e-05
3.7227041e-05
3.7218304e-05
3.7212156e-05
3.7208679e-05
3.7207907e-05
3.7209862e-05
3.721454e-05
3.722191e-05
3.7231915e-05
3.7243235e-05
3.7237643e-05
3.7233114e-05
3.7231198e-05
3.723193e-05
3.7235313e-05
3.7241346e-05
3.7249974e-05
3.7261145e-05
3.7274776e-05
3.7290765e-05
3.7308993e-05
3.7329323e-05
3.7351602e-05
3.7375664e-05
3.7401331e-05
3.7428416e-05
3.7456719e-05
3.7486054e-05
3.7516206e-05
3.7546976e-05
3.7578166e-05
3.760958e-05
3.7641029e-05
3.767233e-05
3.7703324e-05
3.7733842e-05
3.7763743e-05
3.7792898e-05
3.7821189e-05
3.7848512e-05
3.7874792e-05
3.7899947e-05
3.7923924e-05
3.794668e-05
3.7968186e-05
3.798842e-05
3.8007387e-05
3.8025081e-05
3.8041518e-05
3.805672e-05
3.8070716e-05
3.8083535e-05
3.8095226e-05
3.8105818e-05
3.8115353e-05
3.8123867e-05
3.8131381e-05
3.8137885e-05
3.8143361e-05
3.8147747e-05
3.8148e-05
3.689475e-05
3.6920425e-05
3.6946299e-05
3.697023e-05
3.6991968e-05
3.7011666e-05
3.7029186e-05
3.7044748e-05
3.7058294e-05
3.7070119e-05
3.7080236e-05
3.7089007e-05
3.7096507e-05
3.7103148e-05
3.7109053e-05
3.7114673e-05
3.712016e-05
3.7125979e-05
3.7132281e-05
3.7139515e-05
3.7147798e-05
3.7157533e-05
3.7168771e-05
3.7181836e-05
3.7196691e-05
3.7213561e-05
3.7232304e-05
3.7253036e-05
3.7275507e-05
3.7299723e-05
3.7325331e-05
3.7352203e-05
3.7380055e-05
3.7408456e-05
3.7437216e-05
3.7465825e-05
3.7494069e-05
3.7521427e-05
3.7547694e-05
3.7572372e-05
3.7595292e-05
3.7616018e-05
3.7634389e-05
3.7640033e-05
3.762361e-05
3.7604755e-05
3.7583743e-05
3.7560887e-05
3.7536492e-05
3.7510891e-05
3.7484422e-05
3.7457426e-05
3.743024e-05
3.7403212e-05
3.7376661e-05
3.7350906e-05
3.7326251e-05
3.7302982e-05
3.7281361e-05
3.7261644e-05
3.7244038e-05
3.7228742e-05
3.7215923e-05
3.7205721e-05
3.7198247e-05
3.7193579e-05
3.7191784e-05
3.7192876e-05
3.7196857e-05
3.7203699e-05
3.7213349e-05
3.7225727e-05
3.7235509e-05
3.7225958e-05
3.7219036e-05
3.7214821e-05
3.7213366e-05
3.7214692e-05
3.7218812e-05
3.7225684e-05
3.7235265e-05
3.7247481e-05
3.7262238e-05
3.727942e-05
3.7298892e-05
3.7320505e-05
3.7344089e-05
3.7369465e-05
3.739644e-05
3.7424808e-05
3.7454373e-05
3.7484911e-05
3.7516214e-05
3.7548069e-05
3.7580267e-05
3.7612607e-05
3.764489e-05
3.7676946e-05
3.770859e-05
3.7739669e-05
3.7770039e-05
3.7799572e-05
3.7828152e-05
3.7855693e-05
3.7882103e-05
3.7907321e-05
3.7931296e-05
3.7953991e-05
3.797538e-05
3.7995464e-05
3.801423e-05
3.8031693e-05
3.8047871e-05
3.8062792e-05
3.8076484e-05
3.8088994e-05
3.8100353e-05
3.8110603e-05
3.8119779e-05
3.812791e-05
3.8134994e-05
3.8141034e-05
3.8145967e-05
3.8147087e-05
3.6878377e-05
3.6905964e-05
3.6933539e-05
3.6958964e-05
3.6981944e-05
3.7002618e-05
3.702083e-05
3.703679e-05
3.7050436e-05
3.7062066e-05
3.70717e-05
3.7079716e-05
3.7086208e-05
3.7091619e-05
3.7096102e-05
3.7100147e-05
3.7103945e-05
3.7108006e-05
3.7112524e-05
3.7117996e-05
3.7124585e-05
3.7132738e-05
3.7142552e-05
3.7154392e-05
3.7168259e-05
3.7184412e-05
3.7202738e-05
3.7223374e-05
3.7246086e-05
3.7270888e-05
3.7297427e-05
3.7325569e-05
3.7355015e-05
3.7385313e-05
3.7416249e-05
3.7447279e-05
3.7478152e-05
3.750831e-05
3.7537504e-05
3.7565193e-05
3.7591164e-05
3.7614937e-05
3.7636307e-05
3.7644131e-05
3.7624906e-05
3.760323e-05
3.757942e-05
3.7553824e-05
3.7526783e-05
3.7498664e-05
3.7469834e-05
3.7440661e-05
3.7411506e-05
3.7382738e-05
3.7354691e-05
3.73277e-05
3.7302079e-05
3.7278121e-05
3.7256094e-05
3.7236253e-05
3.7218805e-05
3.7203944e-05
3.7191831e-05
3.7182593e-05
3.717633e-05
3.7173106e-05
3.7172969e-05
3.7175914e-05
3.7181922e-05
3.7190945e-05
3.7202905e-05
3.7217699e-05
3.7224535e-05
3.7212483e-05
3.7203149e-05
3.7196629e-05
3.7192992e-05
3.7192274e-05
3.7194501e-05
3.7199643e-05
3.7207669e-05
3.7218514e-05
3.7232087e-05
3.724828e-05
3.726696e-05
3.7287975e-05
3.7311157e-05
3.7336321e-05
3.7363267e-05
3.7391783e-05
3.7421664e-05
3.7452675e-05
3.7484594e-05
3.7517196e-05
3.7550258e-05
3.7583566e-05
3.7616905e-05
3.7650091e-05
3.7682925e-05
3.771524e-05
3.774688e-05
3.7777703e-05
3.7807583e-05
3.7836423e-05
3.7864122e-05
3.789061e-05
3.791583e-05
3.7939738e-05
3.7962303e-05
3.798352e-05
3.8003374e-05
3.8021876e-05
3.8039043e-05
3.8054901e-05
3.8069477e-05
3.8082819e-05
3.8094957e-05
3.8105934e-05
3.8115789e-05
3.8124551e-05
3.8132231e-05
3.8138844e-05
3.8144347e-05
3.8146148e-05
3.6862209e-05
3.6891754e-05
3.6921067e-05
3.6948002e-05
3.6972224e-05
3.6993855e-05
3.7012722e-05
3.7029028e-05
3.7042708e-05
3.7054065e-05
3.7063131e-05
3.7070299e-05
3.7075688e-05
3.7079767e-05
3.7082725e-05
3.7085088e-05
3.7087087e-05
3.7089276e-05
3.7091896e-05
3.7095492e-05
3.7100276e-05
3.7106746e-05
3.7115045e-05
3.7125586e-05
3.7138411e-05
3.7153815e-05
3.7171717e-05
3.7192277e-05
3.7215276e-05
3.7240736e-05
3.7268303e-05
3.7297833e-05
3.7329011e-05
3.7361359e-05
3.7394632e-05
3.742825e-05
3.7461921e-05
3.7495041e-05
3.7527317e-05
3.7558159e-05
3.7587309e-05
3.761424e-05
3.7638703e-05
3.7648825e-05
3.7626659e-05
3.7602021e-05
3.7575267e-05
3.7546784e-05
3.751695e-05
3.7486166e-05
3.7454829e-05
3.7423337e-05
3.7392074e-05
3.7361431e-05
3.733176e-05
3.7303411e-05
3.727671e-05
3.7251959e-05
3.722943e-05
3.720938e-05
3.7192017e-05
3.7177529e-05
3.716607e-05
3.7157758e-05
3.7152679e-05
3.7150882e-05
3.7152398e-05
3.7157203e-05
3.7165256e-05
3.7176486e-05
3.7190792e-05
3.7208046e-05
3.7212009e-05
3.7197396e-05
3.7185601e-05
3.717674e-05
3.7170897e-05
3.7168125e-05
3.7168463e-05
3.7171893e-05
3.7178392e-05
3.7187904e-05
3.7200343e-05
3.7215604e-05
3.7233555e-05
3.7254044e-05
3.7276901e-05
3.7301933e-05
3.7328937e-05
3.735769e-05
3.7387976e-05
3.7419547e-05
3.7452171e-05
3.7485606e-05
3.7519616e-05
3.755397e-05
3.7588439e-05
3.7622823e-05
3.7656909e-05
3.7690516e-05
3.7723474e-05
3.7755629e-05
3.7786844e-05
3.7817012e-05
3.7846022e-05
3.7873796e-05
3.790027e-05
3.7925396e-05
3.7949135e-05
3.797148e-05
3.7992414e-05
3.8011944e-05
3.8030088e-05
3.8046868e-05
3.8062314e-05
3.8076475e-05
3.8089383e-05
3.8101085e-05
3.8111624e-05
3.8121038e-05
3.812935e-05
3.813659e-05
3.814274e-05
3.8145281e-05
3.6846481e-05
3.6878085e-05
3.6909223e-05
3.6937731e-05
3.6963237e-05
3.6985842e-05
3.7005357e-05
3.7021976e-05
3.7035631e-05
3.7046628e-05
3.7055012e-05
3.7061194e-05
3.7065319e-05
3.7067888e-05
3.7069126e-05
3.7069602e-05
3.7069593e-05
3.7069705e-05
3.707023e-05
3.7071767e-05
3.7074582e-05
3.7079226e-05
3.7085894e-05
3.7095045e-05
3.7106767e-05
3.7121392e-05
3.7138869e-05
3.7159382e-05
3.7182727e-05
3.720893e-05
3.7237635e-05
3.7268686e-05
3.7301747e-05
3.7336313e-05
3.7372103e-05
3.7408497e-05
3.744516e-05
3.7481439e-05
3.751699e-05
3.7551175e-05
3.7583684e-05
3.7613942e-05
3.7641653e-05
3.7654214e-05
3.7628983e-05
3.7601244e-05
3.7571396e-05
3.7539869e-05
3.750708e-05
3.7473465e-05
3.7439457e-05
3.740548e-05
3.7371948e-05
3.7339273e-05
3.7307828e-05
3.7277979e-05
3.7250064e-05
3.7224396e-05
3.7201252e-05
3.7180894e-05
3.7163526e-05
3.7149336e-05
3.713847e-05
3.7131036e-05
3.7127109e-05
3.7126722e-05
3.7129888e-05
3.7136563e-05
3.7146685e-05
3.716016e-05
3.7176862e-05
3.7196638e-05
3.7197824e-05
3.7180596e-05
3.7166299e-05
3.7155068e-05
3.7147004e-05
3.7142173e-05
3.7140629e-05
3.7142362e-05
3.7147363e-05
3.7155578e-05
3.716693e-05
3.7181315e-05
3.7198602e-05
3.7218639e-05
3.7241249e-05
3.7266236e-05
3.7293387e-05
3.7322469e-05
3.7353255e-05
3.7385485e-05
3.7418909e-05
3.7453273e-05
3.7488323e-05
3.7523812e-05
3.7559497e-05
3.7595159e-05
3.7630573e-05
3.766554e-05
3.7699879e-05
3.7733424e-05
3.7766025e-05
3.7797565e-05
3.7827925e-05
3.7857019e-05
3.7884776e-05
3.7911142e-05
3.7936076e-05
3.7959565e-05
3.7981589e-05
3.8002156e-05
3.802128e-05
3.8038985e-05
3.8055301e-05
3.8070279e-05
3.8083952e-05
3.8096372e-05
3.8107588e-05
3.8117645e-05
3.8126579e-05
3.8134438e-05
3.8141228e-05
3.814448e-05
3.6831189e-05
3.6864943e-05
3.6897979e-05
3.6928109e-05
3.6954924e-05
3.6978507e-05
3.699865e-05
3.7015539e-05
3.7029105e-05
3.7039661e-05
3.7047263e-05
3.7052344e-05
3.7055073e-05
3.7055987e-05
3.7055349e-05
3.7053773e-05
3.7051585e-05
3.7049444e-05
3.7047697e-05
3.7047002e-05
3.7047685e-05
3.7050351e-05
3.7055255e-05
3.7062907e-05
3.7073441e-05
3.7087232e-05
3.7104261e-05
3.7124737e-05
3.7148471e-05
3.7175493e-05
3.7205443e-05
3.7238149e-05
3.7273251e-05
3.7310212e-05
3.7348712e-05
3.7388086e-05
3.7427946e-05
3.746759e-05
3.7506617e-05
3.7544336e-05
3.7580382e-05
3.761413e-05
3.7645235e-05
3.7660354e-05
3.7631893e-05
3.7600883e-05
3.7567767e-05
3.7533019e-05
3.7497098e-05
3.7460478e-05
3.7423625e-05
3.7386996e-05
3.7351032e-05
3.7316171e-05
3.7282804e-05
3.7251317e-05
3.7222062e-05
3.719536e-05
3.7171498e-05
3.7150739e-05
3.7133291e-05
3.7119336e-05
3.7109013e-05
3.7102423e-05
3.7099628e-05
3.7100644e-05
3.7105467e-05
3.7114033e-05
3.7126258e-05
3.7142022e-05
3.7161176e-05
3.7183539e-05
3.718204e-05
3.7162124e-05
3.7145266e-05
3.713162e-05
3.7121304e-05
3.7114399e-05
3.7110969e-05
3.7111017e-05
3.7114541e-05
3.7121495e-05
3.7131806e-05
3.7145371e-05
3.7162059e-05
3.7181716e-05
3.7204161e-05
3.722919e-05
3.7256581e-05
3.7286089e-05
3.7317474e-05
3.7350462e-05
3.7384786e-05
3.7420176e-05
3.7456361e-05
3.7493076e-05
3.7530061e-05
3.7567081e-05
3.7603894e-05
3.7640288e-05
3.7676066e-05
3.7711051e-05
3.774508e-05
3.7778028e-05
3.7809766e-05
3.7840202e-05
3.7869258e-05
3.7896875e-05
3.7923007e-05
3.7947641e-05
3.7970755e-05
3.7992354e-05
3.8012452e-05
3.8031077e-05
3.8048257e-05
3.8064047e-05
3.8078484e-05
3.8091625e-05
3.8103525e-05
3.8114239e-05
3.8123815e-05
3.8132312e-05
3.813976e-05
3.8143721e-05
3.6816533e-05
3.6852575e-05
3.6887622e-05
3.6919458e-05
3.6947639e-05
3.6972224e-05
3.6992991e-05
3.7010114e-05
3.7023525e-05
3.703354e-05
3.7040233e-05
3.7044055e-05
3.7045209e-05
3.7044266e-05
3.7041534e-05
3.7037675e-05
3.7033071e-05
3.7028438e-05
3.7024188e-05
3.7021039e-05
3.7019381e-05
3.7019886e-05
3.7022866e-05
3.7028887e-05
3.7038137e-05
3.7051031e-05
3.7067587e-05
3.7088038e-05
3.7112209e-05
3.7140135e-05
3.7171449e-05
3.7205959e-05
3.7243279e-05
3.7282834e-05
3.7324259e-05
3.736684e-05
3.7410133e-05
3.7453379e-05
3.7496117e-05
3.7537598e-05
3.7577398e-05
3.7614837e-05
3.7649518e-05
3.7667319e-05
3.7635458e-05
3.7600994e-05
3.7564421e-05
3.752626e-05
3.7487012e-05
3.7447192e-05
3.7407304e-05
3.7367837e-05
3.7329262e-05
3.7292042e-05
3.7256593e-05
3.7223316e-05
3.7192581e-05
3.7164719e-05
3.7140025e-05
3.7118769e-05
3.7101157e-05
3.7087369e-05
3.7077539e-05
3.7071759e-05
3.7070077e-05
3.7072495e-05
3.707899e-05
3.7089477e-05
3.7103848e-05
3.712196e-05
3.7143636e-05
3.7168668e-05
3.716459e-05
3.7141911e-05
3.7122433e-05
3.7106327e-05
3.7093727e-05
3.708473e-05
3.707941e-05
3.7077782e-05
3.7079851e-05
3.7085577e-05
3.709489e-05
3.7107691e-05
3.7123848e-05
3.7143202e-05
3.7165566e-05
3.7190729e-05
3.7218457e-05
3.7248495e-05
3.7280586e-05
3.7314439e-05
3.7349772e-05
3.7386296e-05
3.7423721e-05
3.7461764e-05
3.7500147e-05
3.7538616e-05
3.7576914e-05
3.7614812e-05
3.7652101e-05
3.7688589e-05
3.7724103e-05
3.7758507e-05
3.7791666e-05
3.7823478e-05
3.785386e-05
3.788275e-05
3.7910099e-05
3.7935889e-05
3.7960098e-05
3.7982732e-05
3.8003804e-05
3.8023342e-05
3.8041378e-05
3.805797e-05
3.807316e-05
3.8087009e-05
3.809958e-05
3.8110937e-05
3.8121141e-05
3.8130265e-05
3.8138357e-05
3.8143e-05
3.6802565e-05
3.6841029e-05
3.6878195e-05
3.6911818e-05
3.6941415e-05
3.6967025e-05
3.6988407e-05
3.7005727e-05
3.7018916e-05
3.7028298e-05
3.7033961e-05
3.7036381e-05
3.7035791e-05
3.7032803e-05
3.7027769e-05
3.7021407e-05
3.7014155e-05
3.7006794e-05
3.6999801e-05
3.6993966e-05
3.6989747e-05
3.6987885e-05
3.6988759e-05
3.6992997e-05
3.7000842e-05
3.7012756e-05
3.7028795e-05
3.7049219e-05
3.7073868e-05
3.710278e-05
3.7135578e-05
3.7172049e-05
3.7211773e-05
3.7254135e-05
3.729872e-05
3.7344754e-05
3.7391736e-05
3.7438839e-05
3.7485541e-05
3.7531025e-05
3.7574808e-05
3.761615e-05
3.7654599e-05
3.7675186e-05
3.7639723e-05
3.7601598e-05
3.7561357e-05
3.751957e-05
3.7476784e-05
3.7433557e-05
3.7390431e-05
3.7347932e-05
3.7306559e-05
3.7266804e-05
3.7229106e-05
3.7193887e-05
3.7161531e-05
3.7132384e-05
3.7106748e-05
3.7084898e-05
3.7067043e-05
3.7053361e-05
3.704398e-05
3.7038983e-05
3.7038404e-05
3.7042231e-05
3.705042e-05
3.7062865e-05
3.7079435e-05
3.709996e-05
3.7124236e-05
3.7152026e-05
3.7145471e-05
3.7119942e-05
3.7097772e-05
3.707915e-05
3.7064227e-05
3.7053112e-05
3.7045893e-05
3.7042592e-05
3.7043224e-05
3.7047753e-05
3.7056114e-05
3.7068207e-05
3.7083899e-05
3.7103027e-05
3.7125398e-05
3.7150791e-05
3.7178959e-05
3.7209633e-05
3.724254e-05
3.7277373e-05
3.7313828e-05
3.7351598e-05
3.7390372e-05
3.7429847e-05
3.7469725e-05
3.7509736e-05
3.7549603e-05
3.7589082e-05
3.7627949e-05
3.7666e-05
3.770305e-05
3.7738953e-05
3.7773567e-05
3.7806783e-05
3.7838513e-05
3.7868691e-05
3.7897266e-05
3.7924218e-05
3.7949524e-05
3.797319e-05
3.7995233e-05
3.8015681e-05
3.8034569e-05
3.8051958e-05
3.8067896e-05
3.8082451e-05
3.8095692e-05
3.8107692e-05
3.8118524e-05
3.8128273e-05
3.8137001e-05
3.8142308e-05
3.6789475e-05
3.6830532e-05
3.6869959e-05
3.6905476e-05
3.6936563e-05
3.6963235e-05
3.6985232e-05
3.7002713e-05
3.7015606e-05
3.7024244e-05
3.7028732e-05
3.7029573e-05
3.7027032e-05
3.7021765e-05
3.7014176e-05
3.7005039e-05
3.6994858e-05
3.6984483e-05
3.6974464e-05
3.6965668e-05
3.6958629e-05
3.6954162e-05
3.695272e-05
3.6954999e-05
3.69613e-05
3.6972139e-05
3.6987611e-05
3.7008004e-05
3.7033175e-05
3.7063162e-05
3.7097576e-05
3.713618e-05
3.7178517e-05
3.7223923e-05
3.7271926e-05
3.732169e-05
3.7372644e-05
3.7423893e-05
3.7474842e-05
3.7524606e-05
3.7572633e-05
3.7618121e-05
3.7660558e-05
3.7684027e-05
3.7644742e-05
3.7602729e-05
3.7558588e-05
3.7512942e-05
3.7466389e-05
3.7419529e-05
3.7372946e-05
3.7327202e-05
3.728283e-05
3.724035e-05
3.7200226e-05
3.71629e-05
3.7128774e-05
3.7098208e-05
3.7071513e-05
3.7048971e-05
3.7030793e-05
3.7017156e-05
3.7008181e-05
3.7003943e-05
3.7004464e-05
3.7009713e-05
3.7019628e-05
3.7034081e-05
3.7052915e-05
3.7075932e-05
3.71029e-05
3.7133552e-05
3.712463e-05
3.7096157e-05
3.7071219e-05
3.7050021e-05
3.7032731e-05
3.7019469e-05
3.7010337e-05
3.7005366e-05
3.7004576e-05
3.7007938e-05
3.701539e-05
3.7026832e-05
3.7042129e-05
3.7061112e-05
3.7083581e-05
3.7109304e-05
3.7138021e-05
3.7169447e-05
3.7203291e-05
3.7239224e-05
3.7276925e-05
3.7316062e-05
3.7356305e-05
3.7397328e-05
3.7438812e-05
3.7480467e-05
3.7521998e-05
3.7563146e-05
3.760367e-05
3.7643353e-05
3.7681999e-05
3.7719454e-05
3.7755566e-05
3.7790221e-05
3.7823328e-05
3.7854814e-05
3.7884628e-05
3.7912751e-05
3.7939157e-05
3.7963855e-05
3.7986862e-05
3.800821e-05
3.8027938e-05
3.8046112e-05
3.8062783e-05
3.8078027e-05
3.8091922e-05
3.810455e-05
3.8115994e-05
3.8126353e-05
3.8135699e-05
3.8141645e-05
3.6777367e-05
3.6821194e-05
3.6863026e-05
3.6900549e-05
3.6933201e-05
3.6960975e-05
3.698359e-05
3.7001196e-05
3.701372e-05
3.7021506e-05
3.7024676e-05
3.7023759e-05
3.701906e-05
3.7011279e-05
3.7000873e-05
3.6988682e-05
3.6975278e-05
3.6961586e-05
3.6948237e-05
3.6936179e-05
3.6926033e-05
3.6918696e-05
3.69147e-05
3.6914815e-05
3.691941e-05
3.6929056e-05
3.6943894e-05
3.6964242e-05
3.6989972e-05
3.7021125e-05
3.7057296e-05
3.7098219e-05
3.7143393e-05
3.7192102e-05
3.7243807e-05
3.7297603e-05
3.7352842e-05
3.7408552e-05
3.7464059e-05
3.7518401e-05
3.7570956e-05
3.7620852e-05
3.7667516e-05
3.7693935e-05
3.765058e-05
3.7604424e-05
3.7556129e-05
3.7506371e-05
3.74558e-05
3.7405064e-05
3.735479e-05
3.7305578e-05
3.7257995e-05
3.7212591e-05
3.7169854e-05
3.7130252e-05
3.7094203e-05
3.7062082e-05
3.703421e-05
3.7010878e-05
3.6992297e-05
3.6978645e-05
3.6970038e-05
3.6966541e-05
3.6968162e-05
3.6974855e-05
3.6986537e-05
3.7003055e-05
3.7024226e-05
3.7049824e-05
3.7079586e-05
3.7113214e-05
3.7102029e-05
3.707051e-05
3.7042717e-05
3.7018876e-05
3.6999167e-05
3.6983726e-05
3.6972663e-05
3.6966019e-05
3.6963821e-05
3.6966047e-05
3.6972632e-05
3.6983481e-05
3.6998453e-05
3.7017376e-05
3.7040038e-05
3.7066196e-05
3.7095577e-05
3.7127875e-05
3.7162781e-05
3.7199945e-05
3.7239021e-05
3.7279655e-05
3.7321491e-05
3.7364181e-05
3.7407385e-05
3.745079e-05
3.7494083e-05
3.7536987e-05
3.7579246e-05
3.7620629e-05
3.7660931e-05
3.7699987e-05
3.7737637e-05
3.7773763e-05
3.780827e-05
3.7841083e-05
3.7872148e-05
3.7901446e-05
3.7928954e-05
3.7954682e-05
3.7978649e-05
3.8000891e-05
3.8021451e-05
3.8040399e-05
3.8057794e-05
3.8073717e-05
3.8088256e-05
3.8101501e-05
3.8113546e-05
3.8124499e-05
3.8134446e-05
3.8141009e-05
3.6766439e-05
3.6813243e-05
3.6857655e-05
3.6897319e-05
3.6931629e-05
3.6960555e-05
3.6983794e-05
3.7001488e-05
3.7013563e-05
3.7020373e-05
3.7022058e-05
3.701918e-05
3.7012081e-05
3.7001511e-05
3.6987989e-05
3.697242e-05
3.6955454e-05
3.6938098e-05
3.6921071e-05
3.6905412e-05
3.6891833e-05
3.6881324e-05
3.6874503e-05
3.6872224e-05
3.6874927e-05
3.6883247e-05
3.6897372e-05
3.6917656e-05
3.6943986e-05
3.6976403e-05
3.7014485e-05
3.7057931e-05
3.7106192e-05
3.7158489e-05
3.7214211e-05
3.7272374e-05
3.7332245e-05
3.7392765e-05
3.7453174e-05
3.7512428e-05
3.7569825e-05
3.7624422e-05
3.7675579e-05
3.7704991e-05
3.7657293e-05
3.7606717e-05
3.7553987e-05
3.7499841e-05
3.7444982e-05
3.7390109e-05
3.7335891e-05
3.7282971e-05
3.723195e-05
3.7183408e-05
3.7137864e-05
3.7095806e-05
3.7057672e-05
3.7023853e-05
3.6994683e-05
3.6970458e-05
3.6951395e-05
3.693767e-05
3.6929395e-05
3.6926626e-05
3.6929357e-05
3.6937524e-05
3.6951023e-05
3.6969675e-05
3.6993271e-05
3.7021553e-05
3.7054226e-05
3.7090959e-05
3.7077616e-05
3.7042939e-05
3.70122e-05
3.6985641e-05
3.6963458e-05
3.6945798e-05
3.6932783e-05
3.6924462e-05
3.6920869e-05
3.6921983e-05
3.6927747e-05
3.693806e-05
3.6952781e-05
3.697173e-05
3.6994686e-05
3.7021392e-05
3.7051557e-05
3.7084859e-05
3.7120963e-05
3.7159497e-05
3.7200088e-05
3.7242357e-05
3.7285923e-05
3.7330412e-05
3.737546e-05
3.7420731e-05
3.7465893e-05
3.751065e-05
3.755473e-05
3.759789e-05
3.7639912e-05
3.7680623e-05
3.7719856e-05
3.775749e-05
3.7793423e-05
3.782758e-05
3.7859908e-05
3.7890388e-05
3.7918998e-05
3.794575e-05
3.7970669e-05
3.7993792e-05
3.8015168e-05
3.8034875e-05
3.8052975e-05
3.8069559e-05
3.8084722e-05
3.8098566e-05
3.8111191e-05
3.8122718e-05
3.8133244e-05
3.8140398e-05
3.6756848e-05
3.6806848e-05
3.6854025e-05
3.6895971e-05
3.6932041e-05
3.6962174e-05
3.6986048e-05
3.7003794e-05
3.7015339e-05
3.7021046e-05
3.7021076e-05
3.7016024e-05
3.7006273e-05
3.6992628e-05
3.6975669e-05
3.6956377e-05
3.6935484e-05
3.6914086e-05
3.6893e-05
3.6873364e-05
3.685599e-05
3.684197e-05
3.6832019e-05
3.6827081e-05
3.6827679e-05
3.6834516e-05
3.6847835e-05
3.6868025e-05
3.6894993e-05
3.6928778e-05
3.6968937e-05
3.701513e-05
3.7066752e-05
3.7122952e-05
3.7183039e-05
3.7245938e-05
3.7310823e-05
3.7376537e-05
3.7442226e-05
3.7506757e-05
3.756934e-05
3.7628954e-05
3.7684892e-05
3.77173e-05
3.7664955e-05
3.760965e-05
3.7552181e-05
3.7493346e-05
3.7433908e-05
3.7374615e-05
3.7316186e-05
3.7259302e-05
3.7204603e-05
3.7152701e-05
3.7104142e-05
3.705944e-05
3.7019054e-05
3.698339e-05
3.6952795e-05
3.6927574e-05
3.6907949e-05
3.6894095e-05
3.688612e-05
3.6884069e-05
3.6887925e-05
3.6897604e-05
3.6912979e-05
3.6933846e-05
3.6959964e-05
3.6991044e-05
3.7026757e-05
3.7066735e-05
3.7051328e-05
3.7013374e-05
3.697959e-05
3.6950233e-05
3.6925515e-05
3.6905595e-05
3.6890603e-05
3.6880597e-05
3.6875617e-05
3.6875649e-05
3.6880633e-05
3.6890471e-05
3.6905017e-05
3.6924084e-05
3.6947439e-05
3.6974811e-05
3.700589e-05
3.7040332e-05
3.7077779e-05
3.711783e-05
3.7160087e-05
3.7204139e-05
3.7249579e-05
3.7296006e-05
3.7343027e-05
3.7390286e-05
3.7437427e-05
3.7484137e-05
3.7530126e-05
3.7575139e-05
3.7618946e-05
3.7661366e-05
3.7702227e-05
3.7741401e-05
3.7778786e-05
3.7814306e-05
3.7847907e-05
3.7879573e-05
3.7909284e-05
3.7937056e-05
3.7962916e-05
3.798691e-05
3.8009089e-05
3.8029538e-05
3.8048328e-05
3.8065555e-05
3.8081325e-05
3.8095746e-05
3.8108932e-05
3.8121013e-05
3.8132094e-05
3.8139815e-05
3.6748813e-05
3.6802258e-05
3.685241e-05
3.6896802e-05
3.6934747e-05
3.6966154e-05
3.6990678e-05
3.7008438e-05
3.7019363e-05
3.7023825e-05
3.7022011e-05
3.7014545e-05
3.7001859e-05
3.6984815e-05
3.6964061e-05
3.6940659e-05
3.6915429e-05
3.6889568e-05
3.6863996e-05
3.683996e-05
3.6818386e-05
3.6800475e-05
3.678705e-05
3.6779157e-05
3.6777408e-05
3.6782583e-05
3.6794986e-05
3.6815047e-05
3.6842693e-05
3.6877959e-05
3.6920378e-05
3.6969565e-05
3.702485e-05
3.7085304e-05
3.7150142e-05
3.7218187e-05
3.7288507e-05
3.735984e-05
3.7431227e-05
3.7501435e-05
3.7569582e-05
3.7634564e-05
3.7695597e-05
3.7730959e-05
3.767363e-05
3.7613261e-05
3.7550719e-05
3.7486871e-05
3.7422538e-05
3.7358524e-05
3.7295594e-05
3.7234475e-05
3.7175842e-05
3.7120343e-05
3.7068552e-05
3.7021009e-05
3.6978193e-05
3.694053e-05
3.690838e-05
3.6882058e-05
3.6861789e-05
3.6847751e-05
3.6840048e-05
3.6838714e-05
3.6843717e-05
3.6854956e-05
3.6872279e-05
3.6895453e-05
3.6924206e-05
3.6958214e-05
3.6997111e-05
3.7040493e-05
3.7023106e-05
3.6981746e-05
3.6944809e-05
3.6912569e-05
3.6885249e-05
3.6863021e-05
3.6846024e-05
3.6834324e-05
3.6827965e-05
3.6826938e-05
3.6831187e-05
3.6840611e-05
3.6855061e-05
3.687434e-05
3.6898205e-05
3.6926369e-05
3.69585e-05
3.6994231e-05
3.7033176e-05
3.7074905e-05
3.7118989e-05
3.7164985e-05
3.7212455e-05
3.7260968e-05
3.7310105e-05
3.7359483e-05
3.7408723e-05
3.7457492e-05
3.7505485e-05
3.7552432e-05
3.7598094e-05
3.764228e-05
3.7684814e-05
3.7725564e-05
3.7764426e-05
3.7801325e-05
3.7836208e-05
3.7869061e-05
3.7899869e-05
3.7928652e-05
3.7955442e-05
3.7980289e-05