/*--------------------------------*- C++ -*----------------------------------*\
| =========                 |                                                 |
| \\      /  F ield         | foam-extend: Open Source CFD                    |
|  \\    /   O peration     | Version:     4.1                                |
|   \\  /    A nd           | Web:         http://www.foam-extend.org         |
|    \\/     M anipulation  |                                                 |
\*---------------------------------------------------------------------------*/
FoamFile
{
    version     2.0;
    format      ascii;
    class       volScalarField;
    location    "0.05";
    object      rAU;
}
// * * * * * * * * * * * * * * * * * * * * * * * * * * * * * * * * * * * * * //

dimensions      [0 0 1 0 0 0 0];

internalField   nonuniform List<scalar> 
16796
(
0.00013491935
0.00013457795
0.00013426416
0.0001339502
0.00013363498
0.00013332012
0.0001330038
0.00013268733
0.00013236874
0.00013204926
0.00013172691
0.0001314029
0.00013107522
0.00013074508
0.00013041049
0.00013007267
0.00012972963
0.00012938262
0.00012902968
0.00012867208
0.00012830792
0.0001279385
0.00012756199
0.00012717975
0.00012679003
0.00012639425
0.00012599079
0.00012558117
0.00012516386
0.00012474051
0.00012430974
0.00012387295
0.00012343045
0.0001229815
0.00012252811
0.00012206932
0.00012160732
0.00012114135
0.00012067375
0.00012020394
0.00011973445
0.00011926497
0.00011879766
0.00011833336
0.00011787343
0.00011741925
0.00011697219
0.00011653381
0.00011610547
0.0001156887
0.00011528499
0.00011489582
0.00011452262
0.00011416691
0.00011382997
0.00011351313
0.00011321765
0.00011294467
0.00011269523
0.00011247039
0.00011227088
0.00011209748
0.00011195076
0.0001118312
0.00011173912
0.00011167469
0.00011163806
0.00011162907
0.00011162907
0.00011164784
0.00011169453
0.00011176888
0.00011187037
0.00011199806
0.00011215102
0.00011232817
0.0001125283
0.00011275007
0.00011299218
0.00011325298
0.00011353099
0.00011382451
0.00011413184
0.00011445119
0.00011478076
0.0001151187
0.00011546317
0.00011581228
0.0001161642
0.00011651705
0.00011686916
0.0001172187
0.00011756402
0.00011790354
0.00011823577
0.0001185593
0.00011887281
0.00011917524
0.00011946542
0.00011974246
0.00012000555
0.00012025401
0.00012048724
0.00012070489
0.00012090652
0.00012109192
0.00012126096
0.00012141358
0.00012154976
0.00012166972
0.0001217735
0.00012186134
0.00012193351
0.0001219903
0.00012203201
0.00012205913
0.00012207091
0.0001220566
0.0001220296
0.00012199082
0.00012194161
0.00012188297
0.00012181206
0.000121704
0.00012177087
0.00012156466
0.00012139231
0.00012122129
0.00012104917
0.00012087691
0.0001207026
0.0001205274
0.00012034948
0.00012016997
0.00011998705
0.00011980187
0.00011961257
0.00011942031
0.00011922326
0.00011902257
0.00011881642
0.00011860598
0.00011838947
0.00011816808
0.00011794005
0.00011770664
0.00011746613
0.00011721982
0.00011696609
0.0001167063
0.00011643892
0.00011616541
0.00011588435
0.0001155973
0.00011530297
0.0001150027
0.00011469678
0.00011438453
0.00011406785
0.00011374586
0.00011342061
0.0001130914
0.00011276045
0.00011242721
0.00011209408
0.00011176077
0.00011142932
0.00011110053
0.00011077569
0.00011045611
0.00011014308
0.00010983809
0.00010954241
0.0001092575
0.00010898477
0.00010872562
0.00010848139
0.00010825354
0.00010804325
0.00010785181
0.00010768039
0.00010753007
0.00010740182
0.00010729666
0.00010721526
0.00010715834
0.00010712646
0.00010712005
0.00010713942
0.00010718468
0.00010724403
0.00010728982
0.00010734411
0.00010741534
0.00010751141
0.000107632
0.00010777691
0.00010794557
0.00010813746
0.00010835186
0.00010858798
0.00010884485
0.00010912155
0.00010941683
0.00010972954
0.00011005839
0.00011040197
0.00011075889
0.00011112762
0.00011150664
0.00011189439
0.00011228925
0.00011268962
0.00011309385
0.00011350045
0.00011390776
0.00011431425
0.00011471846
0.00011511895
0.00011551437
0.0001159034
0.00011628498
0.00011665789
0.00011702118
0.00011737395
0.00011771541
0.00011804484
0.00011836174
0.00011866553
0.00011895583
0.00011923233
0.00011949481
0.00011974307
0.00011997713
0.00012019686
0.00012040231
0.00012059356
0.00012077073
0.00012093391
0.0001210834
0.00012121828
0.00012132763
0.0001214243
0.00012150866
0.00012158122
0.00012163433
0.00012166442
0.00012167828
0.00011952604
0.00011935911
0.00011922304
0.00011908916
0.00011895437
0.0001188193
0.0001186819
0.00011854324
0.00011840146
0.00011825767
0.00011811005
0.00011795975
0.00011780493
0.00011764674
0.00011748338
0.000117316
0.00011714281
0.00011696498
0.00011678075
0.00011659133
0.00011639499
0.00011619299
0.00011598366
0.00011576831
0.00011554535
0.00011531617
0.00011507927
0.00011483613
0.00011458538
0.0001143286
0.00011406454
0.00011379457
0.00011351902
0.00011323724
0.00011295118
0.00011265996
0.0001123657
0.00011206771
0.00011176823
0.00011146677
0.00011116571
0.00011086482
0.00011056612
0.00011027044
0.00010997908
0.00010969334
0.00010941451
0.00010914406
0.00010888326
0.00010863353
0.00010839626
0.00010817281
0.00010796448
0.00010777266
0.00010759849
0.0001074432
0.00010730786
0.0001071935
0.00010710101
0.00010703129
0.00010698495
0.0001069626
0.0001069647
0.00010699158
0.00010704343
0.00010712028
0.00010714769
0.00010714705
0.00010717133
0.00010722075
0.00010729537
0.00010739506
0.00010751973
0.00010766892
0.00010784222
0.00010803901
0.00010825858
0.00010850006
0.00010876262
0.00010904505
0.00010934628
0.00010966507
0.00011000006
0.00011034988
0.00011071304
0.00011108803
0.00011147327
0.00011186716
0.00011226805
0.00011267429
0.00011308432
0.00011349642
0.00011390902
0.00011432056
0.00011472954
0.00011513451
0.00011553407
0.00011592704
0.00011631213
0.00011668827
0.00011705448
0.00011740986
0.0001177536
0.00011808513
0.00011840377
0.00011870908
0.00011900067
0.00011927825
0.00011954158
0.00011979063
0.0001200252
0.00012024534
0.00012045109
0.00012064251
0.0001208197
0.00012098291
0.00012113219
0.00012126776
0.00012138972
0.00012149795
0.00012159232
0.00012166549
0.00012171483
0.00012172936
0.00011901439
0.00011886234
0.0001187369
0.00011861285
0.00011848753
0.00011836162
0.00011823306
0.00011810289
0.00011796921
0.00011783314
0.00011769283
0.00011754942
0.00011740108
0.00011724896
0.00011709125
0.0001169291
0.00011676072
0.00011658729
0.00011640707
0.00011622124
0.00011602812
0.00011582896
0.00011562211
0.00011540889
0.00011518774
0.00011496006
0.0001147244
0.00011448225
0.00011423228
0.0001139761
0.00011371251
0.00011344291
0.0001131677
0.00011288626
0.00011260059
0.00011230989
0.00011201632
0.00011171925
0.00011142101
0.00011112114
0.00011082212
0.00011052376
0.00011022818
0.00010993624
0.00010964933
0.00010936881
0.00010909602
0.0001088325
0.00010857957
0.0001083387
0.00010811131
0.0001078988
0.00010770249
0.0001075238
0.00010736388
0.00010722394
0.00010710507
0.00010700825
0.00010693435
0.00010688424
0.00010685845
0.00010685754
0.0001068819
0.00010693177
0.00010700725
0.00010709571
0.00010705916
0.00010703409
0.0001070343
0.00010706012
0.00010711173
0.00010718913
0.00010729231
0.00010742093
0.00010757467
0.000107753
0.00010795529
0.00010818074
0.00010842858
0.00010869766
0.00010898698
0.00010929531
0.00010962135
0.00010996373
0.00011032098
0.00011069159
0.00011107398
0.00011146652
0.00011186754
0.00011227533
0.00011268831
0.00011310468
0.0001135228
0.00011394105
0.00011435782
0.00011477159
0.00011518086
0.00011558436
0.00011598069
0.00011636871
0.00011674732
0.00011711556
0.00011747251
0.00011781753
0.00011814985
0.00011846898
0.00011877447
0.00011906595
0.00011934315
0.00011960598
0.00011985423
0.00012008789
0.00012030697
0.00012051153
0.00012070163
0.00012087748
0.00012103912
0.00012118672
0.0001213203
0.00012143972
0.000121545
0.00012163652
0.00012171315
0.00012173819
0.0001188147
0.00011866884
0.00011854696
0.00011842553
0.00011830232
0.00011817815
0.00011805102
0.00011792193
0.00011778902
0.00011765337
0.00011751313
0.00011736944
0.00011722046
0.00011706734
0.00011690826
0.00011674437
0.0001165739
0.00011639801
0.00011621497
0.00011602598
0.00011582936
0.00011562635
0.00011541535
0.00011519768
0.0001149718
0.00011473914
0.00011449827
0.0001142507
0.00011399516
0.00011373328
0.00011346392
0.00011318852
0.00011290752
0.00011262038
0.00011232914
0.00011203309
0.00011173442
0.00011143262
0.00011113005
0.00011082635
0.00011052407
0.00011022311
0.00010992566
0.00010963266
0.00010934559
0.00010906585
0.0001087949
0.00010853431
0.00010828547
0.00010804991
0.0001078291
0.00010762446
0.00010743737
0.00010726925
0.00010712126
0.00010699461
0.00010689038
0.00010680952
0.00010675286
0.00010672122
0.00010671508
0.00010673492
0.00010678103
0.00010685357
0.00010695252
0.00010702709
0.00010695241
0.00010690279
0.00010687889
0.00010688114
0.00010690985
0.00010696514
0.00010704711
0.00010715553
0.00010729012
0.00010745048
0.00010763603
0.00010784604
0.0001080798
0.00010833623
0.00010861433
0.00010891293
0.00010923075
0.00010956644
0.00010991853
0.00011028551
0.00011066579
0.00011105771
0.00011145957
0.00011186961
0.00011228618
0.00011270744
0.00011313167
0.00011355715
0.00011398222
0.00011440524
0.00011482463
0.00011523901
0.00011564691
0.00011604708
0.00011643833
0.0001168196
0.00011718991
0.00011754853
0.00011789462
0.00011822762
0.00011854703
0.00011885243
0.00011914349
0.0001194201
0.000119682
0.00011992916
0.00012016156
0.00012037924
0.00012058222
0.00012077072
0.00012094473
0.00012110436
0.00012124959
0.00012138031
0.00012149652
0.00012159791
0.00012168299
0.00012172056
0.00011866631
0.00011852381
0.00011840381
0.00011828346
0.00011816082
0.00011803683
0.00011790954
0.00011778
0.00011764631
0.00011750957
0.00011736793
0.00011722251
0.00011707147
0.00011691595
0.00011675414
0.00011658719
0.00011641332
0.0001162337
0.00011604659
0.00011585321
0.00011565187
0.00011544385
0.00011522753
0.00011500426
0.00011477252
0.00011453375
0.00011428656
0.00011403249
0.00011377029
0.00011350163
0.00011322542
0.00011294314
0.00011265529
0.00011236138
0.00011206351
0.00011176103
0.00011145621
0.00011114859
0.00011084063
0.00011053204
0.00011022543
0.00010992081
0.00010962042
0.00010932531
0.00010903701
0.00010875704
0.00010848689
0.00010822822
0.00010798248
0.00010775127
0.00010753609
0.00010733843
0.00010715968
0.0001070013
0.00010686447
0.00010675038
0.00010666012
0.00010659462
0.00010655468
0.00010654106
0.00010655419
0.00010659448
0.00010666214
0.00010675725
0.00010687967
0.00010692794
0.00010682814
0.0001067538
0.00010670569
0.00010668439
0.00010669031
0.00010672368
0.00010678472
0.00010687326
0.00010698914
0.00010713201
0.00010730137
0.00010749654
0.00010771687
0.00010796131
0.00010822891
0.00010851852
0.00010882888
0.00010915864
0.00010950635
0.00010987048
0.0001102494
0.00011064145
0.00011104487
0.00011145786
0.00011187871
0.00011230549
0.00011273642
0.0001131697
0.00011360356
0.00011403628
0.00011446619
0.00011489181
0.00011531156
0.0001157241
0.00011612816
0.00011652259
0.00011690632
0.00011727856
0.00011763839
0.0001179852
0.00011831842
0.0001186376
0.00011894236
0.00011923255
0.0001195079
0.00011976834
0.00012001385
0.00012024443
0.00012046012
0.00012066112
0.00012084739
0.00012101904
0.00012117605
0.00012131836
0.00012144592
0.00012155795
0.00012165347
0.00012170396
0.00011852299
0.00011838265
0.00011826409
0.0001181446
0.00011802234
0.00011789835
0.00011777074
0.00011764055
0.00011750591
0.0001173679
0.00011722469
0.00011707738
0.00011692413
0.00011676608
0.00011660141
0.00011643126
0.00011625387
0.0001160704
0.00011587912
0.00011568124
0.00011547508
0.00011526192
0.00011504017
0.00011481118
0.00011457345
0.00011432843
0.00011407476
0.00011381401
0.00011354495
0.0001132693
0.00011298601
0.00011269659
0.00011240159
0.00011210059
0.00011179572
0.00011148643
0.00011117502
0.00011086113
0.00011054727
0.00011023325
0.00010992175
0.00010961285
0.0001093089
0.000109011
0.00010872079
0.00010843985
0.00010816976
0.00010791226
0.00010766886
0.00010744123
0.00010723093
0.0001070395
0.00010686838
0.00010671905
0.0001065927
0.00010649057
0.00010641372
0.00010636309
0.00010633943
0.00010634347
0.0001063756
0.00010643616
0.00010652529
0.00010664296
0.00010678894
0.00010681211
0.00010668687
0.00010658758
0.00010651514
0.00010647024
0.00010645343
0.00010646504
0.00010650537
0.00010657436
0.00010667192
0.00010679777
0.00010695146
0.00010713238
0.00010733991
0.00010757304
0.00010783085
0.00010811221
0.00010841587
0.00010874049
0.00010908461
0.00010944667
0.00010982505
0.00011021802
0.00011062378
0.00011104048
0.00011146635
0.00011189937
0.00011233769
0.00011277941
0.00011322267
0.00011366566
0.00011410659
0.00011454391
0.00011497592
0.0001154012
0.00011581838
0.00011622623
0.0001166236
0.00011700961
0.00011738331
0.000117744
0.00011809107
0.00011842402
0.00011874245
0.00011904616
0.00011933486
0.00011960847
0.00011986694
0.00012011028
0.0001203385
0.00012055179
0.00012075014
0.00012093364
0.0001211023
0.0001212561
0.00012139498
0.00012151799
0.00012162491
0.00012168866
0.00011837634
0.00011823796
0.0001181208
0.00011800223
0.00011788046
0.00011775661
0.0001176288
0.00011749809
0.00011736262
0.00011722348
0.00011707882
0.00011692974
0.00011677442
0.00011661396
0.00011644657
0.00011627337
0.00011609259
0.0001159054
0.00011571007
0.0001155078
0.00011529694
0.00011507875
0.00011485166
0.00011461701
0.00011437334
0.00011412211
0.00011386198
0.00011359453
0.00011331858
0.00011303587
0.00011274538
0.00011244868
0.00011214635
0.00011183803
0.00011152591
0.00011120948
0.00011089113
0.00011057057
0.00011025037
0.00010993042
0.00010961348
0.00010929972
0.00010899157
0.00010869023
0.0001083974
0.00010811476
0.00010784399
0.00010758688
0.00010734505
0.00010712021
0.000106914
0.00010672803
0.00010656377
0.00010642277
0.00010630623
0.00010621542
0.0001061514
0.00010611511
0.00010610728
0.00010612863
0.00010617949
0.00010626013
0.00010637063
0.00010651088
0.00010668055
0.00010668006
0.00010652901
0.0001064045
0.00010630754
0.00010623898
0.00010619945
0.00010618941
0.00010620924
0.00010625896
0.00010633857
0.00010644783
0.00010658636
0.00010675358
0.00010694892
0.0001071714
0.00010742013
0.00010769397
0.00010799169
0.00010831194
0.00010865325
0.00010901405
0.00010939267
0.00010978735
0.00011019625
0.00011061743
0.00011104905
0.00011148903
0.00011193542
0.00011238622
0.00011283949
0.00011329329
0.00011374576
0.00011419521
0.00011463988
0.00011507823
0.00011550881
0.00011593029
0.00011634146
0.00011674138
0.00011712901
0.0001175036
0.00011786451
0.00011821119
0.00011854321
0.00011886035
0.00011916229
0.00011944894
0.00011972026
0.00011997623
0.00012021688
0.00012044239
0.00012065276
0.00012084809
0.00012102842
0.00012119379
0.00012134412
0.00012147843
0.00012159726
0.0001216742
0.00011822557
0.00011808896
0.0001179732
0.00011785565
0.00011773453
0.00011761097
0.00011748312
0.00011735206
0.00011721593
0.00011707582
0.00011692989
0.00011677921
0.00011662198
0.00011645929
0.00011628934
0.00011611325
0.00011592926
0.0001157385
0.00011553927
0.00011533277
0.00011511733
0.00011489423
0.0001146619
0.0001144217
0.00011417216
0.00011391476
0.00011364819
0.00011337404
0.00011309115
0.0001128013
0.00011250351
0.00011219937
0.00011188952
0.00011157364
0.00011125398
0.0001109301
0.00011060444
0.00011027677
0.00010994975
0.00010962335
0.00010930041
0.00010898118
0.00010866818
0.0001083627
0.00010806654
0.00010778145
0.00010750921
0.00010725171
0.00010701064
0.00010678779
0.00010658489
0.00010640359
0.00010624545
0.00010611204
0.00010600464
0.00010592451
0.00010587276
0.00010585032
0.00010585791
0.00010589623
0.00010596557
0.00010606616
0.000106198
0.00010636089
0.00010655441
0.00010653196
0.00010635468
0.00010620461
0.00010608292
0.00010599056
0.0001059283
0.00010589667
0.00010589617
0.00010592689
0.00010598888
0.00010608197
0.00010620583
0.00010635992
0.00010654368
0.00010675616
0.00010699649
0.00010726355
0.00010755609
0.00010787276
0.00010821208
0.00010857244
0.00010895213
0.00010934936
0.00010976221
0.00011018869
0.00011062688
0.0001110746
0.00011152981
0.00011199042
0.00011245436
0.00011291962
0.0001133842
0.00011384633
0.00011430412
0.00011475595
0.00011520029
0.00011563571
0.00011606092
0.00011647492
0.0001168766
0.00011726518
0.00011763995
0.00011800035
0.0001183459
0.00011867637
0.00011899144
0.00011929099
0.00011957498
0.0001198434
0.00012009629
0.00012033385
0.00012055607
0.00012076309
0.00012095501
0.00012113189
0.0001212937
0.00012143951
0.00012157042
0.00012166035
0.00011807055
0.00011793582
0.00011782156
0.00011770515
0.00011758483
0.00011746174
0.00011733404
0.00011720281
0.0001170662
0.00011692531
0.00011677828
0.0001166262
0.00011646725
0.00011630251
0.00011613019
0.00011595139
0.00011576435
0.00011557021
0.00011536725
0.00011515666
0.0001149368
0.00011470892
0.00011447146
0.00011422579
0.00011397046
0.00011370694
0.00011343394
0.00011315307
0.00011286321
0.00011256613
0.00011226091
0.00011194918
0.00011163159
0.00011130791
0.00011098041
0.00011064872
0.00011031533
0.00010998011
0.00010964577
0.00010931237
0.00010898281
0.00010865747
0.00010833893
0.00010802858
0.00010772831
0.00010743999
0.00010716547
0.00010690674
0.00010666559
0.00010644389
0.00010624346
0.00010606603
0.00010591322
0.00010578667
0.0001056877
0.00010561762
0.00010557756
0.00010556847
0.00010559107
0.00010564604
0.00010573364
0.00010585405
0.00010600721
0.00010619285
0.00010641044
0.000106368
0.000106164
0.000105988
0.0001058413
0.00010572498
0.00010563992
0.00010558675
0.00010556606
0.00010557801
0.0001056227
0.00010570002
0.00010580967
0.00010595115
0.00010612392
0.00010632706
0.00010655968
0.00010682067
0.00010710879
0.00010742267
0.00010776079
0.00010812154
0.00010850314
0.00010890375
0.0001093214
0.00010975402
0.00011019959
0.00011065585
0.00011112065
0.0001115918
0.00011206712
0.00011254448
0.00011302177
0.00011349712
0.00011396852
0.00011443427
0.00011489272
0.00011534238
0.00011578188
0.00011621014
0.00011662602
0.00011702866
0.00011741734
0.00011779145
0.00011815049
0.00011849423
0.00011882232
0.00011913465
0.00011943118
0.00011971193
0.00011997691
0.00012022637
0.00012046031
0.00012067892
0.00012088233
0.00012107066
0.00012124394
0.00012140129
0.00012154428
0.00012164697
0.00011791168
0.00011777884
0.00011766615
0.00011755101
0.00011743165
0.00011730918
0.00011718179
0.00011705057
0.00011691368
0.00011677218
0.00011662425
0.00011647095
0.00011631046
0.00011614387
0.00011596936
0.00011578804
0.00011559813
0.00011540077
0.00011519425
0.00011497973
0.00011475558
0.00011452304
0.00011428058
0.00011402953
0.00011376847
0.00011349887
0.00011321946
0.00011293185
0.00011263496
0.00011233057
0.00011201779
0.00011169827
0.00011137274
0.00011104097
0.0001107053
0.00011036542
0.00011002389
0.00010968064
0.00010933844
0.00010899745
0.00010866065
0.00010832852
0.00010800371
0.00010768773
0.00010738256
0.00010709018
0.00010681253
0.00010655171
0.00010630961
0.00010608821
0.0001058894
0.000105715
0.00010556672
0.00010544627
0.00010535502
0.00010529435
0.00010526541
0.00010526917
0.00010530638
0.00010537769
0.00010548335
0.00010562349
0.000105798
0.00010600653
0.00010624845
0.00010618827
0.000105957
0.00010575463
0.00010558259
0.0001054421
0.00010533413
0.00010525944
0.00010521866
0.00010521204
0.00010523973
0.00010530166
0.00010539756
0.00010552696
0.00010568933
0.00010588375
0.00010610935
0.00010636501
0.00010664948
0.00010696136
0.00010729912
0.00010766109
0.00010804547
0.00010845034
0.00010887367
0.00010931329
0.00010976711
0.00011023276
0.00011070798
0.00011119047
0.00011167792
0.00011216809
0.00011265876
0.00011314792
0.00011363348
0.00011411361
0.00011458658
0.00011505083
0.00011550489
0.00011594763
0.00011637785
0.00011679465
0.00011719727
0.00011758508
0.00011795757
0.00011831448
0.00011865547
0.00011898044
0.00011928936
0.00011958224
0.00011985914
0.00012012032
0.00012036582
0.00012059586
0.00012081063
0.00012101031
0.00012119499
0.00012136383
0.0001215188
0.00012163399
0.00011774913
0.00011761834
0.00011750735
0.00011739361
0.00011727534
0.00011715367
0.00011702677
0.00011689574
0.00011675873
0.00011661682
0.00011646817
0.00011631385
0.00011615202
0.00011598375
0.00011580725
0.00011562359
0.000115431
0.0001152306
0.00011502068
0.00011480239
0.0001145741
0.00011433704
0.00011408967
0.00011383334
0.00011356662
0.00011329098
0.00011300516
0.0001127108
0.0001124068
0.000112095
0.00011177451
0.00011144702
0.00011111329
0.00011077315
0.00011042897
0.00011008051
0.00010973037
0.00010937857
0.00010902795
0.00010867876
0.00010833406
0.0001079944
0.00010766257
0.00010734015
0.00010702925
0.00010673194
0.00010645028
0.00010618648
0.00010594252
0.0001057205
0.00010552242
0.0001053502
0.00010520562
0.00010509049
0.00010500624
0.00010495431
0.00010493591
0.00010495203
0.00010500344
0.0001050908
0.00010521433
0.00010537414
0.00010557006
0.00010580166
0.00010606823
0.00010599283
0.00010573368
0.00010550444
0.00010530669
0.00010514177
0.00010501077
0.00010491451
0.00010485373
0.00010482872
0.00010483969
0.0001048866
0.00010496919
0.00010508702
0.00010523957
0.00010542591
0.00010564517
0.00010589623
0.0001061778
0.00010648849
0.00010682671
0.00010719077
0.0001075788
0.00010798882
0.00010841872
0.00010886626
0.00010932923
0.00010980515
0.00011029166
0.00011078631
0.00011128669
0.00011179041
0.00011229514
0.00011279875
0.00011329903
0.00011379405
0.00011428198
0.00011476118
0.0001152301
0.00011568755
0.00011613228
0.00011656336
0.00011697997
0.00011738149
0.00011776738
0.00011813738
0.00011849116
0.00011882864
0.00011914977
0.00011945461
0.00011974325
0.00012001596
0.00012027283
0.00012051414
0.00012074011
0.00012095099
0.00012114695
0.00012132716
0.00012149393
0.00012162134
0.00011758324
0.00011745457
0.0001173454
0.0001172332
0.00011711617
0.00011699545
0.00011686922
0.00011673855
0.00011660161
0.00011645947
0.0001163103
0.00011615513
0.00011599215
0.00011582242
0.00011564411
0.0001154583
0.00011526322
0.00011505996
0.00011484681
0.00011462492
0.00011439263
0.00011415118
0.00011389903
0.0001136375
0.00011336518
0.00011308355
0.00011279133
0.00011249018
0.00011217902
0.00011185968
0.00011153133
0.00011119567
0.00011085349
0.00011050466
0.00011015161
0.00010979415
0.00010943493
0.00010907405
0.00010871442
0.00010835638
0.00010800307
0.00010765515
0.00010731549
0.0001069858
0.00010666829
0.00010636515
0.00010607855
0.00010581082
0.00010556407
0.00010534051
0.00010514224
0.00010497129
0.00010482956
0.00010471894
0.00010464095
0.00010459709
0.00010458863
0.00010461662
0.00010468184
0.00010478496
0.00010492621
0.00010510564
0.00010532306
0.00010557795
0.00010586952
0.0001057817
0.00010549401
0.00010523735
0.00010501346
0.00010482381
0.00010466958
0.00010455171
0.00010447098
0.00010442775
0.00010442226
0.00010445449
0.00010452422
0.00010463098
0.00010477428
0.00010495317
0.00010516678
0.00010541396
0.00010569342
0.00010600372
0.00010634325
0.00010671026
0.00010710285
0.00010751895
0.00010795636
0.00010841276
0.00010888582
0.00010937295
0.00010987165
0.00011037935
0.0001108935
0.00011141157
0.0001119311
0.00011244983
0.00011296545
0.0001134759
0.00011397926
0.00011447379
0.00011495789
0.0001154303
0.00011588972
0.00011633517
0.00011676584
0.00011718106
0.0001175803
0.00011796331
0.00011832975
0.00011867956
0.00011901273
0.00011932934
0.00011962951
0.00011991354
0.00012018159
0.00012043395
0.00012067093
0.00012089282
0.0001210999
0.00012129131
0.00012146966
0.00012160903
0.00011741423
0.00011728783
0.00011718061
0.00011707008
0.00011695445
0.00011683484
0.00011670943
0.00011657931
0.00011644263
0.00011630045
0.00011615094
0.00011599514
0.0001158312
0.00011566019
0.00011548027
0.00011529252
0.00011509513
0.0001148892
0.000114673
0.00011444766
0.00011421154
0.00011396584
0.00011370902
0.00011344239
0.00011316455
0.00011287695
0.00011257834
0.00011227036
0.00011195197
0.00011162499
0.00011128861
0.00011094457
0.00011059366
0.00011023583
0.00010987353
0.00010950662
0.00010913782
0.0001087673
0.00010839804
0.00010803047
0.00010766781
0.00010731084
0.00010696252
0.00010662468
0.00010629965
0.00010598972
0.00010569722
0.00010542458
0.00010517405
0.00010494796
0.00010474855
0.00010457795
0.00010443818
0.00010433123
0.00010425872
0.00010422225
0.00010422313
0.00010426247
0.00010434111
0.00010445972
0.00010461852
0.00010481757
0.00010505661
0.00010533506
0.00010565203
0.00010555489
0.00010523791
0.00010495323
0.00010470272
0.00010448799
0.00010431033
0.00010417075
0.00010407011
0.0001040088
0.0001039871
0.000104005
0.00010406228
0.00010415849
0.0001042931
0.00010446518
0.00010467381
0.00010491785
0.00010519597
0.0001055067
0.0001058484
0.00010621927
0.00010661733
0.00010704045
0.00010748635
0.00010795259
0.00010843672
0.00010893604
0.00010944789
0.00010996957
0.00011049837
0.00011103164
0.00011156676
0.00011210134
0.00011263293
0.00011315938
0.00011367866
0.00011418895
0.00011468857
0.00011517619
0.00011565049
0.00011611044
0.00011655522
0.00011698414
0.00011739668
0.00011779259
0.00011817156
0.00011853354
0.00011887856
0.00011920672
0.00011951819
0.00011981332
0.00012009229
0.00012035548
0.00012060324
0.00012083594
0.00012105392
0.0001212563
0.00012144599
0.00012159702
0.00011724236
0.00011711835
0.00011701321
0.0001169045
0.00011679042
0.00011667208
0.00011654768
0.00011641827
0.00011628203
0.00011614001
0.00011599035
0.00011583411
0.00011566943
0.00011549734
0.00011531602
0.00011512651
0.00011492702
0.00011471861
0.00011449954
0.00011427094
0.00011403113
0.00011378133
0.00011351995
0.00011324833
0.00011296503
0.00011267151
0.00011236652
0.00011205169
0.00011172598
0.00011139124
0.00011104667
0.00011069402
0.00011033412
0.00010996695
0.00010959499
0.00010921818
0.00010883928
0.00010845854
0.000108079
0.00010770118
0.00010732841
0.00010696157
0.00010660372
0.00010625681
0.00010592328
0.00010560559
0.00010530617
0.0001050276
0.00010477227
0.00010454263
0.00010434107
0.00010416985
0.00010403112
0.00010392697
0.00010385916
0.00010382934
0.00010383894
0.00010388914
0.00010398079
0.00010411462
0.00010429084
0.00010450951
0.00010477032
0.00010507263
0.00010541546
0.00010531239
0.00010496532
0.00010465193
0.00010437428
0.00010413407
0.00010393273
0.00010377133
0.00010365079
0.00010357153
0.00010353386
0.00010353777
0.00010358303
0.00010366918
0.00010379568
0.00010396157
0.00010416592
0.00010440755
0.00010468511
0.00010499711
0.00010534185
0.00010571748
0.00010612197
0.0001065531
0.00010700849
0.00010748559
0.00010798183
0.00010849435
0.00010902037
0.00010955701
0.00011010142
0.00011065078
0.00011120231
0.0001117535
0.00011230176
0.00011284481
0.00011338054
0.00011390702
0.00011442251
0.00011492563
0.00011541499
0.00011588957
0.0001163485
0.00011679112
0.00011721689
0.00011762559
0.00011801694
0.00011839091
0.00011874755
0.00011908704
0.00011940955
0.00011971552
0.00012000516
0.00012027892
0.00012053721
0.00012078046
0.00012100908
0.00012122218
0.00012142293
0.00012158532
0.0001170679
0.00011694642
0.00011684349
0.00011673673
0.00011662435
0.00011650745
0.00011638422
0.00011625571
0.0001161201
0.00011597842
0.00011582883
0.00011567234
0.00011550712
0.00011533417
0.00011515165
0.0001149606
0.0001147592
0.00011454851
0.00011432677
0.00011409508
0.00011385176
0.00011359799
0.0001133322
0.00011305569
0.00011276701
0.00011246762
0.00011215625
0.00011183454
0.00011150145
0.00011115883
0.00011080589
0.0001104444
0.00011007522
0.00010969835
0.00010931633
0.00010892914
0.0001085396
0.00010814802
0.00010775752
0.00010736873
0.00010698505
0.00010660746
0.00010623916
0.00010588222
0.00010553921
0.00010521272
0.00010490532
0.00010461974
0.00010435852
0.00010412427
0.00010391952
0.00010374667
0.00010360801
0.00010350577
0.00010344181
0.00010341791
0.0001034356
0.00010349611
0.00010360037
0.00010374915
0.00010394267
0.00010418098
0.00010446374
0.00010479026
0.00010515947
0.00010505417
0.00010467611
0.00010433329
0.00010402791
0.0001037618
0.00010353649
0.00010335313
0.00010321268
0.0001031156
0.00010306218
0.00010305243
0.0001030861
0.0001031627
0.00010328166
0.00010344199
0.00010364275
0.00010388271
0.00010416051
0.00010447461
0.00010482328
0.00010520461
0.00010561649
0.00010605664
0.00010652257
0.0001070116
0.00010752102
0.00010804784
0.00010858909
0.00010914174
0.00010970275
0.00011026914
0.00011083797
0.00011140658
0.00011197223
0.00011253254
0.00011308526
0.00011362839
0.00011416012
0.00011467901
0.00011518364
0.00011567296
0.0001161461
0.00011660239
0.00011704133
0.0001174627
0.00011786624
0.00011825199
0.00011862003
0.00011897057
0.00011930387
0.00011962038
0.00011992041
0.00012020445
0.00012047297
0.00012072648
0.00012096547
0.00012118899
0.0001214005
0.00012157393
0.00011689109
0.00011677226
0.00011667168
0.00011656702
0.0001164565
0.0001163412
0.00011621931
0.00011609188
0.00011595709
0.00011581595
0.00011566662
0.0001155101
0.00011534454
0.00011517094
0.00011498745
0.00011479507
0.00011459198
0.00011437922
0.000114155
0.00011392041
0.00011367375
0.00011341618
0.00011314611
0.00011286482
0.00011257085
0.00011226563
0.00011194791
0.00011161929
0.00011127875
0.00011092812
0.00011056664
0.00011019608
0.00010981733
0.00010943042
0.00010903791
0.00010863984
0.00010823909
0.00010783604
0.00010743389
0.00010703335
0.00010663791
0.00010624869
0.00010586899
0.000105501
0.00010514746
0.00010481107
0.00010449458
0.00010420088
0.00010393265
0.00010369267
0.00010348362
0.00010330809
0.00010316848
0.0001030672
0.00010300624
0.00010298749
0.00010301259
0.00010308288
0.00010319934
0.0001033628
0.00010357351
0.00010383151
0.00010413645
0.00010448756
0.0001048837
0.00010478017
0.00010437017
0.00010399711
0.00010366336
0.00010337088
0.00010312128
0.0001029158
0.00010275542
0.00010264062
0.00010257169
0.00010254862
0.00010257113
0.00010263868
0.00010275067
0.00010290609
0.00010310395
0.00010334299
0.00010362182
0.00010393888
0.00010429237
0.00010468035
0.00010510064
0.00010555085
0.0001060284
0.00010653048
0.00010705422
0.00010759647
0.00010815408
0.00010872383
0.00010930251
0.00010988694
0.00011047401
0.00011106089
0.00011164471
0.00011222294
0.00011279323
0.0001133535
0.00011390185
0.0001144368
0.0001149569
0.00011546108
0.00011594846
0.0001164184
0.0001168704
0.00011730429
0.00011771985
0.00011811714
0.00011849632
0.00011885764