/*--------------------------------*- C++ -*----------------------------------*\
| =========                 |                                                 |
| \\      /  F ield         | foam-extend: Open Source CFD                    |
|  \\    /   O peration     | Version:     4.1                                |
|   \\  /    A nd           | Web:         http://www.foam-extend.org         |
|    \\/     M anipulation  |                                                 |
\*---------------------------------------------------------------------------*/
FoamFile
{
    version     2.0;
    format      ascii;
    class       volVectorField;
    location    "0.05";
    object      U;
}
// * * * * * * * * * * * * * * * * * * * * * * * * * * * * * * * * * * * * * //

dimensions      [0 1 -1 0 0 0 0];

internalField   nonuniform List<vector> 
16796
(
(130.37022 -0.16511825 0)
(130.88398 -0.17391966 0)
(131.29058 -0.17595257 0)
(131.70828 -0.17711042 0)
(132.12813 -0.17798802 0)
(132.55037 -0.1788719 0)
(132.97522 -0.17986883 0)
(133.4031 -0.18102924 0)
(133.83456 -0.18238037 0)
(134.27016 -0.18393896 0)
(134.71055 -0.18571646 0)
(135.15635 -0.18772121 0)
(135.60825 -0.18995964 0)
(136.06693 -0.19243658 0)
(136.53308 -0.19515563 0)
(137.0074 -0.19811902 0)
(137.49059 -0.20132766 0)
(137.98335 -0.20478095 0)
(138.48639 -0.20847667 0)
(139.00038 -0.21241071 0)
(139.526 -0.21657697 0)
(140.06389 -0.22096704 0)
(140.61467 -0.22557006 0)
(141.17891 -0.2303724 0)
(141.75715 -0.23535755 0)
(142.34986 -0.24050577 0)
(142.95747 -0.24579404 0)
(143.5803 -0.25119573 0)
(144.21863 -0.2566806 0)
(144.87261 -0.26221449 0)
(145.54229 -0.26775946 0)
(146.22761 -0.27327353 0)
(146.92839 -0.27871098 0)
(147.64428 -0.28402214 0)
(148.37481 -0.28915373 0)
(149.11933 -0.29404907 0)
(149.87702 -0.29864834 0)
(150.6469 -0.30288907 0)
(151.42778 -0.30670651 0)
(152.21829 -0.31003437 0)
(153.01685 -0.31280532 0)
(153.82171 -0.31495193 0)
(154.6309 -0.31640733 0)
(155.44226 -0.3171063 0)
(156.25344 -0.31698611 0)
(157.06192 -0.31598762 0)
(157.86501 -0.3140563 0)
(158.65987 -0.3111433 0)
(159.44351 -0.30720651 0)
(160.21285 -0.3022115 0)
(160.96471 -0.29613256 0)
(161.69585 -0.28895347 0)
(162.403 -0.28066826 0)
(163.0829 -0.27128178 0)
(163.7323 -0.26081011 0)
(164.34805 -0.24928078 0)
(164.92709 -0.23673277 0)
(165.4665 -0.22321624 0)
(165.96353 -0.20879207 0)
(166.41565 -0.19353104 0)
(166.82057 -0.17751271 0)
(167.17626 -0.16082385 0)
(167.481 -0.14355648 0)
(167.73338 -0.12580306 0)
(167.93232 -0.10765525 0)
(168.07707 -0.089195923 0)
(168.16724 -0.070486065 0)
(168.20275 -0.051508849 0)
(168.18406 -0.032149519 0)
(168.1103 -0.012588476 0)
(167.98172 0.0067059687 0)
(167.79973 0.025419835 0)
(167.56614 0.043398428 0)
(167.28311 0.060525466 0)
(166.95309 0.076702099 0)
(166.57882 0.091841728 0)
(166.16323 0.10586892 0)
(165.70949 0.11871931 0)
(165.22092 0.13033963 0)
(164.70098 0.14068788 0)
(164.15323 0.14973327 0)
(163.58133 0.15745617 0)
(162.98897 0.16384807 0)
(162.37987 0.16891133 0)
(161.75772 0.17265895 0)
(161.1262 0.17511427 0)
(160.48888 0.17631049 0)
(159.84927 0.17629018 0)
(159.21074 0.1751046 0)
(158.57653 0.17281298 0)
(157.94971 0.16948158 0)
(157.33316 0.16518273 0)
(156.72956 0.15999373 0)
(156.14139 0.1539957 0)
(155.57089 0.14727235 0)
(155.0201 0.1399088 0)
(154.49079 0.13199038 0)
(153.98453 0.12360149 0)
(153.50265 0.11482455 0)
(153.04625 0.10573907 0)
(152.61622 0.096420826 0)
(152.21326 0.086941224 0)
(151.83787 0.077366762 0)
(151.49036 0.067758689 0)
(151.17091 0.058172805 0)
(150.87953 0.04865946 0)
(150.61611 0.039263641 0)
(150.38042 0.030025269 0)
(150.17215 0.020979642 0)
(149.99089 0.012158043 0)
(149.83615 0.0035885699 0)
(149.70743 -0.0047027235 0)
(149.60412 -0.012690379 0)
(149.52563 -0.020347086 0)
(149.4713 -0.027640368 0)
(149.44046 -0.034528023 0)
(149.43238 -0.040952189 0)
(149.44618 -0.046831666 0)
(149.48074 -0.052041199 0)
(149.5356 -0.056281287 0)
(149.6111 -0.059215401 0)
(149.70419 -0.061027116 0)
(149.7988 -0.061426901 0)
(149.87523 -0.05021147 0)
(149.5175 -0.36013127 0)
(149.86517 -0.37436136 0)
(150.13292 -0.37889114 0)
(150.40709 -0.38167138 0)
(150.68283 -0.38394449 0)
(150.96055 -0.38631569 0)
(151.24058 -0.38904364 0)
(151.5234 -0.39225729 0)
(151.80953 -0.39602846 0)
(152.09957 -0.40040166 0)
(152.39415 -0.40540718 0)
(152.6939 -0.41106683 0)
(152.99949 -0.41739695 0)
(153.31159 -0.42440948 0)
(153.63089 -0.43211267 0)
(153.95807 -0.44051091 0)
(154.29384 -0.44960474 0)
(154.63888 -0.4593903 0)
(154.99388 -0.46985905 0)
(155.3595 -0.48099699 0)
(155.73642 -0.49278435 0)
(156.12525 -0.50519464 0)
(156.52661 -0.51819436 0)
(156.94106 -0.53174198 0)
(157.36913 -0.54578767 0)
(157.81129 -0.5602723 0)
(158.26794 -0.57512731 0)
(158.73942 -0.59027371 0)
(159.22598 -0.60562213 0)
(159.72777 -0.62107199 0)
(160.24485 -0.63651175 0)
(160.77715 -0.65181828 0)
(161.32449 -0.66685758 0)
(161.88652 -0.68148448 0)
(162.46278 -0.69554315 0)
(163.05263 -0.70886811 0)
(163.65524 -0.72128465 0)
(164.26964 -0.73261045 0)
(164.89465 -0.74265653 0)
(165.52891 -0.75122934 0)
(166.17086 -0.75813234 0)
(166.81873 -0.76316852 0)
(167.47057 -0.76614253 0)
(168.12424 -0.76686369 0)
(168.77739 -0.76514859 0)
(169.42751 -0.76082426 0)
(170.07189 -0.75373125 0)
(170.70772 -0.74372684 0)
(171.33199 -0.73068822 0)
(171.94163 -0.71451551 0)
(172.53345 -0.69513479 0)
(173.1042 -0.67250068 0)
(173.6506 -0.64659881 0)
(174.16937 -0.61744775 0)
(174.65726 -0.58510047 0)
(175.1111 -0.54964542 0)
(175.52779 -0.51120684 0)
(175.90441 -0.46994454 0)
(176.23818 -0.42605299 0)
(176.52655 -0.37975979 0)
(176.7672 -0.33132329 0)
(176.95807 -0.2810294 0)
(177.09744 -0.22918883 0)
(177.18386 -0.17612546 0)
(177.21625 -0.12217868 0)
(177.19386 -0.067701481 0)
(177.11634 -0.01302548 0)
(176.9837 0.041609464 0)
(176.79618 0.096019667 0)
(176.55614 0.14988346 0)
(176.26551 0.20265583 0)
(175.92568 0.25385768 0)
(175.53829 0.30313267 0)
(175.10525 0.35017539 0)
(174.62872 0.39471479 0)
(174.11113 0.43650969 0)
(173.55511 0.47534791 0)
(172.96349 0.5110465 0)
(172.33928 0.54345202 0)
(171.68561 0.57244084 0)
(171.00573 0.5979191 0)
(170.30296 0.61982265 0)
(169.58068 0.63811677 0)
(168.84229 0.65279573 0)
(168.09118 0.6638822 0)
(167.33073 0.67142647 0)
(166.56423 0.6755054 0)
(165.79492 0.67622117 0)
(165.0259 0.67369968 0)
(164.26018 0.66808866 0)
(163.50059 0.65955544 0)
(162.74982 0.64828439 0)
(162.01036 0.6344742 0)
(161.28453 0.61833477 0)
(160.57442 0.60008411 0)
(159.88195 0.57994508 0)
(159.2088 0.55814221 0)
(158.55645 0.53489857 0)
(157.92618 0.51043285 0)
(157.31907 0.48495677 0)
(156.73599 0.45867268 0)
(156.17764 0.43177153 0)
(155.64453 0.40443132 0)
(155.13705 0.37681582 0)
(154.65539 0.34907367 0)
(154.19965 0.32133802 0)
(153.7698 0.29372628 0)
(153.36569 0.26634042 0)
(152.9871 0.23926745 0)
(152.63374 0.21258029 0)
(152.30524 0.18633891 0)
(152.00118 0.16059195 0)
(151.7211 0.13537879 0)
(151.46452 0.11073308 0)
(151.23092 0.086687756 0)
(151.01977 0.063280066 0)
(150.83047 0.040556233 0)
(150.66235 0.018594197 0)
(150.51488 -0.0023967424 0)
(150.3877 -0.021940708 0)
(150.2808 -0.039677803 0)
(150.19116 -0.056360937 0)
(150.10967 -0.071519817 0)
(150.03468 -0.066400767 0)
(152.99019 -0.52446333 0)
(153.27665 -0.53416045 0)
(153.4923 -0.53903256 0)
(153.7117 -0.54263866 0)
(153.93196 -0.54602537 0)
(154.15396 -0.54978227 0)
(154.37823 -0.55421464 0)
(154.60535 -0.55949184 0)
(154.83587 -0.56571548 0)
(155.07039 -0.57295161 0)
(155.30952 -0.58124655 0)
(155.55391 -0.59063426 0)
(155.80419 -0.60114041 0)
(156.06102 -0.61278378 0)
(156.32506 -0.62557726 0)
(156.59699 -0.63952746 0)
(156.87746 -0.65463479 0)
(157.16715 -0.67089235 0)
(157.46671 -0.68828564 0)
(157.7768 -0.70679114 0)
(158.09804 -0.72637587 0)
(158.43105 -0.74699576 0)
(158.7764 -0.76859518 0)
(159.13464 -0.79110526 0)
(159.50627 -0.81444346 0)
(159.89176 -0.83851188 0)
(160.29148 -0.863197 0)
(160.70577 -0.88836808 0)
(161.13487 -0.91387721 0)
(161.57894 -0.93955791 0)
(162.03804 -0.96522555 0)
(162.51211 -0.99067634 0)
(163.001 -1.0156883 0)
(163.50438 -1.040021 0)
(164.02183 -1.0634162 0)
(164.55275 -1.0855999 0)
(165.09637 -1.1062822 0)
(165.65179 -1.1251609 0)
(166.2179 -1.1419225 0)
(166.79341 -1.1562456 0)
(167.37687 -1.1678039 0)
(167.9666 -1.1762701 0)
(168.56077 -1.1813194 0)
(169.15734 -1.1826346 0)
(169.7541 -1.1799101 0)
(170.34865 -1.1728576 0)
(170.93845 -1.1612109 0)
(171.52079 -1.1447312 0)
(172.09283 -1.1232124 0)
(172.65163 -1.0964864 0)
(173.19414 -1.0644276 0)
(173.71726 -1.0269574 0)
(174.21785 -0.9840487 0)
(174.69275 -0.93572841 0)
(175.13885 -0.88208048 0)
(175.55307 -0.82324747 0)
(175.93245 -0.7594312 0)
(176.27414 -0.69089249 0)
(176.57545 -0.61794985 0)
(176.83391 -0.54097713 0)
(177.04725 -0.46040008 0)
(177.21346 -0.37669213 0)
(177.33083 -0.29037028 0)
(177.39791 -0.20197891 0)
(177.4136 -0.11210241 0)
(177.37716 -0.021365342 0)
(177.2882 0.069606456 0)
(177.1467 0.16017007 0)
(176.95303 0.24970476 0)
(176.70776 0.33766158 0)
(176.41185 0.42357379 0)
(176.06662 0.5069317 0)
(175.67368 0.58721062 0)
(175.23497 0.66392261 0)
(174.75265 0.73662315 0)
(174.22917 0.80491333 0)
(173.66718 0.86844121 0)
(173.06953 0.92690295 0)
(172.43924 0.98004356 0)
(171.77946 1.0276574 0)
(171.09345 1.0695882 0)
(170.38457 1.1057286 0)
(169.65621 1.13602 0)
(168.91178 1.1604517 0)
(168.15471 1.1790594 0)
(167.38838 1.1919243 0)
(166.61611 1.1991711 0)
(165.84115 1.2009659 0)
(165.06663 1.1975136 0)
(164.29556 1.1890544 0)
(163.5308 1.1758604 0)
(162.77504 1.1582314 0)
(162.03079 1.13649 0)
(161.30038 1.110977 0)
(160.58591 1.082046 0)
(159.8893 1.0500584 0)
(159.21222 1.0153777 0)
(158.55618 0.97836513 0)
(157.92244 0.93937429 0)
(157.31206 0.89874742 0)
(156.72594 0.85681139 0)
(156.16474 0.81387454 0)
(155.629 0.77022413 0)
(155.11906 0.72612441 0)
(154.63513 0.68181517 0)
(154.17728 0.63751116 0)
(153.74549 0.59340178 0)
(153.33959 0.54965141 0)
(152.95936 0.50640019 0)
(152.60448 0.46376524 0)
(152.27458 0.42184218 0)
(151.96924 0.38070715 0)
(151.688 0.34041936 0)
(151.43036 0.30102481 0)
(151.19579 0.26256081 0)
(150.98377 0.22505761 0)
(150.79369 0.18853773 0)
(150.62493 0.1530473 0)
(150.47692 0.11877627 0)
(150.34936 0.086105285 0)
(150.2417 0.055091317 0)
(150.15122 0.025038197 0)
(150.07495 -0.0032443303 0)
(150.0201 -0.016804489 0)
(153.63536 -0.66338141 0)
(153.90125 -0.66800554 0)
(154.102 -0.6717932 0)
(154.30579 -0.67557641 0)
(154.51016 -0.6797994 0)
(154.71617 -0.68484026 0)
(154.92447 -0.69094816 0)
(155.13567 -0.69828488 0)
(155.35039 -0.70695884 0)
(155.56922 -0.71704609 0)
(155.7928 -0.72860282 0)
(156.02175 -0.74167166 0)
(156.25674 -0.75628548 0)
(156.49841 -0.77246859 0)
(156.74742 -0.79023772 0)
(157.00445 -0.80960136 0)
(157.27017 -0.8305597 0)
(157.54523 -0.85310317 0)
(157.8303 -0.87721196 0)
(158.12604 -0.90285414 0)
(158.43308 -0.929985 0)
(158.75203 -0.95854488 0)
(159.08348 -0.98845854 0)
(159.42799 -1.0196328 0)
(159.78607 -1.0519559 0)
(160.15819 -1.0852954 0)
(160.54476 -1.1194976 0)
(160.94611 -1.1543852 0)
(161.36252 -1.1897577 0)
(161.79416 -1.2253892 0)
(162.24113 -1.2610288 0)
(162.70338 -1.2963996 0)
(163.1808 -1.3311992 0)
(163.67309 -1.3651001 0)
(164.17986 -1.39775 0)
(164.70054 -1.4287743 0)
(165.2344 -1.4577769 0)
(165.78057 -1.4843434 0)
(166.33797 -1.5080438 0)
(166.90535 -1.5284366 0)
(167.48128 -1.5450726 0)
(168.06411 -1.5575003 0)
(168.65204 -1.5652711 0)
(169.24303 -1.5679456 0)
(169.83489 -1.5650999 0)
(170.42524 -1.5563326 0)
(171.01151 -1.5412719 0)
(171.59101 -1.5195831 0)
(172.16086 -1.4909755 0)
(172.7181 -1.4552099 0)
(173.25965 -1.4121053 0)
(173.78236 -1.3615451 0)
(174.28304 -1.3034825 0)
(174.75849 -1.2379457 0)
(175.20551 -1.1650406 0)
(175.62097 -1.0849541 0)
(176.00183 -0.99795439 0)
(176.34516 -0.90439099 0)
(176.64821 -0.8046925 0)
(176.90841 -0.69936331 0)
(177.12343 -0.5889781 0)
(177.2912 -0.47417674 0)
(177.40992 -0.35565247 0)
(177.4781 -0.23413724 0)
(177.49459 -0.11041594 0)
(177.4586 0.014694167 0)
(177.3697 0.14037587 0)
(177.22779 0.26576902 0)
(177.03317 0.38999824 0)
(176.78646 0.51221232 0)
(176.48865 0.63162202 0)
(176.14108 0.74747118 0)
(175.74539 0.85903575 0)
(175.30354 0.96564104 0)
(174.81774 1.0666692 0)
(174.29046 1.1615641 0)
(173.7244 1.249834 0)
(173.12243 1.3310536 0)
(172.48763 1.4048658 0)
(171.82319 1.4709817 0)
(171.1324 1.5291812 0)
(170.41866 1.5793123 0)
(169.6854 1.6212907 0)
(168.93607 1.6550989 0)
(168.17414 1.6807842 0)
(167.40302 1.6984574 0)
(166.62608 1.7082901 0)
(165.84658 1.7105117 0)
(165.06771 1.7054061 0)
(164.29248 1.6933069 0)
(163.5238 1.6745925 0)
(162.76436 1.6496802 0)
(162.01671 1.6190196 0)
(161.28316 1.5830862 0)
(160.56586 1.5423733 0)
(159.8667 1.4973855 0)
(159.18738 1.4486308 0)
(158.52939 1.3966139 0)
(157.89398 1.3418294 0)
(157.28222 1.284756 0)
(156.69497 1.2258511 0)
(156.13291 1.1655467 0)
(155.59653 1.1042453 0)
(155.08617 1.0423177 0)
(154.60201 0.98010118 0)
(154.14412 0.91789834 0)
(153.71244 0.85597721 0)
(153.30679 0.79457185 0)
(152.92693 0.73388374 0)
(152.57252 0.67408387 0)
(152.24319 0.61531547 0)
(151.9385 0.55769761 0)
(151.65797 0.50132985 0)
(151.4011 0.44629853 0)
(151.16736 0.39268387 0)
(150.95623 0.34056493 0)
(150.76711 0.29002741 0)
(150.59942 0.24120636 0)
(150.45271 0.19437831 0)
(150.32659 0.14993407 0)
(150.22021 0.10802021 0)
(150.1314 0.068964899 0)
(150.06023 0.034398332 0)
(150.01472 0.011080277 0)
(153.7661 -0.80496592 0)
(154.02512 -0.80672721 0)
(154.22181 -0.80964093 0)
(154.42149 -0.81357987 0)
(154.62167 -0.81864436 0)
(154.82338 -0.82503752 0)
(155.02734 -0.83293858 0)
(155.23419 -0.84248612 0)
(155.44455 -0.85378488 0)
(155.65907 -0.86691482 0)
(155.87836 -0.88193859 0)
(156.10307 -0.89890557 0)
(156.33386 -0.91785484 0)
(156.57138 -0.93881572 0)
(156.81631 -0.96180853 0)
(157.06931 -0.98684346 0)
(157.33106 -1.0139205 0)
(157.60223 -1.0430272 0)
(157.8835 -1.0741384 0)
(158.17552 -1.1072135 0)
(158.47893 -1.1421959 0)
(158.79437 -1.1790099 0)
(159.12244 -1.21756 0)
(159.4637 -1.257728 0)
(159.81868 -1.2993721 0)
(160.18787 -1.342324 0)
(160.57169 -1.3863883 0)
(160.97051 -1.4313397 0)
(161.38461 -1.4769231 0)
(161.81418 -1.5228507 0)
(162.25935 -1.5688028 0)
(162.7201 -1.6144261 0)
(163.19632 -1.6593346 0)
(163.68776 -1.7031098 0)
(164.19402 -1.745301 0)
(164.71457 -1.7854286 0)
(165.24871 -1.8229845 0)
(165.79555 -1.8574372 0)
(166.35405 -1.888234 0)
(166.92296 -1.9148068 0)
(167.50085 -1.936577 0)
(168.0861 -1.9529621 0)
(168.67686 -1.9633825 0)
(169.27112 -1.9672697 0)
(169.86665 -1.9640742 0)
(170.46105 -1.9532749 0)
(171.05175 -1.934388 0)
(171.63597 -1.9069769 0)
(172.21085 -1.8706616 0)
(172.77334 -1.8251281 0)
(173.32032 -1.7701371 0)
(173.84859 -1.7055329 0)
(174.35489 -1.6312503 0)
(174.83595 -1.5473212 0)
(175.2885 -1.4538792 0)
(175.70935 -1.3511631 0)
(176.09538 -1.2395185 0)
(176.4436 -1.1193976 0)
(176.75119 -0.9913565 0)
(177.01553 -0.8560515 0)
(177.23421 -0.71423166 0)
(177.40512 -0.56673359 0)
(177.52642 -0.41446102 0)
(177.59659 -0.25837779 0)
(177.61445 -0.099515444 0)
(177.5792 0.06106055 0)
(177.49039 0.22228653 0)
(177.34794 0.38309703 0)
(177.15212 0.54240987 0)
(176.9036 0.69916852 0)
(176.60337 0.85235512 0)
(176.25279 1.0009915 0)
(175.85356 1.1441487 0)
(175.40765 1.280961 0)
(174.91732 1.4106345 0)
(174.38511 1.5324544 0)
(173.81374 1.6457884 0)
(173.20616 1.75009 0)
(172.56547 1.8448998 0)
(171.89494 1.9298468 0)
(171.1979 2.0046481 0)
(170.47781 2.0691084 0)
(169.73815 2.1231194 0)
(168.98242 2.166658 0)
(168.21414 2.199785 0)
(167.43676 2.2226422 0)
(166.6537 2.2354497 0)
(165.86828 2.238502 0)
(165.0837 2.2321633 0)
(164.30304 2.216862 0)
(163.52921 2.1930839 0)
(162.76496 2.1613649 0)
(162.01284 2.1222822 0)
(161.2752 2.076446 0)
(160.55417 2.0244895 0)
(159.85167 1.9670596 0)
(159.16939 1.9048075 0)
(158.50882 1.8383792 0)
(157.87121 1.7684076 0)
(157.2576 1.695504 0)
(156.66884 1.6202522 0)
(156.10558 1.543202 0)
(155.5683 1.464865 0)
(155.05731 1.3857111 0)
(154.57277 1.3061662 0)
(154.11471 1.2266107 0)
(153.68304 1.1473798 0)
(153.27758 1.0687636 0)
(152.89804 0.99100894 0)
(152.54408 0.91432171 0)
(152.2153 0.83886999 0)
(151.91123 0.76478808 0)
(151.63139 0.69218164 0)
(151.37528 0.62113448 0)
(151.14236 0.55171578 0)
(150.9321 0.48398709 0)
(150.74396 0.4180173 0)
(150.57741 0.35392717 0)
(150.43207 0.29194114 0)
(150.30755 0.2323223 0)
(150.20302 0.17522147 0)
(150.11715 0.12163001 0)
(150.05134 0.07316124 0)
(150.012 0.033397333 0)
(153.81571 -0.93647877 0)
(154.0712 -0.93659955 0)
(154.26612 -0.93881911 0)
(154.46417 -0.94282638 0)
(154.6627 -0.94857845 0)
(154.8627 -0.95617067 0)
(155.06488 -0.96572583 0)
(155.26989 -0.97735804 0)
(155.47839 -0.99116471 0)
(155.69099 -1.0072267 0)
(155.90836 -1.0256115 0)
(156.13114 -1.0463743 0)
(156.35999 -1.0695604 0)
(156.59558 -1.0952044 0)
(156.83857 -1.123331 0)
(157.08966 -1.1539532 0)
(157.34951 -1.1870718 0)
(157.61882 -1.2226731 0)
(157.89827 -1.2607281 0)
(158.18851 -1.3011894 0)
(158.49022 -1.3439899 0)
(158.80403 -1.3890401 0)
(159.13057 -1.4362264 0)
(159.4704 -1.4854075 0)
(159.82409 -1.5364139 0)
(160.19214 -1.5890438 0)
(160.57499 -1.6430624 0)
(160.97303 -1.6981985 0)
(161.38657 -1.7541447 0)
(161.81583 -1.8105536 0)
(162.26095 -1.8670386 0)
(162.72194 -1.9231721 0)
(163.19871 -1.9784861 0)
(163.69104 -2.0324725 0)
(164.19856 -2.0845835 0)
(164.72076 -2.1342353 0)
(165.25694 -2.1808085 0)
(165.80625 -2.2236545 0)
(166.36765 -2.2620974 0)
(166.93991 -2.2954421 0)
(167.5216 -2.322979 0)
(168.11109 -2.3439931 0)
(168.70655 -2.3577714 0)
(169.30594 -2.3636134 0)
(169.90702 -2.3608409 0)
(170.50736 -2.3488088 0)
(171.10434 -2.3269171 0)
(171.69518 -2.2946224 0)
(172.27693 -2.2514497 0)
(172.84653 -2.1970038 0)
(173.40077 -2.1309811 0)
(173.93639 -2.0531793 0)
(174.45007 -1.963507 0)
(174.93844 -1.8619916 0)
(175.39818 -1.7487851 0)
(175.82601 -1.6241689 0)
(176.21872 -1.4885557 0)
(176.57325 -1.342489 0)
(176.8867 -1.1866408 0)
(177.15637 -1.0218068 0)
(177.37979 -0.84889734 0)
(177.55478 -0.66893186 0)
(177.67945 -0.48301252 0)
(177.75223 -0.29232277 0)
(177.77191 -0.098129862 0)
(177.73768 0.098255482 0)
(177.64905 0.29550574 0)
(177.50595 0.49227356 0)
(177.30868 0.6872235 0)
(177.0579 0.87905064 0)
(176.75465 1.0664954 0)
(176.40033 1.2483521 0)
(175.99666 1.4234811 0)
(175.54569 1.5908212 0)
(175.04973 1.7494002 0)
(174.51135 1.8983419 0)
(173.93337 2.0368722 0)
(173.31879 2.1643218 0)
(172.67078 2.2801286 0)
(171.99267 2.3838387 0)
(171.28786 2.475106 0)
(170.55987 2.5536922 0)
(169.81225 2.6194649 0)
(169.04857 2.6723967 0)
(168.27239 2.7125626 0)
(167.48725 2.7401373 0)
(166.69661 2.7553919 0)
(165.90384 2.7586888 0)
(165.11221 2.7504768 0)
(164.32483 2.7312837 0)
(163.54467 2.7017084 0)
(162.7745 2.6624116 0)
(162.01689 2.6141057 0)
(161.27423 2.5575434 0)
(160.54866 2.4935061 0)
(159.84211 2.4227922 0)
(159.15627 2.3462049 0)
(158.49262 2.2645417 0)
(157.85239 2.1785828 0)
(157.23662 2.0890824 0)
(156.64612 1.9967599 0)
(156.08153 1.9022934 0)
(155.54329 1.8063131 0)
(155.03168 1.7093984 0)
(154.54683 1.612074 0)
(154.08874 1.5148091 0)
(153.65727 1.418017 0)
(153.25222 1.3220559 0)
(152.87326 1.2272311 0)
(152.52003 1.1337976 0)
(152.19208 1.0419635 0)
(151.88895 0.95189514 0)
(151.6101 0.86372222 0)
(151.35503 0.77754437 0)
(151.1232 0.69343758 0)
(150.91405 0.61146132 0)
(150.72706 0.53167462 0)
(150.56174 0.4541698 0)
(150.41772 0.37908706 0)
(150.29459 0.30654273 0)
(150.19165 0.2366058 0)
(150.10823 0.17034994 0)
(150.04624 0.10841036 0)
(150.01057 0.052411968 0)
(153.86039 -1.0717842 0)
(154.11351 -1.0710096 0)
(154.30697 -1.0728384 0)
(154.50369 -1.0770301 0)
(154.70089 -1.0835102 0)
(154.89951 -1.0923212 0)
(155.10025 -1.1035496 0)
(155.30377 -1.1172899 0)
(155.51071 -1.1336323 0)
(155.72172 -1.1526573 0)
(155.93746 -1.1744358 0)
(156.15857 -1.199028 0)
(156.38573 -1.2264847 0)
(156.61961 -1.2568456 0)
(156.86089 -1.2901396 0)
(157.11026 -1.3263825 0)
(157.3684 -1.3655762 0)
(157.63602 -1.407706 0)
(157.91381 -1.4527393 0)
(158.20244 -1.500622 0)
(158.50259 -1.5512776 0)
(158.81493 -1.6046027 0)
(159.14008 -1.6604659 0)
(159.47865 -1.7187034 0)
(159.83121 -1.7791182 0)
(160.19829 -1.8414749 0)
(160.58036 -1.9054996 0)
(160.97783 -1.9708755 0)
(161.39104 -2.0372421 0)
(161.82024 -2.1041923 0)
(162.2656 -2.1712722 0)
(162.72717 -2.2379787 0)
(163.20487 -2.3037608 0)
(163.69852 -2.3680196 0)
(164.20778 -2.4301083 0)
(164.73216 -2.4893365 0)
(165.27098 -2.5449714 0)
(165.82343 -2.5962441 0)
(166.38847 -2.6423526 0)
(166.96489 -2.6824708 0)
(167.55126 -2.7157544 0)
(168.14596 -2.7413514 0)
(168.74715 -2.7584112 0)
(169.35277 -2.7660966 0)
(169.96057 -2.7635959 0)
(170.56809 -2.7501359 0)
(171.17268 -2.724996 0)
(171.7715 -2.6875222 0)
(172.36155 -2.6371411 0)
(172.9397 -2.5733746 0)
(173.50268 -2.4958529 0)
(174.04715 -2.4043273 0)
(174.56969 -2.2986815 0)
(175.06686 -2.1789414 0)
(175.53524 -2.0452822 0)
(175.97145 -1.8980342 0)
(176.37218 -1.7376854 0)
(176.73428 -1.564881 0)
(177.05476 -1.3804205 0)
(177.33082 -1.1852517 0)
(177.55992 -0.98045985 0)
(177.7398 -0.76726082 0)
(177.86851 -0.54696871 0)
(177.94443 -0.32099703 0)
(177.9663 -0.090854576 0)
(177.93328 0.14189995 0)
(177.84488 0.37569496 0)
(177.70101 0.60894172 0)
(177.50199 0.84005263 0)
(177.2485 1.0674722 0)
(176.94163 1.2896962 0)
(176.5828 1.5052869 0)
(176.17381 1.7128876 0)
(175.71675 1.9112373 0)
(175.214 2.0991813 0)
(174.66822 2.2756803 0)
(174.0823 2.4398162 0)
(173.4593 2.5907962 0)
(172.80249 2.7279551 0)
(172.11526 2.8507559 0)
(171.40111 2.9587897 0)
(170.66362 3.051775 0)
(169.90643 3.1295563 0)
(169.13319 3.1921019 0)
(168.34753 3.2395017 0)
(167.55305 3.2719641 0)
(166.75329 3.2898117 0)
(165.9517 3.2934762 0)
(165.15159 3.2834917 0)
(164.35613 3.260487 0)
(163.56835 3.2251755 0)
(162.79104 3.1783446 0)
(162.02684 3.120843 0)
(161.27814 3.0535675 0)
(160.54711 2.9774486 0)
(159.83568 2.8934366 0)
(159.14554 2.8024873 0)
(158.47817 2.7055482 0)
(157.83478 2.6035458 0)
(157.21639 2.4973746 0)
(156.62379 2.3878866 0)
(156.05757 2.2758832 0)
(155.51815 2.1621088 0)
(155.00577 2.0472456 0)
(154.52051 1.9319105 0)
(154.06233 1.8166536 0)
(153.63107 1.7019583 0)
(153.22647 1.588242 0)
(152.84818 1.4758592 0)
(152.49579 1.3651048 0)
(152.16883 1.2562182 0)
(151.86679 1.1493897 0)
(151.58915 1.0447664 0)
(151.33536 0.94245987 0)
(151.10486 0.84255369 0)
(150.89712 0.74511257 0)
(150.71159 0.65019949 0)
(150.54783 0.55789986 0)
(150.40545 0.46831932 0)
(150.28402 0.38153587 0)
(150.18298 0.29764005 0)
(150.102 0.217726 0)
(150.04297 0.14151803 0)
(150.00972 0.069607831 0)
(153.91369 -1.2014743 0)
(154.16432 -1.2000449 0)
(154.35614 -1.2015918 0)
(154.55132 -1.2059783 0)
(154.747 -1.2131422 0)
(154.94407 -1.223108 0)
(155.1432 -1.2359431 0)
(155.34505 -1.2517306 0)
(155.55027 -1.2705558 0)
(155.75951 -1.2925001 0)
(155.97343 -1.3176378 0)
(156.19269 -1.3460348 0)
(156.41796 -1.3777476 0)
(156.64993 -1.4128219 0)
(156.88928 -1.4512915 0)
(157.13671 -1.493176 0)
(157.39293 -1.5384798 0)
(157.65863 -1.587188 0)
(157.93453 -1.6392662 0)
(158.22132 -1.694655 0)
(158.5197 -1.7532696 0)
(158.83035 -1.8149944 0)
(159.15391 -1.879682 0)
(159.49102 -1.9471473 0)
(159.84228 -2.0171673 0)
(160.20824 -2.0894748 0)
(160.5894 -2.1637581 0)
(160.98621 -2.2396555 0)
(161.39903 -2.3167554 0)
(161.82816 -2.3945913 0)
(162.27378 -2.4726427 0)
(162.73599 -2.5503317 0)
(163.21476 -2.6270243 0)
(163.70993 -2.7020303 0)
(164.22118 -2.7746033 0)
(164.74807 -2.8439454 0)
(165.28995 -2.9092086 0)
(165.84602 -2.9695013 0)
(166.41528 -3.0238928 0)
(166.99652 -3.0714227 0)
(167.58833 -3.1111079 0)
(168.18908 -3.1419548 0)
(168.79694 -3.1629698 0)
(169.40983 -3.1731734 0)
(170.02548 -3.1716137 0)
(170.64139 -3.1573826 0)
(171.25487 -3.1296312 0)
(171.86303 -3.0875871 0)
(172.4628 -3.0305707 0)
(173.05099 -2.9580121 0)
(173.62424 -2.8694672 0)
(174.17911 -2.7646326 0)
(174.71208 -2.6433589 0)
(175.21962 -2.5056629 0)
(175.69818 -2.3517357 0)
(176.14427 -2.1819506 0)
(176.55447 -1.9968655 0)
(176.92552 -1.7972232 0)
(177.2543 -1.5839484 0)
(177.53792 -1.3581403 0)
(177.77374 -1.121061 0)
(177.95942 -0.87412648 0)
(178.09292 -0.61886988 0)
(178.17254 -0.35694477 0)
(178.197 -0.09011375 0)
(178.16543 0.17980141 0)
(178.07731 0.45095209 0)
(177.93255 0.7214709 0)
(177.73147 0.98950539 0)
(177.47481 1.2532402 0)
(177.16368 1.5109199 0)
(176.79956 1.760868 0)
(176.38432 2.0015057 0)
(175.92011 2.2313669 0)
(175.40941 2.4491108 0)
(174.85495 2.6535322 0)
(174.2597 2.8435676 0)
(173.62684 3.0182997 0)
(172.95972 3.1769596 0)
(172.26181 3.3189278 0)
(171.53673 3.443733 0)
(170.78813 3.5510517 0)
(170.01975 3.6407064 0)
(169.23532 3.7126632 0)
(168.43857 3.7670291 0)
(167.63319 3.804049 0)
(166.82279 3.8241008 0)
(166.0109 3.8276898 0)
(165.2009 3.8154412 0)
(164.39603 3.788091 0)
(163.59938 3.7464747 0)
(162.81379 3.6915144 0)
(162.04194 3.6242043 0)
(161.28625 3.5455949 0)
(160.54891 3.4567761 0)
(159.83186 3.3588605 0)
(159.1368 3.2529665 0)
(158.46518 3.140202 0)
(157.8182 3.0216496 0)
(157.19686 2.8983532 0)
(156.60191 2.771306 0)
(156.03391 2.641441 0)
(155.49322 2.5096231 0)
(154.98004 2.3766439 0)
(154.49441 2.2432172 0)
(154.03623 2.1099782 0)
(153.6053 1.9774827 0)
(153.2013 1.8462089 0)
(152.82385 1.7165602 0)
(152.47248 1.588869 0)
(152.1467 1.4634016 0)
(151.84596 1.3403648 0)
(151.56969 1.219912 0)
(151.31734 1.1021514 0)
(151.08833 0.98715357 0)
(150.88209 0.8749618 0)
(150.69812 0.76560743 0)
(150.53595 0.659126 0)
(150.39521 0.55555108 0)
(150.27548 0.45489559 0)
(150.17629 0.35721457 0)
(150.09747 0.26355711 0)
(150.04075 0.17297299 0)
(150.00917 0.085660765 0)
(153.97689 -1.3328589 0)
(154.22512 -1.3309327 0)
(154.41512 -1.332303 0)
(154.60851 -1.3369297 0)
(154.80241 -1.3447791 0)
(154.99768 -1.3558761 0)
(155.19496 -1.3702815 0)
(155.3949 -1.3880732 0)
(155.59816 -1.4093353 0)
(155.80539 -1.4341509 0)
(156.01725 -1.4625988 0)
(156.2344 -1.4947505 0)
(156.45753 -1.5306692 0)
(156.68732 -1.5704065 0)
(156.92447 -1.6140023 0)
(157.1697 -1.6614807 0)
(157.42371 -1.7128493 0)
(157.68723 -1.7680947 0)
(157.96097 -1.8271813 0)
(158.24566 -1.890046 0)
(158.542 -1.9565969 0)
(158.85069 -2.0267079 0)
(159.17242 -2.1002165 0)
(159.50784 -2.1769183 0)
(159.85759 -2.2565654 0)
(160.22223 -2.3388602 0)
(160.60232 -2.4234543 0)
(160.99833 -2.5099425 0)
(161.41067 -2.5978626 0)
(161.83966 -2.6866898 0)
(162.28554 -2.7758373 0)
(162.74844 -2.8646525 0)
(163.22837 -2.9524182 0)
(163.72521 -3.038352 0)
(164.23869 -3.1216069 0)
(164.76839 -3.2012759 0)
(165.31372 -3.2763931 0)
(165.87388 -3.3459419 0)
(166.44791 -3.4088592 0)
(167.03462 -3.4640463 0)
(167.63261 -3.5103768 0)
(168.24027 -3.5467104 0)
(168.85573 -3.5719048 0)
(169.47692 -3.5848319 0)
(170.10154 -3.5843939 0)
(170.72706 -3.5695406 0)
(171.35073 -3.539289 0)
(171.96961 -3.4927416 0)
(172.58055 -3.4291066 0)
(173.18027 -3.3477172 0)
(173.76532 -3.2480502 0)
(174.33216 -3.1297437 0)
(174.87715 -2.992613 0)
(175.39663 -2.8366641 0)
(175.88693 -2.6621048 0)
(176.34442 -2.4693523 0)
(176.76556 -2.2590377 0)
(177.14694 -2.032006 0)
(177.48532 -1.7893125 0)
(177.77768 -1.5322147 0)
(178.02128 -1.2621592 0)
(178.21366 -0.98076982 0)
(178.3527 -0.68980749 0)
(178.43663 -0.39117456 0)
(178.4641 -0.086896127 0)
(178.4342 0.22093356 0)
(178.34641 0.53019716 0)
(178.20063 0.83875529 0)
(177.9972 1.144479 0)
(177.73688 1.4452823 0)
(177.42083 1.739149 0)
(177.05062 2.0241562 0)
(176.62816 2.2984948 0)
(176.15571 2.5604878 0)
(175.63583 2.8086039 0)
(175.07137 3.0414681 0)
(174.46538 3.2578693 0)
(173.82117 3.4567642 0)
(173.14217 3.6372797 0)
(172.43198 3.7987131 0)
(171.69431 3.9405308 0)
(170.93294 4.0623678 0)
(170.15168 4.1640244 0)
(169.35439 4.245465 0)
(168.54489 4.3068145 0)
(167.72696 4.348355 0)
(166.90433 4.3705212 0)
(166.08058 4.3738937 0)
(165.25922 4.3591913 0)
(164.44354 4.3272602 0)
(163.63669 4.2790615 0)
(162.8416 4.2156563 0)
(162.06097 4.1381887 0)
(161.29727 4.0478674 0)
(160.5527 3.9459464 0)
(159.82922 3.833705 0)
(159.12853 3.7124281 0)
(158.45207 3.5833878 0)
(157.80102 3.4478254 0)
(157.17633 3.3069366 0)
(156.57873 3.1618572 0)
(156.00872 3.0136527 0)
(155.46662 2.8633091 0)
(154.95258 2.7117269 0)
(154.46657 2.5597171 0)
(154.00845 2.4079992 0)
(153.57795 2.2572018 0)
(153.1747 2.1078642 0)
(152.79827 1.9604397 0)
(152.44814 1.8153007 0)
(152.12378 1.6727438 0)
(151.82458 1.5329971 0)
(151.54997 1.3962269 0)
(151.29933 1.2625461 0)
(151.07207 1.132022 0)
(150.86761 1.0046864 0)
(150.68543 0.88054765 0)
(150.52506 0.75960037 0)
(150.38611 0.6418184 0)
(150.26816 0.52715234 0)
(150.17083 0.41558309 0)
(150.09398 0.30808379 0)
(150.03911 0.20317739 0)
(150.00877 0.10093324 0)
(154.05027 -1.460746 0)
(154.29575 -1.4583576 0)
(154.4837 -1.4595949 0)
(154.67505 -1.4644844 0)
(154.86691 -1.47302 0)
(155.0601 -1.485236 0)
(155.25526 -1.5011945 0)
(155.45302 -1.5209739 0)
(155.65405 -1.5446602 0)
(155.85898 -1.5723401 0)
(156.0685 -1.6040982 0)
(156.28326 -1.6400125 0)
(156.50395 -1.6801534 0)
(156.73128 -1.7245799 0)
(156.96594 -1.7733384 0)
(157.20866 -1.8264588 0)
(157.46017 -1.8839533 0)
(157.7212 -1.9458108 0)
(157.99248 -2.0119962 0)
(158.27476 -2.0824441 0)
(158.56877 -2.1570573 0)
(158.87523 -2.2357003 0)
(159.19486 -2.3181975 0)
(159.52833 -2.4043266 0)
(159.87632 -2.4938165 0)
(160.23944 -2.5863406 0)
(160.61826 -2.6815155 0)
(161.01331 -2.7788936 0)
(161.42503 -2.8779635 0)
(161.85381 -2.9781427 0)
(162.29991 -3.078779 0)
(162.76351 -3.1791452 0)
(163.24468 -3.2784406 0)
(163.74333 -3.3757906 0)
(164.25925 -3.4702461 0)
(164.79206 -3.5607891 0)
(165.34119 -3.646334 0)
(165.90591 -3.7257359 0)
(166.48526 -3.7977955 0)
(167.07809 -3.8612712 0)
(167.68301 -3.914888 0)
(168.29841 -3.9573527 0)
(168.92243 -3.9873675 0)
(169.55297 -4.0036484 0)
(170.18772 -4.0049428 0)
(170.82409 -3.9900503 0)
(171.45929 -3.9578439 0)
(172.0903 -3.907292 0)
(172.71391 -3.8374808 0)
(173.32671 -3.7476371 0)
(173.92518 -3.6371495 0)
(174.50562 -3.5055892 0)
(175.06429 -3.352728 0)
(175.59737 -3.178555 0)
(176.10105 -2.9832888 0)
(176.57154 -2.7673872 0)
(177.00516 -2.5315525 0)