/*--------------------------------*- C++ -*----------------------------------*\
| =========                 |                                                 |
| \\      /  F ield         | foam-extend: Open Source CFD                    |
|  \\    /   O peration     | Version:     4.1                                |
|   \\  /    A nd           | Web:         http://www.foam-extend.org         |
|    \\/     M anipulation  |                                                 |
\*---------------------------------------------------------------------------*/
FoamFile
{
    version     2.0;
    format      ascii;
    class       volVectorField;
    location    "0.05";
    object      U;
}
// * * * * * * * * * * * * * * * * * * * * * * * * * * * * * * * * * * * * * //

dimensions      [0 1 -1 0 0 0 0];

internalField   nonuniform List<vector> 
16796
(
(150.21456 0.1286135 0)
(149.68998 0.11609308 0)
(149.42081 0.097226391 0)
(149.1324 0.078623284 0)
(148.90812 0.05849319 0)
(148.72434 0.038249051 0)
(148.58708 0.018248924 0)
(148.4922 -0.00079640591 0)
(148.43697 -0.018263428 0)
(148.41678 -0.033437695 0)
(148.4263 -0.045362914 0)
(148.45807 -0.053050898 0)
(148.50294 -0.056625995 0)
(148.55342 -0.05721802 0)
(148.6032 -0.055842236 0)
(148.64698 -0.053204967 0)
(148.68036 -0.049815563 0)
(148.69972 -0.046065695 0)
(148.70225 -0.042180814 0)
(148.68608 -0.037940696 0)
(148.64854 -0.03285474 0)
(148.58728 -0.026692659 0)
(148.50057 -0.019493671 0)
(148.38739 -0.011399829 0)
(148.2475 -0.0026334383 0)
(148.08147 0.0065197837 0)
(147.8907 0.015729424 0)
(147.67742 0.024636558 0)
(147.44463 0.032870418 0)
(147.19605 0.040063507 0)
(146.93602 0.045865048 0)
(146.66945 0.049951749 0)
(146.40166 0.052035791 0)
(146.13832 0.051871324 0)
(145.88531 0.049258404 0)
(145.64861 0.044046686 0)
(145.43421 0.036139691 0)
(145.24802 0.025501431 0)
(145.09573 0.012170253 0)
(144.98274 -0.0037142555 0)
(144.91398 -0.02185614 0)
(144.89367 -0.041620114 0)
(144.92549 -0.061544781 0)
(145.00886 -0.080121023 0)
(145.14194 -0.097183622 0)
(145.3235 -0.11324761 0)
(145.55216 -0.12855588 0)
(145.82628 -0.14315104 0)
(146.14385 -0.15696234 0)
(146.50233 -0.16986559 0)
(146.89872 -0.18172215 0)
(147.32958 -0.19239797 0)
(147.79105 -0.20177255 0)
(148.27889 -0.20974314 0)
(148.78861 -0.21622683 0)
(149.31546 -0.22116152 0)
(149.85454 -0.22450647 0)
(150.40085 -0.22624237 0)
(150.94934 -0.22637109 0)
(151.49502 -0.22491513 0)
(152.03297 -0.22191671 0)
(152.55843 -0.21743661 0)
(153.06686 -0.21155276 0)
(153.55397 -0.20435855 0)
(154.01578 -0.19596098 0)
(154.44866 -0.18647863 0)
(154.84935 -0.17603952 0)
(155.21502 -0.16477879 0)
(155.54326 -0.15283627 0)
(155.8321 -0.14035389 0)
(156.08002 -0.12747273 0)
(156.28599 -0.11432932 0)
(156.44939 -0.10105093 0)
(156.57007 -0.08774824 0)
(156.64827 -0.074502279 0)
(156.68458 -0.061312899 0)
(156.67998 -0.047955956 0)
(156.63516 -0.034105697 0)
(156.55015 -0.020043099 0)
(156.42657 -0.0064128532 0)
(156.26661 0.0064275545 0)
(156.07291 0.018287236 0)
(155.84839 0.029049109 0)
(155.59621 0.038636823 0)
(155.31965 0.046998518 0)
(155.02214 0.054101341 0)
(154.70713 0.05992911 0)
(154.37815 0.06448115 0)
(154.03867 0.067771459 0)
(153.69212 0.06982789 0)
(153.34184 0.070691187 0)
(152.99107 0.070413923 0)
(152.64286 0.069059273 0)
(152.30011 0.066699601 0)
(151.9655 0.063414994 0)
(151.64148 0.059291674 0)
(151.33029 0.0544204 0)
(151.0339 0.048894822 0)
(150.75403 0.042809914 0)
(150.49214 0.036260496 0)
(150.24944 0.02933981 0)
(150.02691 0.022138304 0)
(149.82526 0.014742575 0)
(149.64499 0.0072344827 0)
(149.48639 -0.00030948918 0)
(149.34953 -0.0078186281 0)
(149.23433 -0.015228221 0)
(149.14053 -0.022479452 0)
(149.06772 -0.029518928 0)
(149.01537 -0.036297758 0)
(148.98285 -0.042770009 0)
(148.9694 -0.048886701 0)
(148.97423 -0.054581349 0)
(148.99631 -0.059833212 0)
(149.03467 -0.064680548 0)
(149.08838 -0.069131352 0)
(149.1565 -0.073146528 0)
(149.23806 -0.076656851 0)
(149.33202 -0.079549893 0)
(149.43697 -0.081642463 0)
(149.55122 -0.082445399 0)
(149.67579 -0.080952883 0)
(149.80549 -0.078008741 0)
(149.8885 -0.070565235 0)
(168.58923 0.36783975 0)
(168.11643 0.33681124 0)
(167.86234 0.29581543 0)
(167.58365 0.255657 0)
(167.34876 0.21441707 0)
(167.13557 0.17422741 0)
(166.94729 0.13575609 0)
(166.77931 0.10004844 0)
(166.62878 0.067963053 0)
(166.49203 0.040362036 0)
(166.36533 0.018188397 0)
(166.24608 0.0023882183 0)
(166.13265 -0.0067692179 0)
(166.02134 -0.0096701461 0)
(165.90739 -0.0067864008 0)
(165.78557 0.0013676783 0)
(165.65066 0.014201593 0)
(165.49769 0.031040062 0)
(165.32217 0.051172122 0)
(165.12012 0.074041233 0)
(164.88998 0.099167266 0)
(164.63146 0.12586454 0)
(164.34517 0.15331001 0)
(164.03264 0.18066737 0)
(163.69616 0.2071041 0)
(163.3387 0.23181144 0)
(162.96385 0.25402635 0)
(162.57566 0.27304819 0)
(162.17858 0.28825478 0)
(161.7773 0.29911436 0)
(161.3767 0.30519492 0)
(160.98168 0.30616945 0)
(160.5971 0.30181732 0)
(160.22765 0.29202325 0)
(159.87779 0.27677261 0)
(159.5516 0.25614475 0)
(159.25278 0.23030581 0)
(158.98453 0.19950063 0)
(158.74953 0.16404908 0)
(158.54993 0.12434668 0)
(158.38729 0.080879885 0)
(158.26276 0.034332325 0)
(158.17682 -0.014052337 0)
(158.13296 -0.062837925 0)
(158.13426 -0.11126385 0)
(158.18152 -0.15895224 0)
(158.27445 -0.20544161 0)
(158.4118 -0.25022137 0)
(158.59162 -0.29276214 0)
(158.81136 -0.3325445 0)
(159.06797 -0.36908043 0)
(159.35793 -0.40192627 0)
(159.67732 -0.43069137 0)
(160.02186 -0.45504393 0)
(160.387 -0.47471491 0)
(160.76795 -0.48950047 0)
(161.15976 -0.49926332 0)
(161.55739 -0.50393304 0)
(161.95576 -0.50350529 0)
(162.34984 -0.49804024 0)
(162.73466 -0.48766002 0)
(163.10544 -0.47254532 0)
(163.45758 -0.45293131 0)
(163.78676 -0.42910281 0)
(164.08896 -0.40138893 0)
(164.36049 -0.37015718 0)
(164.59806 -0.33580743 0)
(164.79878 -0.29876541 0)
(164.96018 -0.2594764 0)
(165.08023 -0.21839891 0)
(165.15737 -0.17599843 0)
(165.19049 -0.13274118 0)
(165.17893 -0.08908838 0)
(165.12247 -0.045489063 0)
(165.02136 -0.0023599667 0)
(164.87626 0.039927267 0)
(164.6882 0.081110769 0)
(164.45931 0.1210851 0)
(164.19304 0.15950827 0)
(163.89187 0.19584158 0)
(163.55824 0.2297144 0)
(163.19465 0.26085005 0)
(162.80377 0.28903249 0)
(162.38841 0.3140946 0)
(161.9515 0.33591171 0)
(161.49607 0.35439971 0)
(161.02521 0.36951395 0)
(160.54205 0.38124833 0)
(160.04968 0.38963406 0)
(159.55118 0.39473811 0)
(159.04952 0.39666103 0)
(158.5476 0.39553439 0)
(158.04815 0.39151768 0)
(157.55376 0.3847948 0)
(157.06685 0.37557022 0)
(156.58963 0.36406492 0)
(156.12409 0.35051217 0)
(155.67204 0.33515329 0)
(155.23501 0.31823349 0)
(154.81435 0.29999797 0)
(154.41118 0.28068819 0)
(154.02636 0.26053854 0)
(153.6606 0.23977346 0)
(153.31436 0.21860495 0)
(152.98794 0.19723059 0)
(152.68145 0.17583207 0)
(152.39485 0.15457417 0)
(152.12796 0.13360411 0)
(151.88044 0.11305157 0)
(151.65188 0.093028911 0)
(151.44175 0.073631952 0)
(151.24945 0.054944675 0)
(151.07429 0.037053406 0)
(150.91568 0.020021462 0)
(150.77291 0.0038574466 0)
(150.64512 -0.011436117 0)
(150.53141 -0.025839182 0)
(150.43085 -0.039311527 0)
(150.3425 -0.051779847 0)
(150.26517 -0.063114644 0)
(150.19773 -0.072710778 0)
(150.14033 -0.079211807 0)
(150.08909 -0.084484036 0)
(150.03192 -0.084326959 0)
(169.83073 0.58415273 0)
(169.38432 0.53200423 0)
(169.14804 0.47379446 0)
(168.88641 0.41646646 0)
(168.66395 0.36010374 0)
(168.45858 0.30655253 0)
(168.27264 0.25688455 0)
(168.10108 0.21226004 0)
(167.94067 0.17365195 0)
(167.78747 0.14188963 0)
(167.63771 0.11754828 0)
(167.48761 0.10100844 0)
(167.33351 0.092725256 0)
(167.17191 0.093063986 0)
(166.99946 0.10194918 0)
(166.81302 0.11891976 0)
(166.60977 0.14324736 0)
(166.38732 0.17399769 0)
(166.14379 0.21004141 0)
(165.8779 0.25000712 0)
(165.58898 0.29240226 0)
(165.27703 0.33582211 0)
(164.94281 0.37895084 0)
(164.58774 0.42051086 0)
(164.21388 0.45927679 0)
(163.82393 0.4940952 0)
(163.42111 0.52390779 0)
(163.00916 0.54777163 0)
(162.5922 0.56487923 0)
(162.17471 0.57457386 0)
(161.76135 0.5763623 0)
(161.35695 0.56992224 0)
(160.96632 0.55510503 0)
(160.59419 0.5319339 0)
(160.24513 0.50059748 0)
(159.9234 0.46143878 0)
(159.63288 0.41494257 0)
(159.37704 0.36171817 0)
(159.15879 0.30248309 0)
(158.98051 0.23804004 0)
(158.84396 0.16924916 0)
(158.75036 0.096962208 0)
(158.70038 0.021878509 0)
(158.69415 -0.05518616 0)
(158.73146 -0.13292637 0)
(158.81176 -0.20994251 0)
(158.93381 -0.28508231 0)
(159.09579 -0.35733302 0)
(159.29538 -0.42576882 0)
(159.52978 -0.48953524 0)
(159.7958 -0.54784931 0)
(160.0899 -0.60000716 0)
(160.40821 -0.64539271 0)
(160.74661 -0.68348524 0)
(161.10077 -0.71386515 0)
(161.46623 -0.73621776 0)
(161.8384 -0.75033547 0)
(162.21265 -0.75611825 0)
(162.58439 -0.7535725 0)
(162.94906 -0.74280835 0)
(163.30222 -0.72403557 0)
(163.63962 -0.69755794 0)
(163.95718 -0.66376654 0)
(164.25111 -0.62313166 0)
(164.5179 -0.57619392 0)
(164.75434 -0.52355453 0)
(164.9576 -0.46586507 0)
(165.12522 -0.40381679 0)
(165.25512 -0.33813014 0)
(165.34564 -0.26954425 0)
(165.3955 -0.19880689 0)
(165.40386 -0.1266651 0)
(165.37026 -0.053858287 0)
(165.29466 0.018889582 0)
(165.1774 0.090881777 0)
(165.01922 0.16142853 0)
(164.82129 0.22982761 0)
(164.58502 0.29536884 0)
(164.31214 0.35757568 0)
(164.00465 0.41612204 0)
(163.66479 0.47062447 0)
(163.29499 0.5207101 0)
(162.8979 0.56605524 0)
(162.47636 0.60639581 0)
(162.03331 0.64153084 0)
(161.57181 0.67132304 0)
(161.09495 0.69569852 0)
(160.6059 0.71464577 0)
(160.10776 0.72821394 0)
(159.60363 0.73651027 0)
(159.09651 0.73969669 0)
(158.58931 0.73798549 0)
(158.08478 0.73163423 0)
(157.58553 0.72094001 0)
(157.09398 0.70623306 0)
(156.61235 0.68787008 0)
(156.14264 0.66622736 0)
(155.68666 0.64169386 0)
(155.24595 0.61466451 0)
(154.82185 0.58553388 0)
(154.41546 0.55469027 0)
(154.02768 0.52251051 0)
(153.65918 0.48935538 0)
(153.31042 0.45556582 0)
(152.9817 0.42145992 0)
(152.67311 0.38733078 0)
(152.38461 0.35344494 0)
(152.11599 0.32004161 0)
(151.86693 0.2873324 0)
(151.63699 0.25550129 0)
(151.42562 0.22470467 0)
(151.23221 0.19507045 0)
(151.05607 0.16669478 0)
(150.89645 0.13966471 0)
(150.75255 0.11407283 0)
(150.62354 0.089992459 0)
(150.50857 0.067481953 0)
(150.40676 0.046614393 0)
(150.31719 0.02749044 0)
(150.23886 0.010281901 0)
(150.17093 -0.0044827475 0)
(150.1128 -0.015894925 0)
(150.06121 -0.024700269 0)
(150.01816 -0.02735967 0)
(169.87004 0.79860397 0)
(169.42537 0.72334829 0)
(169.19055 0.64686967 0)
(168.9315 0.57235567 0)
(168.71187 0.50094934 0)
(168.50968 0.43441625 0)
(168.32705 0.37413161 0)
(168.15883 0.32141793 0)
(168.00165 0.27741267 0)
(167.85145 0.24308539 0)
(167.70428 0.21917387 0)
(167.55615 0.20613045 0)
(167.40319 0.2040876 0)
(167.24183 0.21281681 0)
(167.06879 0.23175321 0)
(166.88107 0.26007239 0)
(166.67603 0.29672542 0)
(166.45144 0.34046991 0)
(166.20555 0.38990875 0)
(165.93716 0.4435141 0)
(165.6456 0.49968005 0)
(165.33085 0.55675851 0)
(164.99352 0.61306026 0)
(164.63494 0.66688688 0)
(164.25709 0.71658206 0)
(163.86261 0.76057182 0)
(163.45471 0.79740544 0)
(163.03715 0.82578973 0)
(162.61411 0.84462092 0)
(162.19013 0.85300853 0)
(161.77 0.85029418 0)
(161.35865 0.83606215 0)
(160.96104 0.810143 0)
(160.58207 0.77261022 0)
(160.22643 0.72377112 0)
(159.89855 0.66415126 0)
(159.60251 0.59447796 0)
(159.34191 0.51565897 0)
(159.11987 0.42876595 0)
(158.93895 0.33501678 0)
(158.80112 0.23577039 0)
(158.70772 0.13250979 0)
(158.65946 0.026767404 0)
(158.65636 -0.079936936 0)
(158.69788 -0.18614979 0)
(158.78305 -0.2905125 0)
(158.91041 -0.39170888 0)
(159.07796 -0.48847781 0)
(159.28326 -0.57963075 0)
(159.52338 -0.66406445 0)
(159.795 -0.74077399 0)
(160.09449 -0.80886432 0)
(160.41791 -0.86755996 0)
(160.76107 -0.91621283 0)
(161.11963 -0.95430828 0)
(161.48908 -0.98146905 0)
(161.86485 -0.9974576 0)
(162.24234 -1.0021764 0)
(162.61695 -0.99566636 0)
(162.98419 -0.97810347 0)
(163.33963 -0.94979337 0)
(163.67906 -0.91116438 0)
(163.99844 -0.86275873 0)
(164.29398 -0.80522225 0)
(164.5622 -0.73929285 0)
(164.7999 -0.66578786 0)
(165.00426 -0.58559067 0)
(165.17279 -0.49963671 0)
(165.30343 -0.40889955 0)
(165.39447 -0.31437681 0)
(165.44466 -0.21707634 0)
(165.45311 -0.11800327 0)
(165.41937 -0.01814944 0)
(165.3434 0.08152365 0)
(165.22551 0.18009024 0)
(165.06641 0.27669943 0)
(164.86717 0.3705397 0)
(164.62914 0.46083167 0)
(164.35402 0.54683267 0)
(164.04382 0.62784955 0)
(163.70086 0.70325517 0)
(163.32764 0.77251048 0)
(162.92689 0.83516301 0)
(162.50149 0.89084752 0)
(162.05442 0.9392863 0)
(161.5888 0.98028918 0)
(161.10778 1.0137534 0)
(160.61455 1.0396622 0)
(160.11228 1.0580833 0)
(159.60409 1.0691647 0)
(159.09304 1.0731306 0)
(158.58205 1.0702755 0)
(158.07393 1.0609569 0)
(157.57129 1.0455872 0)
(157.07658 1.0246254 0)
(156.59205 0.99856704 0)
(156.1197 0.96793522 0)
(155.66134 0.93327055 0)
(155.21853 0.89512196 0)
(154.7926 0.85403781 0)
(154.38466 0.81055771 0)
(153.99556 0.76520522 0)
(153.62599 0.71848152 0)
(153.2764 0.67086015 0)
(152.94705 0.62278286 0)
(152.63804 0.57465668 0)
(152.34929 0.52685189 0)
(152.0806 0.47970107 0)
(151.83161 0.43349905 0)
(151.60187 0.38850367 0)
(151.39083 0.34493713 0)
(151.19785 0.30298759 0)
(151.02224 0.26280747 0)
(150.86322 0.22451711 0)
(150.72003 0.18821255 0)
(150.59183 0.15397551 0)
(150.47782 0.12188988 0)
(150.37717 0.092066053 0)
(150.28904 0.064669338 0)
(150.21262 0.039991609 0)
(150.14732 0.018668472 0)
(150.09246 0.0015793012 0)
(150.046 -0.010514392 0)
(150.01224 -0.012849351 0)
(169.83593 1.0148896 0)
(169.39105 0.91806968 0)
(169.15679 0.82257944 0)
(168.89957 0.73027082 0)
(168.6829 0.64305154 0)
(168.48474 0.56271053 0)
(168.30711 0.49087043 0)
(168.14474 0.42896928 0)
(167.99415 0.37822415 0)
(167.85116 0.33960902 0)
(167.7117 0.31382578 0)
(167.57166 0.30129903 0)
(167.42708 0.30218083 0)
(167.27413 0.31630021 0)
(167.10925 0.34310111 0)
(166.92916 0.3816511 0)
(166.73095 0.43068273 0)
(166.51216 0.4886355 0)
(166.27086 0.55369735 0)
(166.00567 0.6238447 0)
(165.71587 0.69691376 0)
(165.40139 0.7706793 0)
(165.0629 0.84291141 0)
(164.70178 0.91141556 0)
(164.32009 0.97408118 0)
(163.92057 1.0289252 0)
(163.50658 1.0741389 0)
(163.08201 1.1081275 0)
(162.65121 1.1295483 0)
(162.21889 1.137339 0)
(161.79003 1.1307403 0)
(161.36973 1.1093084 0)
(160.96314 1.0729183 0)
(160.57532 1.0217579 0)
(160.21114 0.95631447 0)
(159.87516 0.87735099 0)
(159.57158 0.78588028 0)
(159.30411 0.68312953 0)
(159.07595 0.57050727 0)
(158.88972 0.44956277 0)
(158.74744 0.32195356 0)
(158.65051 0.18940616 0)
(158.59973 0.053688525 0)
(158.59528 -0.083380136 0)
(158.63671 -0.21991016 0)
(158.72303 -0.35400589 0)
(158.85267 -0.48387491 0)
(159.02355 -0.6078516 0)
(159.2331 -0.72439805 0)
(159.47829 -0.83210867 0)
(159.75572 -0.92971755 0)
(160.06165 -1.0161069 0)
(160.39202 -1.0903156 0)
(160.74257 -1.1515463 0)
(161.10884 -1.1991713 0)
(161.48622 -1.232736 0)
(161.87005 -1.2519611 0)
(162.25563 -1.2567422 0)
(162.63828 -1.2471476 0)
(163.01338 -1.2234138 0)
(163.37647 -1.1859393 0)
(163.72321 -1.1352758 0)
(164.04951 -1.0721179 0)
(164.35151 -0.99729059 0)
(164.62565 -0.91173525 0)
(164.86869 -0.81649433 0)
(165.07775 -0.71269494 0)
(165.2503 -0.60153164 0)
(165.38424 -0.48424944 0)
(165.47787 -0.36212643 0)
(165.52988 -0.23645723 0)
(165.5394 -0.10853822 0)
(165.50599 0.020344238 0)
(165.42961 0.14893654 0)
(165.3106 0.27603005 0)
(165.14972 0.4004738 0)
(164.94808 0.52116895 0)
(164.70715 0.63709585 0)
(164.42868 0.74734326 0)
(164.11474 0.85109676 0)
(163.76766 0.94761311 0)
(163.38999 1.0362321 0)
(162.9845 1.1163895 0)
(162.5541 1.187624 0)
(162.10187 1.249583 0)
(161.63096 1.3020242 0)
(161.14458 1.3448168 0)
(160.646 1.3779403 0)
(160.13843 1.4014826 0)
(159.62505 1.4156351 0)
(159.10897 1.4206874 0)
(158.59316 1.4170189 0)
(158.08045 1.4050904 0)
(157.57352 1.3854333 0)
(157.07482 1.358638 0)
(156.58662 1.3253419 0)
(156.11095 1.286217 0)
(155.64961 1.241957 0)
(155.20417 1.1932658 0)
(154.77595 1.1408457 0)
(154.36604 1.0853869 0)
(153.97531 1.0275585 0)
(153.6044 0.96799978 0)
(153.25374 0.90731421 0)
(152.92358 0.84606371 0)
(152.61399 0.78476502 0)
(152.32488 0.72388706 0)
(152.05599 0.66384952 0)
(151.80696 0.6050225 0)
(151.57731 0.54772693 0)
(151.36647 0.49223565 0)
(151.17379 0.43877531 0)
(150.99854 0.38752856 0)
(150.83996 0.33863955 0)
(150.69725 0.29221776 0)
(150.5696 0.24833944 0)
(150.45618 0.20705797 0)
(150.35621 0.16842283 0)
(150.26892 0.13250126 0)
(150.19362 0.099439441 0)
(150.1299 0.06957742 0)
(150.07724 0.043305831 0)
(150.03496 0.021195082 0)
(150.00817 0.0063890961 0)
(169.79854 1.2279755 0)
(169.35394 1.109098 0)
(169.1217 0.99357885 0)
(168.86779 0.88272971 0)
(168.65585 0.77907603 0)
(168.46371 0.68455775 0)
(168.29324 0.60107428 0)
(168.13903 0.5302474 0)
(167.9974 0.47344382 0)
(167.86395 0.43172235 0)
(167.73435 0.40579976 0)
(167.60425 0.39602071 0)
(167.46939 0.40234286 0)
(167.32574 0.42432078 0)
(167.16949 0.46110334 0)
(166.99718 0.51146138 0)
(166.80575 0.57382303 0)
(166.59258 0.64630909 0)
(166.35562 0.7267771 0)
(166.09339 0.81286659 0)
(165.80509 0.90206009 0)
(165.4906 0.99174318 0)
(165.15056 1.0792617 0)
(164.78633 1.1619748 0)
(164.40003 1.2373212 0)
(163.99446 1.302881 0)
(163.5731 1.3564393 0)
(163.13998 1.3960402 0)
(162.69963 1.4200379 0)
(162.25699 1.4271341 0)
(161.81724 1.4164083 0)
(161.38574 1.3873335 0)
(160.96787 1.3397814 0)
(160.56894 1.2740156 0)
(160.19403 1.1906746 0)
(159.84795 1.0907441 0)
(159.53506 0.97552591 0)
(159.25928 0.84659635 0)
(159.02394 0.7057686 0)
(158.8318 0.55504561 0)
(158.68495 0.39657998 0)
(158.58484 0.23261877 0)
(158.53226 0.065451815 0)
(158.52734 -0.10263563 0)
(158.56957 -0.26939822 0)
(158.65791 -0.43267715 0)
(158.79072 -0.59040564 0)
(158.96587 -0.74063049 0)
(159.1807 -0.88153268 0)
(159.43211 -1.0114453 0)
(159.71661 -1.1288687 0)
(160.03034 -1.2324825 0)
(160.36915 -1.3211563 0)
(160.72865 -1.3939571 0)
(161.10426 -1.450156 0)
(161.49128 -1.4892316 0)
(161.8849 -1.5108718 0)
(162.28031 -1.5149731 0)
(162.6727 -1.5016384 0)
(163.05737 -1.4711712 0)
(163.42971 -1.4240685 0)
(163.78531 -1.3610104 0)
(164.11996 -1.2828479 0)
(164.42973 -1.1905881 0)
(164.71098 -1.0853777 0)
(164.96041 -0.96848427 0)
(165.17507 -0.84127647 0)
(165.35243 -0.70520332 0)
(165.49032 -0.5617732 0)
(165.58704 -0.4125325 0)
(165.64129 -0.25904498 0)
(165.6522 -0.10287357 0)
(165.61934 0.054435724 0)
(165.54269 0.21137855 0)
(165.42261 0.36650028 0)
(165.2599 0.51841626 0)
(165.05568 0.66581081 0)
(164.81144 0.80744566 0)
(164.529 0.94217583 0)
(164.21049 1.0689587 0)
(163.8583 1.1868581 0)
(163.47507 1.2950555 0)
(163.06362 1.3928573 0)
(162.62697 1.4796991 0)
(162.16825 1.5551497 0)
(161.6907 1.6189138 0)
(161.19762 1.6708326 0)
(160.69232 1.7108829 0)
(160.17811 1.7391746 0)
(159.65824 1.755945 0)
(159.13587 1.7615521 0)
(158.61403 1.7564652 0)
(158.09561 1.7412532 0)
(157.58331 1.7165721 0)
(157.07965 1.6831504 0)
(156.58689 1.6417741 0)
(156.10711 1.5932715 0)
(155.6421 1.5384973 0)
(155.19344 1.4783181 0)
(154.76243 1.413598 0)
(154.35017 1.3451857 0)
(153.95749 1.2739034 0)
(153.58502 1.2005367 0)
(153.23317 1.1258263 0)
(152.90216 1.0504621 0)
(152.59201 0.97507845 0)
(152.30262 0.90025122 0)
(152.0337 0.82649632 0)
(151.78486 0.75426952 0)
(151.55559 0.68396718 0)
(151.34528 0.61592761 0)
(151.15327 0.55043293 0)
(150.97881 0.48771123 0)
(150.82113 0.42794113 0)
(150.67941 0.37125775 0)
(150.55284 0.31775948 0)
(150.44061 0.26751917 0)
(150.34194 0.22059998 0)
(150.25609 0.17707515 0)
(150.18244 0.1370734 0)
(150.1206 0.10082647 0)
(150.07004 0.068546612 0)
(150.03055 0.040586839 0)
(150.00681 0.018212083 0)
(169.75642 1.4440777 0)
(169.31236 1.302507 0)
(169.08283 1.1658177 0)
(168.833 1.0352781 0)
(168.62683 0.91391016 0)
(168.4419 0.80385336 0)
(168.27999 0.70726373 0)
(168.13549 0.62594016 0)
(168.00454 0.56139006 0)
(167.88252 0.51476304 0)
(167.76488 0.48682794 0)
(167.64701 0.47794632 0)
(167.52438 0.48805296 0)
(167.39263 0.51663288 0)
(167.24766 0.56270662 0)
(167.08568 0.62484128 0)
(166.90334 0.70118204 0)
(166.69778 0.78949159 0)
(166.46671 0.88720257 0)
(166.2085 0.9914741 0)
(165.92223 1.099266 0)
(165.60772 1.2074141 0)
(165.2656 1.3127103 0)
(164.89729 1.4119751 0)
(164.50499 1.5021384 0)
(164.09165 1.5803116 0)
(163.66092 1.6438631 0)
(163.21706 1.6904815 0)
(162.76483 1.7182346 0)
(162.30945 1.7256139 0)
(161.85637 1.7115692 0)
(161.41125 1.6755262 0)
(160.97975 1.6173911 0)
(160.56745 1.5375399 0)
(160.17971 1.4367963 0)
(159.82154 1.3163938 0)
(159.49753 1.1779352 0)
(159.21177 1.0233371 0)
(158.96774 0.85478009 0)
(158.7683 0.67464769 0)
(158.61565 0.48547729 0)
(158.5113 0.28990173 0)
(158.4561 0.090606823 0)
(158.4502 -0.10971217 0)
(158.49311 -0.30837965 0)
(158.58372 -0.50277324 0)
(158.72033 -0.69039438 0)
(158.90069 -0.86890256 0)
(159.12203 -1.0361346 0)
(159.38114 -1.1901207 0)
(159.67438 -1.3290981 0)
(159.99776 -1.4515224 0)
(160.34699 -1.5560768 0)
(160.71755 -1.64168 0)
(161.1047 -1.7074919 0)
(161.50358 -1.7529168 0)
(161.90926 -1.7776049 0)
(162.31677 -1.7814513 0)
(162.72116 -1.7645927 0)
(163.11757 -1.7274015 0)
(163.50129 -1.6704769 0)
(163.86775 -1.5946336 0)
(164.21266 -1.5008874 0)
(164.53195 -1.3904386 0)
(164.82191 -1.2646526 0)
(165.07914 -1.1250381 0)
(165.30064 -0.97322457 0)
(165.48381 -0.81093723 0)
(165.62647 -0.63997299 0)
(165.72687 -0.46217518 0)
(165.78371 -0.27940938 0)
(165.79612 -0.093541983 0)
(165.76369 0.093579556 0)
(165.68643 0.28015909 0)
(165.56476 0.46447409 0)
(165.39951 0.64487645 0)
(165.19188 0.81980498 0)
(164.94344 0.98780269 0)
(164.65606 1.1475299 0)
(164.33195 1.2977698 0)
(163.97356 1.43743 0)
(163.5836 1.5655521 0)
(163.16498 1.6813205 0)
(162.7208 1.7840703 0)
(162.25429 1.873293 0)
(161.76877 1.9486404 0)
(161.26762 2.0099265 0)
(160.75427 2.0571266 0)
(160.23209 2.0903748 0)
(159.70442 2.1099572 0)
(159.17449 2.116304 0)
(158.64542 2.1099782 0)
(158.12014 2.0916614 0)
(157.60142 2.0621386 0)
(157.0918 2.0222809 0)
(156.59359 1.9730268 0)
(156.10886 1.9153643 0)
(155.63944 1.8503115 0)
(155.18689 1.778899 0)
(154.75252 1.7021533 0)
(154.33739 1.6210809 0)
(153.94233 1.5366548 0)
(153.56793 1.4498031 0)
(153.21456 1.3613994 0)
(152.88242 1.272255 0)
(152.5715 1.1831141 0)
(152.28163 1.09465 0)
(152.01251 1.0074638 0)
(151.76371 0.92208353 0)
(151.53468 0.83896566 0)
(151.3248 0.75849631 0)
(151.13335 0.68099373 0)
(150.95958 0.60671067 0)
(150.80268 0.5358379 0)
(150.66184 0.46850808 0)
(150.53625 0.40480102 0)
(150.42509 0.3447531 0)
(150.32763 0.28837142 0)
(150.24316 0.23565347 0)
(150.17114 0.18662436 0)
(150.11124 0.14136067 0)
(150.06302 0.099931564 0)
(150.02651 0.062577445 0)
(150.00563 0.02983657 0)
(169.71091 1.6567392 0)
(169.26841 1.4914184 0)
(169.04288 1.3324543 0)
(168.79865 1.1813197 0)
(168.60001 1.0415285 0)
(168.4242 0.91549096 0)
(168.27289 0.80565069 0)
(168.1402 0.71401515 0)
(168.02203 0.6422477 0)
(167.91348 0.59158489 0)
(167.80969 0.56281255 0)
(167.70574 0.55623576 0)
(167.59677 0.57166055 0)
(167.47813 0.60838209 0)
(167.34539 0.66518435 0)
(167.19449 0.74035628 0)
(167.0218 0.8317241 0)
(166.82421 0.93669056 0)
(166.59924 1.0522899 0)
(166.34509 1.1752478 0)
(166.0607 1.3020585 0)
(165.74582 1.4290635 0)
(165.40104 1.5525405 0)
(165.02781 1.6687878 0)
(164.62841 1.7742203 0)
(164.20592 1.8654574 0)
(163.76417 1.9394146 0)
(163.30767 1.9933815 0)
(162.84146 2.0250947 0)
(162.37105 2.0327922 0)
(161.90225 2.0152556 0)
(161.44105 1.9718327 0)
(160.99347 1.9024422 0)
(160.56542 1.8075619 0)
(160.16259 1.6882016 0)
(159.79029 1.5458584 0)
(159.45337 1.3824677 0)
(159.15614 1.200338 0)
(158.90226 1.0020897 0)
(158.69475 0.79058161 0)
(158.53588 0.56884816 0)
(158.42723 0.34002479 0)
(158.36964 0.10729047 0)
(158.36324 -0.12619361 0)
(158.40749 -0.35733284 0)
(158.5012 -0.58315116 0)
(158.64259 -0.80080864 0)
(158.82928 -1.0076356 0)
(159.05841 -1.2011602 0)
(159.32662 -1.3791307 0)
(159.63012 -1.539534 0)
(159.96479 -1.6806093 0)
(160.32618 -1.800859 0)
(160.70959 -1.8990572 0)
(161.11013 -1.9742556 0)
(161.52278 -2.0257872 0)
(161.94241 -2.0532673 0)
(162.3639 -2.0565926 0)
(162.78214 -2.0359373 0)
(163.19212 -1.9917462 0)
(163.58895 -1.9247248 0)
(163.96794 -1.8358266 0)
(164.32465 -1.7262363 0)
(164.65492 -1.5973511 0)
(164.95489 -1.4507577 0)
(165.22111 -1.2882078 0)
(165.45048 -1.1115909 0)
(165.64036 -0.92290615 0)
(165.78852 -0.72423327 0)
(165.89319 -0.51770361 0)
(165.95306 -0.3054719 0)
(165.96727 -0.089691086 0)
(165.93544 0.1275107 0)
(165.85759 0.34405725 0)
(165.73418 0.55794054 0)
(165.56609 0.76724925 0)
(165.35459 0.97017433 0)
(165.1013 1.1650225 0)
(164.80818 1.3502302 0)
(164.47751 1.5243744 0)
(164.11184 1.6861809 0)
(163.71398 1.834535 0)
(163.28694 1.9684898 0)
(162.83392 2.0872742 0)
(162.35825 2.1902997 0)
(161.86336 2.2771642 0)
(161.35275 2.3476548 0)
(160.82994 2.4017472 0)
(160.29842 2.4396023 0)
(159.76161 2.4615597 0)
(159.22285 2.4681275 0)
(158.68533 2.4599691 0)
(158.15206 2.4378868 0)
(157.62586 2.4028039 0)
(157.10932 2.3557435 0)
(156.60479 2.2978074 0)
(156.11437 2.2301539 0)
(155.63988 2.1539755 0)
(155.1829 2.0704781 0)
(154.74472 1.9808611 0)
(154.32638 1.8862996 0)
(153.92869 1.7879282 0)
(153.55219 1.6868279 0)
(153.19724 1.5840148 0)
(152.86397 1.480432 0)
(152.55233 1.3769434 0)
(152.26212 1.2743299 0)
(151.99299 1.1732879 0)
(151.74446 1.0744287 0)
(151.51594 0.97827991 0)
(151.30676 0.88528704 0)
(151.11619 0.79581604 0)
(150.94342 0.71015577 0)
(150.78764 0.62852122 0)
(150.648 0.55105705 0)
(150.52366 0.4778418 0)
(150.41383 0.4088943 0)
(150.31773 0.34418258 0)
(150.23468 0.28363637 0)
(150.16416 0.22716744 0)
(150.10582 0.17466964 0)
(150.05926 0.12597869 0)
(150.02458 0.080991026 0)
(150.00515 0.039561484 0)
(169.65809 1.8714608 0)
(169.2175 1.6809464 0)
(168.99671 1.4981406 0)
(168.75906 1.3248266 0)
(168.56922 1.164984 0)
(168.40404 1.021321 0)
(168.26505 0.89658281 0)
(168.1461 0.79301055 0)
(168.04283 0.71245657 0)
(167.95003 0.65629125 0)
(167.86252 0.62537993 0)
(167.77501 0.62004875 0)
(167.68229 0.64006138 0)
(167.5793 0.68460298 0)
(167.46126 0.75227667 0)
(167.32371 0.84111607 0)
(167.16269 0.94861769 0)
(166.97478 1.0717835 0)
(166.75723 1.2071833 0)
(166.50801 1.3510234 0)
(166.22592 1.4992359 0)
(165.91061 1.6475699 0)
(165.56266 1.7916978 0)
(165.18354 1.927317 0)
(164.77566 2.0502636 0)
(164.34228 2.1566161 0)
(163.88746 2.242803 0)
(163.416 2.3056937 0)
(162.9333 2.3426837 0)
(162.44523 2.3517577 0)
(161.958 2.3315384 0)
(161.478 2.2813111 0)
(161.01168 2.2010286 0)
(160.56532 2.0912942 0)
(160.14498 1.9533279 0)
(159.7563 1.7889111 0)
(159.40442 1.6003259 0)
(159.0939 1.3902761 0)
(158.8286 1.1618134 0)
(158.61168 0.91825037 0)
(158.44554 0.66308837 0)
(158.33182 0.39993402 0)
(158.27138 0.1324375 0)
(158.26435 -0.13577534 0)
(158.31014 -0.40115119 0)
(158.40749 -0.6602441 0)
(158.55448 -0.90977986 0)
(158.74864 -1.1466973 0)
(158.98691 -1.3681745 0)
(159.26579 -1.5716504 0)
(159.58133 -1.7548431 0)
(159.9292 -1.9157624 0)
(160.30478 -2.0527211 0)
(160.70318 -2.1643422 0)
(161.11931 -2.2495656 0)
(161.54795 -2.3076506 0)
(161.9838 -2.3381774 0)
(162.42153 -2.3410456 0)
(162.85585 -2.3164698 0)
(163.28155 -2.2649724 0)
(163.69358 -2.1873723 0)
(164.08708 -2.084771 0)
(164.45745 -1.9585342 0)
(164.80039 -1.8102702 0)
(165.11194 -1.6418042 0)
(165.38851 -1.4551506 0)
(165.62694 -1.2524817 0)
(165.82451 -1.0360951 0)
(165.97894 -0.8083807 0)
(166.08843 -0.57178702 0)
(166.15168 -0.32878842 0)
(166.16782 -0.081855747 0)
(166.1365 0.16657072 0)
(166.05779 0.41412146 0)
(165.9322 0.65852173 0)
(165.76069 0.89759633 0)
(165.54459 1.1292865 0)
(165.2856 1.351668 0)
(164.98578 1.5629651 0)
(164.6475 1.7615614 0)
(164.27341 1.9460093 0)
(163.86641 2.1150414 0)
(163.42964 2.2675801 0)
(162.96641 2.4027476 0)
(162.48016 2.5198739 0)
(161.97447 2.6185024 0)
(161.45295 2.6983936 0)
(160.91923 2.7595246 0)
(160.37694 2.8020861 0)
(159.8296 2.8264743 0)
(159.28067 2.8332801 0)
(158.73341 2.823273 0)
(158.19093 2.7973825 0)
(157.65612 2.7566765 0)
(157.13162 2.7023369 0)
(156.61982 2.6356346 0)
(156.12284 2.5579037 0)
(155.64252 2.4705154 0)
(155.18043 2.3748541 0)
(154.73786 2.272294 0)
(154.31581 2.1641786 0)
(153.91505 2.0518029 0)
(153.53611 1.9363976 0)
(153.17927 1.819117 0)
(152.84464 1.7010294 0)
(152.5321 1.5831112 0)
(152.24142 1.4662419 0)
(151.97217 1.3512031 0)
(151.72384 1.2386784 0)
(151.49579 1.1292548 0)
(151.28732 1.0234248 0)
(151.09763 0.92158937 0)
(150.92591 0.82406066 0)
(150.77131 0.73106493 0)
(150.63294 0.64274569 0)
(150.50998 0.55916775 0)
(150.4016 0.48032298 0)
(150.30704 0.40613873 0)
(150.22563 0.3364893 0)
(150.15683 0.27121079 0)
(150.10029 0.21009736 0)
(150.0556 0.15287775 0)
(150.02278 0.099280216 0)
(150.00471 0.048844652 0)
(169.59834 2.0828879 0)
(169.16079 1.8656483 0)
(168.94598 1.6575744 0)
(168.71644 1.4608581 0)
(168.53717 1.2799659 0)
(168.38459 1.1179434 0)
(168.26002 0.9778585 0)
(168.15703 0.86219842 0)
(168.07092 0.77300322 0)
(167.9961 0.71176184 0)
(167.92704 0.67938908 0)
(167.85804 0.67618988 0)
(167.7835 0.70183649 0)
(167.69795 0.755355 0)
(167.59619 0.83512496 0)
(167.4734 0.93889304 0)
(167.32522 1.0638065 0)
(167.14793 1.2064572 0)
(166.93846 1.3629482 0)
(166.69457 1.5289674 0)
(166.41486 1.6998852 0)
(166.09888 1.8708546 0)
(165.74715 2.0369318 0)
(165.36121 2.1931923 0)
(164.94355 2.3348629 0)
(164.49762 2.457443 0)
(164.02778 2.5568316 0)
(163.53913 2.6294341 0)
(163.03746 2.6722643 0)
(162.52909 2.6830185 0)
(162.02067 2.6601333 0)
(161.5191 2.6028149 0)
(161.03127 2.5110441 0)
(160.56393 2.3855557 0)
(160.12357 2.2277979 0)
(159.71622 2.0398666 0)
(159.34738 1.8244328 0)
(159.02186 1.584649 0)
(158.74377 1.3240618 0)
(158.51644 1.0465084 0)
(158.34236 0.75603033 0)
(158.22324 0.45677522 0)
(158.15995 0.15292321 0)
(158.15258 -0.15139252 0)
(158.20046 -0.45214732 0)
(158.30222 -0.74548284 0)
(158.45584 -1.0277357 0)
(158.65865 -1.2954798 0)
(158.90746 -1.545557 0)
(159.19858 -1.7751041 0)
(159.52785 -1.9815727 0)
(159.89077 -2.1627438 0)
(160.28249 -2.3167395 0)