/*--------------------------------*- C++ -*----------------------------------*\
| =========                 |                                                 |
| \\      /  F ield         | foam-extend: Open Source CFD                    |
|  \\    /   O peration     | Version:     4.1                                |
|   \\  /    A nd           | Web:         http://www.foam-extend.org         |
|    \\/     M anipulation  |                                                 |
\*---------------------------------------------------------------------------*/
FoamFile
{
    version     2.0;
    format      ascii;
    class       surfaceScalarField;
    location    "0.2";
    object      phi;
}
// * * * * * * * * * * * * * * * * * * * * * * * * * * * * * * * * * * * * * //

dimensions      [0 3 -1 0 0 0 0];

internalField   nonuniform List<scalar> 
6703
(
5.5611233e-06
8.0746873e-06
-1.3635811e-05
9.5536921e-06
2.9405481e-05
-3.339805e-05
1.1766757e-05
6.0972267e-05
-6.3185332e-05
1.0827646e-05
0.0001056097
-0.00010467059
4.3870101e-06
0.00016599431
-0.00015955367
-1.0870194e-05
0.00024390785
-0.00022865065
-3.8455896e-05
0.00033900995
-0.00031142425
-8.0705865e-05
0.00044829345
-0.00040604348
-0.0001380552
0.00056723096
-0.00050988163
-0.00020873815
0.00069248174
-0.0006217988
-0.00029012958
0.00082457504
-0.00074318361
-0.00038046251
0.00096800268
-0.00087766975
-0.00047963038
0.0011289512
-0.0010297833
-0.000588964
0.0013134156
-0.0012040819
-0.00071064373
0.0015273199
-0.0014056402
0.0017778758
-0.0016420513
-0.00084646822
-4.607218e-08
8.1207595e-06
-3.0131823e-07
2.9660727e-05
-1.0695715e-06
6.174052e-05
-2.9617494e-06
0.00010750188
-7.0753714e-06
0.00017010793
-1.5216334e-05
0.00025204882
-3.0295545e-05
0.00035408916
-5.6125044e-05
0.00047412295
-9.642753e-05
0.00060753345
-0.00015350254
0.00074955675
-0.00022773939
0.00089881189
-0.00031854125
0.0010588045
-0.0004257311
0.001236141
-0.0005502307
0.0014379151
-0.00069374845
0.0016708377
0.0019416098
-0.0008574824
1.5500946e-07
7.9657501e-06
6.0222387e-07
2.9213513e-05
1.2755399e-06
6.1067204e-05
1.9070394e-06
0.00010687038
1.8608152e-06
0.00017015415
-9.5471542e-08
0.0002540051
-6.0587343e-06
0.00036005243
-1.9097689e-05
0.0004871619
-4.281891e-05
0.00063125467
-8.0254198e-05
0.00078699204
-0.00013270982
0.00095126752
-0.00019995756
0.0011260523
-0.00028203622
0.0013182197
-0.00037987346
0.0015357524
-0.00049517653
0.0017861408
0.0020765981
-0.00063016489
5.6176763e-07
7.4039824e-06
2.4050241e-06
2.7370256e-05
5.813427e-06
5.7658801e-05
1.0895635e-05
0.00010178817
1.7382107e-05
0.00016366768
2.4366289e-05
0.00024702092
3.0041177e-05
0.00035437754
3.1414165e-05
0.00048578891
2.461915e-05
0.00063804969
6.0061887e-06
0.000805605
-2.6407803e-05
0.00098368151
-7.2404634e-05
0.0011720491
-0.00013085617
0.0013766712
-0.00020102141
0.0016059176
-0.0002830009
0.0018681203
0.0021691196
-0.00037552232
8.9593081e-07
6.5080516e-06
3.9486887e-06
2.4317498e-05
9.8383982e-06
5.1769092e-05
1.9145557e-05
9.2481013e-05
3.2111608e-05
0.00015070163
4.8309403e-05
0.00023082313
6.6277511e-05
0.00033640943
8.3239081e-05
0.00046882734
9.5210762e-05
0.000626078
9.7844983e-05
0.00080297078
8.7976155e-05
0.00099355034
6.4904947e-05
0.0011951203
3.0385318e-05
0.0014111908
-1.3419537e-05
0.0016497225
-6.579469e-05
0.0019204954
0.0022321487
-0.00012882378
1.1275229e-06
5.3805287e-06
5.0575846e-06
2.0387437e-05
1.2832528e-05
4.3994148e-05
2.5520698e-05
7.9792844e-05
4.3967339e-05
0.00013225499
6.8406149e-05
0.00020638432
9.7980463e-05
0.00030683512
0.00013033257
0.00043647523
0.00016154769
0.00059486289
0.00018679646
0.00077772202
0.00020178234
0.00097856445
0.00020445431
0.0011924483
0.00019585627
0.0014197889
0.00017880899
0.0016667698
0.00015611203
0.0019431924
0.0022581681
0.00013009257
1.2666605e-06
4.1138682e-06
5.7594114e-06
1.5894686e-05
1.4816329e-05
3.493723e-05
2.9948041e-05
6.4661133e-05
5.2614882e-05
0.00010958815
8.3818585e-05
0.00017518061
0.00012352376
0.00026712994
0.0001700647
0.00038993429
0.00021985839
0.0005450692
0.00026781452
0.00072976589
0.00030865978
0.0009377192
0.00033888347
0.0011622247
0.00035829171
0.0014003806
0.00036966909
0.0016553924
0.00037707326
0.0019357882
0.0022522823
0.00038295911
1.3053461e-06
2.808522e-06
6.0071423e-06
1.119289e-05
1.5647493e-05
2.529688e-05
3.2098359e-05
4.8210266e-05
5.7397945e-05
8.428856e-05
9.33707e-05
0.00013920786
0.00014098723
0.00021951341
0.00019957614
0.00033134538
0.00026623656
0.00047840878
0.00033593984
0.0006600626
0.00040265418
0.00087100487
0.00046136212
0.0011035167
0.00051015555
0.0013515872
0.00055096101
0.0016145869
0.00058839508
0.0018983541
0.0022134844
0.00062719291
1.2698146e-06
1.5387074e-06
5.9220663e-06
6.540638e-06
1.5611027e-05
1.5607919e-05
3.2439783e-05
3.138151e-05
5.8880472e-05
5.7847872e-05
9.7472515e-05
0.00010061582
0.00015020664
0.00016677929
0.00021762375
0.00026392826
0.00029793082
0.0003981017
0.00038669244
0.00057130098
0.00047760533
0.00078009198
0.00056442892
0.0010166931
0.00064348066
0.0012725355
0.00071541681
0.0015426508
0.00078516756
0.0018286034
0.0021391586
0.00085949342
1.1132894e-06
4.2541806e-07
5.2326926e-06
2.4212348e-06
1.3954996e-05
6.8856159e-06
2.946417e-05
1.5872336e-05
5.4561039e-05
3.2751003e-05
9.2498673e-05
6.2678181e-05
0.00014645008
0.00011282788
0.00021849147
0.00019188688
0.00030831653
0.00030827664
0.00041239556
0.00046722196
0.00052441199
0.00066807555
0.00063721168
0.00090389343
0.00074565304
0.0011640941
0.00084918925
0.0014391146
0.00095323387
0.0017245588
0.0020234718
0.0010689206
9.9234057e-07
-5.669225e-07
4.8232599e-06
-1.4096845e-06
1.3127517e-05
-1.4186413e-06
2.812447e-05
8.7538319e-07
5.2701624e-05
8.1738488e-06
9.0296456e-05
2.5083349e-05
0.0001444632
5.8661133e-05
0.00021806008
0.00011829
0.00031179191
0.00021454482
0.00042317033
0.00035584354
0.00054677122
0.00054447466
0.0006760052
0.00077465945
0.0008055958
0.0010345035
0.00093370168
0.0013110087
0.0010628864
0.001595374
0.0018847297
0.0012016285
2.5325337e-06
-3.0994562e-06
7.7631394e-06
-6.6402903e-06
1.7351178e-05
-1.100668e-05
3.3459829e-05
-1.5233268e-05
5.8710751e-05
-1.7077073e-05
9.5541866e-05
-1.1747766e-05
0.00014477757
9.4254299e-06
0.00020787826
5.5189308e-05
0.00028623556
0.00013618752
0.00037992085
0.00026215825
0.00048677573
0.00043761977
0.0006025434
0.00065889178
0.00072197428
0.00091507261
0.00084060504
0.0011923779
0.00095632105
0.001479658
0.0017692199
0.0010718309
-6.2606771e-06
-7.45995e-06
1.3720627e-05
-1.3070671e-05
-2.6832681e-05
3.3642676e-05
-2.1838769e-05
-5.4872227e-05
6.3640325e-05
-3.3745231e-05
-9.3412899e-05
0.00010531936
-5.0199212e-05
-0.0001437851
0.00016023908
-7.2889678e-05
-0.00020626872
0.00022895918
-0.00010377386
-0.00027969248
0.00031057666
-0.00014498394
-0.00036161718
0.00040282726
-0.00019820902
-0.00044944576
0.00050267085
-0.00026469436
-0.00054211197
0.00060859731
-0.00034522826
-0.00064106683
0.00072160073
-0.00044028803
-0.00074969034
0.00084475011
-0.00055019083
-0.0008718501
0.00098175289
-0.00067539782
-0.001010977
0.001136184
-0.00081758582
-0.0011698817
0.0013120697
-0.0013513537
0.0015172679
-0.00098349998
-1.2629685e-06
-6.1969815e-06
-5.827258e-06
-2.2268392e-05
-1.514828e-05
-4.5551206e-05
-3.0938741e-05
-7.7622438e-05
-5.5121686e-05
-0.00011960216
-8.9724991e-05
-0.00017166541
-0.00013672482
-0.00023269264
-0.00019784936
-0.00030049264
-0.00027443359
-0.00037286154
-0.0003675348
-0.00044901076
-0.000478354
-0.00053024763
-0.0006087041
-0.00061934024
-0.00076121471
-0.00071933949
-0.00093923268
-0.00083295903
-0.0011463323
-0.00096278205
-0.0011121008
-0.0013855852
-1.3739631e-06
-4.8230184e-06
-6.3033171e-06
-1.7339038e-05
-1.6389662e-05
-3.546486e-05
-3.3607579e-05
-6.0404521e-05
-6.0212106e-05
-9.2997629e-05
-9.8547733e-05
-0.00013332979
-0.00015077597
-0.00018046441
-0.00021863067
-0.00023263794
-0.00030337748
-0.00028811472
-0.00040608449
-0.00034630375
-0.00052808441
-0.0004082477
-0.00067134767
-0.00047607699
-0.00083860571
-0.00055208144
-0.0010333031
-0.00063826161
-0.0012597256
-0.00073635961
-0.00084759019
-0.0015242362
-1.5797651e-06
-3.2432533e-06
-7.2443502e-06
-1.1674453e-05
-1.8777035e-05
-2.3932176e-05
-3.8293498e-05
-4.0888058e-05
-6.8119058e-05
-6.3172069e-05
-0.00011055662
-9.0892228e-05
-0.00016760994
-0.00012341109
-0.00024080785
-0.00015944002
-0.00033129522
-0.00019762735
-0.00044020741
-0.00023739157
-0.00056911
-0.00027934511
-0.00072024098
-0.00032494601
-0.00089652039
-0.00037580202
-0.0011014739
-0.00043330808
-0.0013387808
-0.00049905272
-0.00057605502
-0.001610316
-1.6826148e-06
-1.5606385e-06
-7.6470445e-06
-5.710023e-06
-1.9726511e-05
-1.1852709e-05
-4.0124099e-05
-2.049047e-05
-7.1254847e-05
-3.2041321e-05
-0.0001155078
-4.6639276e-05
-0.00017498802
-6.3930869e-05
-0.00025139498
-8.3033061e-05
-0.00034615828
-0.00010286405
-0.00046076387
-0.00012278598
-0.00059705694
-0.00014305204
-0.00075737712
-0.00016462583
-0.00094454421
-0.00018863493
-0.0011619012
-0.00021595113
-0.0014144417
-0.00024651221
-0.0002778566
-0.0017126401
1.6053197e-07
7.9619433e-06
-8.1224753e-06
6.2700604e-07
2.9201559e-05
-2.9668033e-05
1.3383927e-06
6.1046382e-05
-6.1757769e-05
2.0322049e-06
0.00010684207
-0.00010753589
2.0778178e-06
0.00017012342
-0.00017016903
2.4737375e-07
0.00025398223
-0.00025215179
-5.5530848e-06
0.00036006171
-0.00035426125
-1.8391609e-05
0.0004872333
-0.00047439478
-4.1875797e-05
0.0006314122
-0.00060792801
-7.9039343e-05
0.00078724019
-0.00075007664
-0.0001311941
0.00095157069
-0.00089941593
-0.00019810765
0.0011262996
-0.001059386
-0.00027981742
0.0013182441
-0.0012365343
-0.000377253
0.0015354079
-0.0014379723
-0.00049204945
0.0017853551
-0.0016705587
0.0020751718
-0.0019411546
-0.00062606668
-1.5605906e-06
-4.7881008e-11
-7.2704958e-06
-1.1778543e-10
-1.9122745e-05
-4.5945221e-10
-3.9611789e-05
-1.4262838e-09
-7.1650274e-05
-2.8358004e-09
-0.00011828604
-3.5110742e-09
-0.00018221649
-4.2238447e-10
-0.00026526129
1.1745568e-08
-0.00036816456
3.9217416e-08
-0.00049103567
8.5126931e-08
-0.00063423254
1.4483306e-07
-0.00079906299
2.0461369e-07
-0.00098794259
2.4466712e-07
-0.001204132
2.3832959e-07
-0.001450772
1.2775609e-07
-2.2877647e-07
-0.0017283998
-1.5659753e-06
1.5659275e-06
-7.2935318e-06
5.7274387e-06
-1.9179568e-05
1.1885577e-05
-3.9722869e-05
2.0541875e-05
-7.1839572e-05
3.2113867e-05
-0.00011857872
4.6735641e-05
-0.00018263482
6.4055674e-05
-0.00026581856
8.3195491e-05
-0.00036885733
0.00010307798
-0.00049183464
0.00012306244
-0.00063507227
0.00014338246
-0.00079982804
0.00016496039
-0.00098843855
0.00018885518
-0.001204021
0.00021582081
-0.001449587
0.00024569371
0.00027656718
-0.0017263829
-1.6853933e-06
3.2513207e-06
-7.6589445e-06
1.170099e-05
-1.9755841e-05
2.3982473e-05
-4.0181288e-05
4.0967322e-05
-7.1351829e-05
6.3284407e-05
-0.00011565606
9.103987e-05
-0.00017519416
0.00012359377
-0.00025165256
0.0001596539
-0.00034643584
0.00019786125
-0.00046099086
0.00023761746
-0.00059710882
0.00027950042
-0.00075705869
0.00032491025
-0.00094357633
0.00037537282
-0.0011599123
0.0004321568
-0.001410742
0.0004965234
0.00057068446
-0.0017048593
-1.5692178e-06
4.8205385e-06
-7.1983076e-06
1.733008e-05
-1.8662788e-05
3.5446954e-05
-3.8070875e-05
6.0375409e-05
-6.7742168e-05
9.29557e-05
-0.00010997601
0.00013327371
-0.0001667724
0.00018039017
-0.0002396495
0.000232531
-0.00032972515
0.0002879369
-0.00043808499
0.0003459773
-0.00056622487
0.0004076403
-0.0007163052
0.00047499058
-0.00089118768
0.0005502553
-0.0010944391
0.00063540818
-0.0013300033
0.00073208766
0.00084041881
-0.0015997377
-1.3604806e-06
6.1810191e-06
-6.2447981e-06
2.2214397e-05
-1.6244554e-05
4.544671e-05
-3.3323764e-05
7.7454619e-05
-5.9727833e-05
0.00011935977
-9.7793105e-05
0.00017133898
-0.00014967336
0.00023227042
-0.00021709172
0.00029994935
-0.00030129549
0.00037214067
-0.00040332646
0.00044800828
-0.00052449534
0.00052880918
-0.00066678622
0.00061728147
-0.00083302043
0.00071648951
-0.0010268438
0.00082923151
-0.0012533343
0.0009585782
0.0011107445
-0.00152366
-1.2620595e-06
7.4430786e-06
-5.8219209e-06
2.6774259e-05
-1.5131928e-05
5.4756716e-05
-3.0900358e-05
9.3223049e-05
-5.5044253e-05
0.00014350366
-8.9584905e-05
0.00020587963
-0.00013649409
0.00027917961
-0.00019750298
0.00036095824
-0.00027396442
0.00044860212
-0.00036698041
0.00054102427
-0.00047784487
0.00063967364
-0.00060855352
0.00074799012
-0.00076209725
0.00087003324
-0.00094254478
0.001009679
-0.0011544079
0.0011704413
0.0013547763
-0.0013984396
-6.2607111e-06
1.370379e-05
-1.3083749e-05
3.3597296e-05
-2.1878059e-05
6.3551027e-05
-3.3824276e-05
0.00010516927
-5.033114e-05
0.00016001053
-7.3086835e-05
0.00022863533
-0.00010404859
0.00031014136
-0.00014535544
0.00040226509
-0.00019871076
0.00050195744
-0.00026539483
0.00060770834
-0.00034625097
0.00072052977
-0.00044182881
0.00084356797
-0.00055249172
0.00098069614
-0.00067853923
0.0011357266
-0.00082084805
0.0013127501
0.0015177978
-0.00098386956
2.5311542e-06
5.740144e-07
-3.1051686e-06
7.7496808e-06
1.4359774e-06
-6.654504e-06
1.731063e-05
1.4748191e-06
-1.1035769e-05
3.3372214e-05
-7.7374806e-07
-1.5287836e-05
5.8552943e-05
-8.0050589e-06
-1.717567e-05
9.5293212e-05
-2.4818767e-05
-1.1921501e-05
0.00014442264
-5.8267011e-05
9.1375792e-06
0.00020738661
-0.00011772771
5.4763746e-05
0.00028556526
-0.00021377802
0.00013559937
0.00037902223
-0.00035484357
0.0002613866
0.00048559271
-0.00054321716
0.00043664668
0.00060101039
-0.00077310447
0.00065768679
0.00071998655
-0.0010325536
0.00091357746
0.00083784392
-0.0013083968
0.0011905394
0.00095187921
-0.0015912754
0.0014772401
-0.0018787529
0.0017631704
0.0010674617
9.9111568e-07
-4.1710128e-07
4.817451e-06
-2.3903579e-06
1.3112631e-05
-6.8203608e-06
2.8095659e-05
-1.5756776e-05
5.2654531e-05
-3.2563931e-05
9.0228844e-05
-6.239308e-05
0.00014437611
-0.00011241428
0.0002179626
-0.00019131421
0.00031170526
-0.00030752068
0.00042313249
-0.00046627079
0.00054684498
-0.00066692965
0.00067629694
-0.00090255643
0.0008063028
-0.0011625595
0.00093527286
-0.0014373669
0.0010667306
-0.0017227331
-0.0020226702
0.0012106479
1.112669e-06
-1.5297702e-06
5.2301843e-06
-6.5078732e-06
1.3949079e-05
-1.5539256e-05
2.9453016e-05
-3.1260713e-05
5.4543273e-05
-5.7654188e-05
9.2474795e-05
-0.0001003246
0.00014642504
-0.00016636452
0.00021847836
-0.00026336753
0.00030834011
-0.00039738244
0.00041249306
-0.00057042375
0.000524629
-0.00077906559
0.00063759206
-0.0010155195
0.00074622241
-0.0012711898
0.00084992161
-0.0015410661
0.00095387586
-0.0018266873
-0.0021366849
0.0010678905
1.269062e-06
-2.7988322e-06
5.9188407e-06
-1.1157652e-05
1.5603371e-05
-2.5223786e-05
3.2426092e-05
-4.8083434e-05
5.8860665e-05
-8.4088762e-05
9.7450108e-05
-0.00013891404
0.00015019175
-0.00021910616
0.00021763629
-0.00033081207
0.0002980022
-0.00047774835
0.0003868636
-0.00065928514
0.00047791984
-0.00087012183
0.00056492164
-0.0011025213
0.00064416818
-0.0013504364
0.00071630242
-0.0016132003
0.00078627799
-0.0018966629
-0.0022116212
0.00086121429
1.3046076e-06
-4.1034398e-06
6.0041919e-06
-1.5857236e-05
1.5640971e-05
-3.4860565e-05
3.2087796e-05
-6.4530259e-05
5.738528e-05
-0.00010938625
9.3362662e-05
-0.00017489143
0.0001409983
-0.00026674179
0.00019963101
-0.00038944478
0.00026636999
-0.00054448733
0.000336192
-0.00072910715
0.00040306026
-0.00093699009
0.00046193587
-0.0011613969
0.00051087238
-0.0013993729
0.00055174887
-0.0016540768
0.00058911323
-0.0019340273
-0.0022500782
0.00062757027
1.2663319e-06
-5.3697717e-06
5.758486e-06
-2.034939e-05
1.481548e-05
-4.391756e-05
2.9950065e-05
-7.9664844e-05
5.2626573e-05
-0.00013206275
8.3853187e-05
-0.00020611804
0.00012360341
-0.00030649202
0.00017022153
-0.0004360629
0.00022013261
-0.00059439841
0.00026824823
-0.00077722277
0.00030928627
-0.00097802813
0.00033971114
-0.0011918218
0.00035929347
-0.0014189552
0.00037079553
-0.0016655789
0.00037826234
-0.0019414941
-0.0022560177
0.00038420184
1.1282504e-06
-6.4980221e-06
5.0615587e-06
-2.4282699e-05
1.2844508e-05
-5.1700509e-05
2.5549093e-05
-9.2369429e-05
4.4026078e-05
-0.00015053974
6.8516683e-05
-0.00023060865
9.8173295e-05
-0.00033614863
0.00013064698
-0.00046853658
0.00016202839
-0.00062577982
0.00018748656
-0.00080268095
0.00020271363
-0.00099325519
0.00020563247
-0.0011947406
0.00019725664
-0.0014105794
0.00018040118
-0.0016487234
0.00015784455
-0.0019189375
-0.002230011
0.00013183789
8.9820596e-07
-7.396228e-06
3.9595903e-06
-2.7344083e-05
9.8678956e-06
-5.7608815e-05
1.9208583e-05
-0.00010171012
3.2229489e-05
-0.00016356064
4.8510961e-05
-0.00024689012
6.6600179e-05
-0.00035423785
8.3727562e-05
-0.00048566397
9.5912521e-05
-0.00063796478
9.8803245e-05
-0.00080557167
8.9221532e-05
-0.00098367348
6.6445132e-05
-0.0011719642
3.221048e-05
-0.0013763447
-1.1305946e-05
-0.001605207
-6.3341833e-05
-0.0018669016
-0.0021673501
-0.00012600281
5.6571526e-07
2.4231911e-06
5.8607584e-06
1.0992716e-05
1.7555494e-05
2.4647609e-05
3.0471472e-05
3.2040805e-05
2.5488229e-05
7.1567467e-06
-2.4946045e-05
-7.0610679e-05
-0.00012871131
-0.00019851035
-0.0002800568
-0.00037223503
-4.0221136e-08
-8.0822541e-06
-2.7613777e-07
-2.9432116e-05
-1.0071128e-06
-6.1026794e-05
-2.8388249e-06
-0.00010570417
-6.8638201e-06
-0.00016614404
-1.4884481e-05
-0.00024413113
-2.9809877e-05
-0.00033933586
-5.5455919e-05
-0.00044874873
-9.5544715e-05
-0.00056783922
-0.00015237011
-0.00069325124
-0.00022630964
-0.00082547641
-0.00031676274
-0.00096893292
-0.00042358752
-0.0011297096
-0.00054779697
-0.0013137629
-0.00069121299
-0.0015271426
-0.0017771079
-0.00085525968
5.5702088e-06
-1.3652463e-05
9.5808159e-06
-3.3442723e-05
1.1826963e-05
-6.3272941e-05
1.0940221e-05
-0.00010481743
4.5729079e-06
-0.00015977672
-1.0592256e-05
-0.00022896596
-3.8080374e-05
-0.00031184774
-8.0239447e-05
-0.00040658966
-0.0001375059
-0.00051057276
-0.00020810407
-0.00062265307
-0.00028938499
-0.00074419549
-0.00037956804
-0.00087874988
-0.00047859748
-0.0010306801
-0.00058798146
-0.0012043789
-0.00070997847
-0.0014051456
-0.001641591
-0.00084549538
-1.3599401e-06
-1.7587753e-06
3.1187153e-06
-2.048208e-06
-6.0306847e-06
6.7189527e-06
-1.6680007e-06
-1.1616886e-05
1.1236679e-05
6.4870299e-07
-1.8123753e-05
1.5807049e-05
6.6099747e-06
-2.4360384e-05
1.8399112e-05
1.9617276e-05
-2.7637367e-05
1.4630066e-05
4.6009123e-05
-2.2786988e-05
-3.6048595e-06
9.1738149e-05
-1.0724075e-06
-4.4656619e-05
0.00016098896
4.9313602e-05
-0.00011856441
0.00025547176
0.00014027781
-0.00023476061
0.00037247465
0.00028094011
-0.00039794299
0.0005055159
0.00047204983
-0.00060509108
0.00064710929
0.00070442763
-0.00084602103
0.00079204104
0.00096218077
-0.0011071125
0.00093956156
0.0012288206
-0.0013763411
0.0014934384
-0.0016485823
0.0010947055
1.7258645e-07
-1.9313617e-06
8.1224193e-07
-6.6703402e-06
2.2740408e-06
-1.3078685e-05
5.2327963e-06
-2.1082508e-05
1.0868091e-05
-2.9995678e-05
2.1235883e-05
-3.800516e-05
3.98531e-05
-4.1404204e-05
7.2385776e-05
-3.3605084e-05
0.00012578073
-4.0813559e-06
0.00020563971
6.0418837e-05
0.0003157505
0.00017082931
0.00045649467
0.00033130566
0.00062602646
0.00053489585
0.00082259649
0.00076561073
0.0010469229
0.0010044941
0.0012367753
0.0013035861
9.7664564e-08
-2.0290263e-06
5.2381261e-07
-7.0964882e-06
1.5369899e-06
-1.4091862e-05
3.5589764e-06
-2.3104495e-05
7.3185303e-06
-3.3755232e-05
1.4090555e-05
-4.4777184e-05
2.6091035e-05
-5.3404684e-05
4.7034759e-05
-5.4548808e-05
8.2732332e-05
-3.9778929e-05
0.00013935094
3.8002338e-06
0.00022288767
8.7292571e-05
0.00033891814
0.00021527519
0.00049106546
0.00038274853
0.00068120517
0.00057547102
0.00090950271
0.00077619661
0.00097032527
0.0011759527
-2.3070887e-07
-1.7983174e-06
-1.0318788e-06
-6.2953183e-06
-2.5866235e-06
-1.2537117e-05
-5.02092e-06
-2.0670198e-05
-8.287905e-06
-3.0488247e-05
-1.1933728e-05
-4.1131361e-05
-1.4667524e-05
-5.0670888e-05
-1.3614101e-05
-5.5602232e-05
-3.1376083e-06
-5.0255421e-05
2.6578275e-05
-2.5915649e-05
8.5684528e-05
2.8186317e-05
0.00018193962
0.0001190201
0.00032132708
0.00024336107
0.00051005706
0.00038674104
0.00075050448
0.00053574919
0.0006771354
0.0010436944
-6.2615833e-07
-1.1721591e-06
-2.8288524e-06
-4.0926242e-06
-7.2167327e-06
-8.1492369e-06
-1.4429124e-05
-1.3457806e-05
-2.5008543e-05
-1.9908828e-05
-3.9150521e-05
-2.6989383e-05
-5.6265954e-05
-3.3555454e-05
-7.4246208e-05
-3.7621978e-05
-8.8265195e-05
-3.6236434e-05
-8.8768392e-05
-2.5412452e-05
-6.0838125e-05
2.5605089e-07
1.1099372e-05
4.7082603e-05
0.00013914006
0.00011532038
0.00032903821
0.00019684289
0.00058458782
0.00028019958
0.00035773355
0.00090398967
-1.1671646e-06
-4.9944758e-09
-5.2416149e-06
-1.8173833e-08
-1.3353292e-05
-3.7559512e-08
-2.6746237e-05
-6.486157e-08
-4.6552996e-05
-1.0206936e-07
-7.3390851e-05
-1.5152849e-07
-0.00010672991
-2.1639592e-07
-0.00014405034
-3.0154812e-07
-0.00017987209
-4.1468554e-07
-0.00020471712
-5.6741508e-07
-0.00020368435
-7.7672486e-07
-0.00015553455
-1.0671982e-06
-3.878513e-05
-1.4290329e-06
0.00015989563
-1.8378689e-06
0.00044224197
-2.1467683e-06
-1.9523577e-06
0.00080192788
-1.1658058e-06
1.1608113e-06
-5.2362704e-06
4.0522908e-06
-1.3341033e-05
8.0672036e-06
-2.6723925e-05
1.331803e-05
-4.6517674e-05
1.969168e-05
-7.3340264e-05
2.6671061e-05
-0.00010666314
3.3106479e-05
-0.00014396849
3.7003801e-05
-0.00017977878
3.5395611e-05
-0.00020462051
2.4274308e-05
-0.00020360472
-1.7925121e-06
-0.00015560748
-4.9064443e-05
-3.9207222e-05
-0.00011782929
0.0001588689
-0.00019991399
0.00044044921
-0.00028372709
-0.00035908281
0.00079757967
-6.2579113e-07
1.7866024e-06
-2.8276479e-06
6.2541476e-06
-7.2145297e-06
1.2454085e-05
-1.4426273e-05
2.0529774e-05
-2.5006283e-05
3.027169e-05
-3.9151561e-05
4.081634e-05
-5.6275734e-05
5.0230651e-05
-7.4276377e-05
5.5004444e-05
-8.8342567e-05
4.9461801e-05
-8.8950775e-05
2.4882516e-05
-6.1266527e-05
-2.947676e-05
1.0204704e-05
-0.00012053567
0.00013748687
-0.00024511146
0.00032622594
-0.00038865306
0.00057988957
-0.00053739071
-0.00067574437
0.00089655113
-2.3456916e-07
2.0211716e-06
-1.04881e-06
7.0683885e-06
-2.6292638e-06
1.4034539e-05
-5.1062508e-06
2.3006761e-05
-8.4382061e-06
3.3603645e-05
-1.2178125e-05
4.4556259e-05
-1.5045105e-05
5.309763e-05
-1.4180565e-05
5.4139905e-05
-3.9792726e-06
3.9260509e-05
2.5314438e-05
-4.4111937e-06
8.3797068e-05
-8.795939e-05
0.00017921247
-0.00021595108
0.00031746178
-0.00038336076
0.00050471521
-0.00057590649
0.00074345872
-0.00077613423
-0.00096685619
0.0010345705
9.2170774e-08
1.9290008e-06
4.9879271e-07
6.6617666e-06
1.472352e-06
1.306098e-05
3.4270095e-06
2.1052103e-05
7.0819196e-06
2.9948735e-05
1.3699588e-05
3.7938591e-05
2.5479252e-05
4.1317967e-05
4.6111995e-05
3.3507161e-05
8.137665e-05
3.9958545e-06
0.00013741223
-6.0446776e-05
0.00022020511
-0.00017075226
0.00033529789
-0.00033104386
0.00048625088
-0.00053431375
0.00067482286
-0.00076447848
0.00090108796
-0.0010023993
-0.0012325763
0.0011668081
1.6882067e-07
1.7601802e-06
7.9494443e-07
6.0356428e-06
2.22847e-06
1.1627454e-05
5.1369915e-06
1.8143582e-05
1.068982e-05
2.4395907e-05
2.0928381e-05
2.770003e-05
3.9348758e-05
2.289759e-05
7.1594053e-05
1.2618665e-06
0.00012459528
-4.9005375e-05
0.00020396112
-0.00013981261
0.00031348313
-0.00028027428
0.00045355808
-0.00047111881
0.00062236982
-0.00070312548
0.00081823962
-0.00096034828
0.0010420384
-0.0012261981
-0.0014881518
0.0012976139
-1.3642073e-06
3.1243874e-06
-2.0614893e-06
6.7329249e-06
-1.698963e-06
1.1264928e-05
5.8527412e-07
1.5859344e-05
6.4887177e-06
1.8492463e-05
1.9395477e-05
1.4793271e-05
4.5627093e-05
-3.3340261e-06
9.1146855e-05
-4.4257895e-05
0.00016015795
-0.00011801647
0.00025439239
-0.00023404705
0.00037116993
-0.00039705182
0.00050405238
-0.00060400126
0.00064561026
-0.00084468336
0.00079067668
-0.0011054147
0.00093846023
-0.0013739817
-0.001646007
0.0010963154
2.6722563e-07
-6.7979142e-08
6.3292032e-07
1.1315948e-06
1.5884532e-06
1.5731306e-06
2.902448e-07
-3.4881439e-06
-1.141233e-05
-2.5502793e-05
-4.8156627e-05
-8.2258413e-05
-0.00013134556
-0.00019970093
-0.00029259102
-0.00041684456
2.6811652e-07
-6.8164249e-08
6.3550015e-07
1.1374296e-06
1.5997866e-06
1.5930062e-06
3.2192469e-07
-3.4404811e-06
-1.1342392e-05
-2.5398156e-05
-4.7992921e-05
-8.1992684e-05
-0.00013091991
-0.00019911483
-0.00029219079
-0.00041651393
9.7639735e-08
-1.9218823e-08
3.2679926e-07
8.9830813e-07
2.2151011e-06
5.0868704e-06
1.0890424e-05
2.1396274e-05
3.8979177e-05
6.6318729e-05
0.00010591359
0.00015959912
0.00022849322
0.00031361795
0.00041687638
0.00053403974
9.7921645e-08
-1.9259209e-08
3.2792053e-07
9.0170172e-07
2.2237405e-06
5.1060406e-06
1.0926611e-05
2.14593e-05
3.9082408e-05
6.6480045e-05
0.00010615682
0.00015995753
0.00022900911
0.00031427453
0.00041759146
0.00053822899
0.0011678474
-0.0033315968
0.0021637493
0.0079135962
-0.008270052
0.00035645581
0.0011655503
-0.003186999
0.0020214487
0.0079135962
-0.0023322217
-0.00011707987
0.0024493016
-0.0082270251
0.005101459
0.0031255661
-0.001170961
0.0044438421
-0.003272881
0.0074234121
0.003142339
-0.010565751
0.0077333865
0.0022034238
-0.0099368103
0.0013233222
-0.0017401667
-0.001949612
0.001533098
0.0035282036
0.0064902131
-0.010018417
-0.0036503826
-0.0037890052
0.0074393877
-0.0076902007
0.003614824
0.0040753767
-0.0016459038
0.0040425506
-0.0023966468
0.0035943546
9.0490788e-05
-0.0036848454
0.0074715321
-0.0077518462
0.00028031413
0.00078564074
0.0016188864
-0.0024045271
0.0016613695
-0.0018845111
0.00022314157
0.0064049765
-0.0023453626
-0.0040596138
-0.00076156159
-0.0015706601
-0.007685606
0.0040352235
-0.0094453971
0.0095085868
-6.3189723e-05
0.00077150058
0.0085315609
-0.0093030615
8.8499339e-05
-0.005709706
0.0056212067
0.0045025805
0.0013253834
-0.0058279639
-0.0040253571
-0.0060076437
0.010033001
0.0065237024
-0.002181944
-0.0043417584
0.0013237542
0.0065102962
-0.0078340504
-0.0023963111
0.0057420159
-0.0033457047
0.0067156037
-0.0022130231
0.002032348
-0.001502071
-0.00053027696
-0.00017779712
0.008476369
-0.0082985719
0.0063585971
0.00015574302
-0.0065143401
0.0011194361
-0.0061664567
0.0050470206
0.0087842025
-0.0074548683
-0.0013293342
0.0077324901
-0.008166574
0.00043408391
-0.0047589075
0.0058783435
0.0056840103
-0.003324559
-0.0023594512
-0.0088109813
0.0017477925
0.0070631888
0.0030218148
-0.0043850992
0.0013632844
0.010066498
-0.0043504867
-0.0057160113
0.0074234121
-0.0024258613
0.00579136
-0.0033654986
0.0077333865
-0.00082577289
0.0036667979
-0.002841025
-0.0019246266
0.0066031236
-0.004678497
-0.0098402417
0.0042229114
0.0056173303
-0.0074234121
0.011273205
-0.0038497929
-0.0077333865
0.011375361
-0.0036419744
0.0033077671
-0.00026132755
-0.0030464395
-0.0037952639
0.0016927522
0.0021025117
0.0013884655
-0.0026865489
0.0012980834
0.00093181058
0.001226828
-0.0021586386
-0.0031224408
0.005910955
-0.0027885142
0.00044807547
0.0056013249
-0.0060494004
0.00093774741
-0.0019417196
0.0010039722
-0.0055380507
0.0035404118
0.0019976389
-0.010554603
0.0012040517
0.0093505511
0.0085018132
-0.0031334692
-0.005368344
0.0077993043
0.00070250897
0.0056004437
0.0041986949
-0.0097991386
0.0052366241
0.0044635229
-0.009700147
-0.0024956792
0.0051234868
-0.0026278076
0.0010558885
-0.0044163152
0.0033604267
-0.0067486179
0.0070076355
-0.00025901757
0.0043777596
-0.0079633368
0.0035855772
0.0044731324
0.0018125115
-0.0062856439
-0.0010362549
0.0062980264
-0.0052617715
-0.0091183772
0.0071937506
-0.0025012543
0.0069766429
-0.0044753886
0.0015992337
0.0019951209
-0.0048656245
0.0044479132
0.00041771137
0.0048626761
0.0062771012
-0.011139777
0.0087891782
-0.0081333892
-0.00065578903
0.00055460289
-0.0025950357
0.00481513
-0.0022200943
0.0068986372
-0.0033883891
-0.0035102481
0.0097553472
-0.0087886947
-0.00096665253
0.0078641396
-0.006980212
-0.00088392765
0.0025518617
-0.0039662088
0.0014143471
-0.0025839324
0.0012620884
0.001321844
0.0013450711
-0.0037413823
-0.011217653
0.0078495693
0.0033680835
0.0023468874
0.0051246447
0.0024306001
-0.0092341108
0.0068035106
-0.0045721303
0.00766592
-0.0030937897
-0.0010223373
-0.006053111
0.0070754483
0.0031004427
-0.0025459312
-0.00055451149
0.00050297659
0.0082862016
0.0053305242
0.0001668347
-0.0054973589
-0.007711759
0.0031353302
0.0045764288
0.00054589912
0.0035824945
-0.0041283936
0.0032263788
0.0024576314
0.0043795327
0.0024867373
-0.0068662701
0.0045931815
-0.0017895248
-0.0028036566
-0.0047089713
-0.005368559
0.003036153
-0.0018706026
-0.0011192821
-0.0015015937
0.0026208758
-0.0029351858
0.0056546667
-0.0027194809
-0.0030586306
0.0079213067
-0.0057558406
0.0075866405
-0.0018307999
-0.0059478015
-0.0017639575
-3.8622398e-05
0.0077711125
0.0082060984
-0.0076042308
-0.0006018676
-0.0052471216
-0.0024430791
-0.011431304
0.0075236034
0.0039077003
-0.011160218
0.0080164398
0.003143778
0.0058384338
-0.0026090627
-0.0032293711
0.0013635961
-0.0037894574
0.0023193335
-0.0054417743
-3.083977e-07
0.0042380159
-0.0042377075
0.0031944094
-0.0042306644
-0.0016232162
0.004645031
0.0019645963
0.0044403802
0.0065736409
0.0031817064
0.0038199025
-0.0038202109
0.0029794986
0.0071724618
-0.01015196
0.0099309742
-0.0056916985
-0.0042392757
-0.0022305916
0.0047925072
-0.0025619155
-0.00012064733
0.0015091128
0.0020528986
-0.0011210881
0.0011796428
0.00068254062
-0.0018621834
0.010376583
-0.01055438
0.0013231486
0.00019992392
-0.0015230725
0.0016009268
-0.0006969371
-0.0076233688
0.0082091188
-0.00058574994
-0.0023828059
0.0013979624
0.00098484352
0.0035865182
-0.0038311601
0.00024464193
-0.0055844944
0.0051274931
0.00045700134
0.0019338407
-0.00099609325
-0.00048384153
0.0048792574
-0.0043954159
-0.0046820193
0.0085648875
-0.0038828682
0.0035078784
0.0065586197
0.0077769269
-0.0033991673
0.0034678476
0.0023705861
-0.0034935654
0.0026677925
0.0064235824
-0.0074459197
-0.0035053022
0.0023860201
0.0056494002
0.0025566982
0.0053232594
-0.01083317
0.005509911
0.003028362
0.0015328698
-0.0016499497
-0.0032633052
0.0044311527
0.007174183
-0.007174183
-0.0021707806
-0.0013908754
0.0067213996
0.0012449608
-0.0038399965
-0.00037348096
0.0062832354
-0.0059097545
-0.0040679883
0.009668432
-0.0042491592
0.0094857833
0.0083563927
-0.0048616644
-0.0034947283
0.0043973829
0.0029884142
-0.0052190059
0.0058219209
-0.007632138