/*--------------------------------*- C++ -*----------------------------------*\
| =========                 |                                                 |
| \\      /  F ield         | foam-extend: Open Source CFD                    |
|  \\    /   O peration     | Version:     4.1                                |
|   \\  /    A nd           | Web:         http://www.foam-extend.org         |
|    \\/     M anipulation  |                                                 |
\*---------------------------------------------------------------------------*/
FoamFile
{
    version     2.0;
    format      ascii;
    class       volVectorField;
    location    "0.2";
    object      U;
}
// * * * * * * * * * * * * * * * * * * * * * * * * * * * * * * * * * * * * * //

dimensions      [0 1 -1 0 0 0 0];

internalField   nonuniform List<vector> 
4242
(
(0.060392729 0.05482823 1.8088901e-19)
(0.18243976 0.16532749 1.179723e-21)
(0.31491435 0.28357905 -2.0671367e-19)
(0.45450153 0.40613047 1.8939882e-19)
(0.59581484 0.5271456 3.5763934e-21)
(0.73149168 0.63825107 1.0476927e-21)
(0.85137565 0.72818996 0)
(0.9457011 0.78646142 8.9290715e-20)
(1.0097452 0.8082106 -1.4530526e-19)
(1.0457219 0.79654884 5.4946315e-20)
(1.0612947 0.76078004 -2.9540913e-20)
(1.0652386 0.71122411 2.4285389e-20)
(1.0640579 0.65516457 5.9756396e-21)
(1.0617944 0.59607291 -2.3899714e-21)
(1.0611596 0.53547555 2.4748643e-21)
(1.0607482 0.47814808 0)
(0.067392117 0.044963205 0)
(0.20500083 0.13676282 -3.0182447e-21)
(0.35530821 0.23684512 3.6028655e-19)
(0.51491493 0.34267419 -3.2829702e-19)
(0.67782901 0.44985921 -6.2512e-21)
(0.83509621 0.55173073 2.355017e-19)
(0.9752207 0.63927151 -1.1293011e-20)
(1.086428 0.70245945 -3.0435687e-19)
(1.1610628 0.73387169 2.7442678e-20)
(1.199632 0.73275748 8.8857572e-20)
(1.2107177 0.70574859 0)
(1.2059675 0.66274501 -6.573722e-21)
(1.1946154 0.61193802 -4.0689108e-21)
(1.1818687 0.55783902 -2.2617046e-20)
(1.1702454 0.50240254 2.7512797e-20)
(1.1588624 0.44881837 3.4792495e-21)
(0.073065444 0.03604328 -1.1415206e-22)
(0.22270781 0.10994529 -1.1144192e-18)
(0.38677288 0.19113734 5.2463308e-19)
(0.56203023 0.27793037 -4.2287436e-21)
(0.74266615 0.36727417 -4.108936e-19)
(0.91974061 0.4544009 3.5218965e-19)
(1.0813209 0.53265756 -5.2298083e-21)
(1.2133088 0.5935892 8.3756457e-21)
(1.3046968 0.62961186 -2.6637178e-21)
(1.3525424 0.63747832 -9.7738316e-21)
(1.3641266 0.6206242 8.9872667e-20)
(1.3527811 0.58708144 -6.6049194e-20)
(1.3308503 0.54465877 -8.9585837e-20)
(1.3059049 0.4981947 7.4990452e-20)
(1.2812884 0.45042954 -6.465654e-21)
(1.2581809 0.40355329 -1.4987707e-20)
(0.073743166 0.025153042 -1.2607478e-21)
(0.22610556 0.07741736 -1.50272e-21)
(0.39490877 0.13611151 -3.338104e-19)
(0.57757632 0.20044637 3.108726e-19)
(0.76888869 0.26860475 -4.5019842e-21)
(0.96023785 0.33742857 2.3108971e-19)
(1.1394456 0.40214995 -1.7959188e-19)
(1.2918693 0.45645732 -2.9858293e-19)
(1.403991 0.49366022 1.7820684e-20)
(1.4687343 0.50917484 3.7003713e-19)
(1.4892884 0.50291807 -1.4028844e-19)
(1.4777673 0.48011059 0)
(1.4497366 0.44791042 6.9431945e-21)
(1.4156997 0.41137695 -5.0135093e-20)
(1.3803357 0.37391587 2.4009284e-20)
(1.3449348 0.33694729 -4.0168283e-20)
(0.068991803 0.013916875 1.2608254e-21)
(0.21353311 0.043548597 -4.1127461e-19)
(0.37643053 0.078247791 3.8816413e-19)
(0.55635993 0.11804241 -2.5598525e-21)
(0.74941536 0.16231298 7.01737e-21)
(0.94806403 0.20952873 -2.1526471e-21)
(1.1405769 0.2568782 -2.2647298e-19)
(1.3117584 0.30010978 2.3536739e-21)
(1.4459195 0.33399475 1.3610492e-19)
(1.5320352 0.35381157 -1.0321019e-19)
(1.5687453 0.35742901 8.4156353e-20)
(1.5654166 0.34678315 0)
(1.5376111 0.32663267 4.4043141e-20)
(1.4984429 0.301301 -3.0728178e-20)
(1.4558084 0.27403325 8.316519e-21)
(1.4125672 0.24496822 0)
(0.059890831 0.0041664511 -1.8703085e-19)
(0.18767654 0.013656108 1.1182977e-19)
(0.33496804 0.026260082 2.0937331e-19)
(0.50204877 0.042484705 -1.9004487e-19)
(0.68695536 0.06258992 -1.8252174e-21)
(0.88412843 0.086453118 7.4240641e-20)
(1.0832881 0.11319195 6.2539106e-20)
(1.269479 0.14080158 -1.7666142e-21)
(1.425393 0.16608586 -2.0349846e-21)
(1.5362608 0.18527048 -8.7866858e-20)
(1.5955978 0.19536693 8.9179747e-20)
(1.6082681 0.19569313 -3.5206087e-21)
(1.5879661 0.18812664 -8.4239944e-21)
(1.5496353 0.17549583 -1.744636e-20)
(1.504321 0.16069103 -1.1052838e-23)
(1.4570203 0.14314867 6.4979155e-21)
(0.047760992 -0.0028610113 -9.462512e-20)
(0.15219601 -0.0084358959 -1.1347241e-19)
(0.27618217 -0.013154115 3.2062932e-19)
(0.42165704 -0.016480525 -1.9407683e-19)
(0.58890677 -0.017814926 8.8447814e-20)
(0.77503933 -0.016420801 8.8597188e-24)
(0.97230426 -0.011644391 1.2514757e-19)
(1.1672366 -0.0032991876 -5.5466974e-20)
(1.3420088 0.0078851099 -6.7871603e-21)
(1.4787665 0.020087715 2.7917889e-20)
(1.5657708 0.0308616 -4.2840419e-20)
(1.6021041 0.03819121 3.269868e-20)
(1.5975347 0.041413002 -9.1901017e-21)
(1.5668588 0.041114525 -3.4711914e-20)
(1.5235543 0.038830731 1.2781712e-20)
(1.4754835 0.032502741 1.4916487e-20)
(0.034069699 -0.0064971467 -2.1310249e-21)
(0.1113426 -0.020521211 4.4344389e-19)
(0.20700722 -0.035887617 -4.1589101e-19)
(0.32443313 -0.052455921 3.7414828e-19)
(0.46610121 -0.069875863 -3.3682662e-19)
(0.63209211 -0.087290307 0)
(0.81801939 -0.10325413 2.4152384e-19)
(1.0132508 -0.115882 -1.9604503e-19)
(1.2009776 -0.12339259 -4.6123511e-21)
(1.3615228 -0.12490231 0)
(1.4784275 -0.12093687 -1.7267134e-20)
(1.5444144 -0.11321994 8.4926734e-21)
(1.563595 -0.1038385 -5.3260809e-20)
(1.5482814 -0.094402514 9.4655178e-20)
(1.5129659 -0.085235848 -6.3788747e-20)
(1.4685214 -0.079189011 -1.5689765e-20)
(0.020706573 -0.0067580824 1.3963813e-21)
(0.070663389 -0.022349278 -1.6663499e-21)
(0.13665617 -0.040967816 0)
(0.22299209 -0.063150118 8.056802e-21)
(0.33390274 -0.089301085 4.6024862e-21)
(0.47227357 -0.11923507 2.7423903e-19)
(0.63749411 -0.15174305 -2.4018343e-19)
(0.82295445 -0.18424808 0)
(1.0146626 -0.21300947 7.0220874e-22)
(1.1929658 -0.23415867 -1.4011952e-20)
(1.3379493 -0.24512507 1.1438998e-20)
(1.4362009 -0.24556294 7.6095299e-21)
(1.4851257 -0.23723028 1.2265594e-20)
(1.4924128 -0.22296809 7.2670221e-20)
(1.4715422 -0.20503807 -8.2379168e-20)
(1.4353618 -0.18739684 4.1999862e-20)
(0.0082111203 -0.0037929681 0)
(0.032102974 -0.014298778 7.3877048e-19)
(0.068966854 -0.028908993 -1.3861676e-18)
(0.1235955 -0.048996951 6.2693554e-19)
(0.20141935 -0.076028841 -4.6160462e-21)
(0.30758715 -0.11104374 -1.4936132e-20)
(0.44501497 -0.15393672 4.112634e-19)
(0.61155218 -0.20256338 -3.3841687e-19)
(0.79737107 -0.25228679 -2.4305371e-19)
(0.98480629 -0.29673691 2.2053587e-19)
(1.152338 -0.32975607 0)
(1.2814613 -0.34745387 -1.3524706e-19)
(1.3627001 -0.34922873 7.3980073e-20)
(1.3976487 -0.3373416 0)
(1.3966472 -0.31499991 0)
(1.3732521 -0.28676074 0)
(0.00012290606 0.00010746928 1.0508617e-18)
(0.006044257 -0.0026251604 -6.2984983e-19)
(0.021317837 -0.0092265152 0)
(0.050413585 -0.021597633 -3.9176804e-21)
(0.098833242 -0.042059759 -4.6880763e-19)
(0.1728304 -0.073131564 4.2573235e-19)
(0.27798474 -0.11679907 3.3741738e-19)
(0.41659632 -0.17316595 5.6070149e-21)
(0.58428481 -0.23891821 -2.5384617e-19)
(0.7676722 -0.30680938 1.2644563e-20)
(0.94602028 -0.36719212 0)
(1.0974473 -0.41111896 -2.1421393e-19)
(1.2064073 -0.43326119 3.8226441e-20)
(1.2681327 -0.43321513 1.2314967e-19)
(1.2886778 -0.41385367 0)
(1.2831709 -0.37532626 1.168885e-20)
(-0.008824627 0.0084505653 -4.0728596e-23)
(-0.022220178 0.02260063 1.0892278e-18)
(-0.029568833 0.034004908 -5.1531253e-19)
(-0.026472203 0.040081804 -4.6758334e-19)
(-0.0068802054 0.037085879 4.1473553e-19)
(0.036443558 0.020254809 -3.7435843e-19)
(0.11036545 -0.015481158 3.1822079e-19)
(0.21924747 -0.073522016 2.5800723e-19)
(0.36339578 -0.15311079 -2.354225e-19)
(0.53453662 -0.24641344 0)
(0.7147885 -0.33940207 0)
(0.88143622 -0.41655016 0)
(1.0151439 -0.46644496 1.8261379e-20)
(1.1059359 -0.48512602 0)
(1.1544932 -0.47559418 7.4344111e-20)
(1.1728962 -0.43824424 -1.2222935e-19)
(0.055164889 -0.060551619 -2.5005813e-20)
(0.16536779 -0.1810363 -5.0057807e-22)
(0.28161633 -0.30766301 3.0648816e-20)
(0.39975468 -0.43473351 -2.8061246e-20)
(0.51408505 -0.55476092 -1.5803225e-21)
(0.61790187 -0.65902162 9.004762e-22)
(0.70474109 -0.73876475 0)
(0.77023471 -0.78735726 -3.8854347e-20)
(0.8138922 -0.80283392 7.776299e-20)
(0.83959604 -0.78906889 -3.3341189e-20)
(0.85393058 -0.75392726 3.8004557e-20)
(0.86323839 -0.7055714 -3.1253735e-20)
(0.87171006 -0.64982699 -6.7832358e-21)
(0.88154439 -0.58986206 8.6133715e-21)
(0.89310897 -0.52781077 2.1354157e-20)
(0.902529 -0.46929696 0)
(0.038091846 -0.056487646 0)
(0.11481549 -0.16892467 1.7315286e-21)
(0.19784536 -0.28682932 -2.1129106e-19)
(0.2846847 -0.40513252 1.924993e-19)
(0.37138675 -0.5166585 3.4157514e-21)
(0.45296427 -0.61256282 -1.5209751e-19)
(0.52437166 -0.6839848 -3.5505986e-21)
(0.58214695 -0.72477098 2.2693269e-19)
(0.62592839 -0.73411696 -8.4345765e-21)
(0.65863656 -0.7170876 -8.16177e-20)
(0.68490942 -0.68201479 0)
(0.70891657 -0.63664566 8.9940597e-21)
(0.73316436 -0.58595637 9.1173929e-21)
(0.75871108 -0.53231087 6.8148393e-20)
(0.78557297 -0.47675516 -8.9043282e-20)
(0.81183371 -0.42103151 -1.3205807e-20)
(0.024953612 -0.049868519 5.5836288e-22)
(0.075439222 -0.1490016 8.0974861e-19)
(0.13085805 -0.25275202 -3.8086215e-19)
(0.18989987 -0.35654806 3.1478493e-21)
(0.25035886 -0.45396134 3.0458468e-19)
(0.30940426 -0.53713245 -2.6079981e-19)
(0.36411424 -0.59829078 4.1088674e-21)
(0.41244874 -0.63221325 -6.8976877e-21)
(0.4541946 -0.63850398 2.3289693e-21)
(0.49108996 -0.62185918 9.3625488e-21)
(0.52585249 -0.58963845 -1.0661369e-19)
(0.56083472 -0.54855734 7.7127116e-20)
(0.59735499 -0.5029431 1.4346714e-19)
(0.63592432 -0.45499184 -1.2119853e-19)
(0.6762702 -0.40597583 1.7445452e-20)
(0.7158014 -0.35769429 5.5924414e-20)
(0.013487477 -0.038631077 9.625174e-22)
(0.041291719 -0.1154645 1.1463683e-21)
(0.073204648 -0.19590023 2.5309648e-19)
(0.10899343 -0.27638898 -2.3594677e-19)
(0.14790554 -0.35191212 3.4614821e-21)
(0.18882556 -0.41630641 -1.8112853e-19)
(0.23044292 -0.46347095 1.408839e-19)
(0.27170015 -0.48932056 2.5298205e-19)
(0.31232173 -0.49357928 -2.520576e-21)
(0.35297014 -0.47996757 -3.4647712e-19)
(0.39480438 -0.45428152 1.3652953e-19)
(0.43878365 -0.42179902 0)
(0.48533515 -0.38591693 -9.4751915e-21)
(0.53446884 -0.34839035 7.7231014e-20)
(0.58535319 -0.31034347 -3.6746578e-20)
(0.63466435 -0.27314469 8.5965932e-20)
(0.0050259972 -0.02323128 -9.6268415e-22)
(0.016081786 -0.069915323 3.1549432e-19)
(0.030610266 -0.11942584 -2.9828191e-19)
(0.049193904 -0.16978214 1.9605273e-21)
(0.072193533 -0.21797165 -5.3796096e-21)
(0.099800118 -0.26001342 1.6494227e-21)
(0.13192492 -0.29162069 1.8311771e-19)
(0.16826745 -0.30951563 3.1162751e-21)
(0.20855408 -0.31288887 -1.1398772e-19)
(0.25271888 -0.30389874 9.661104e-20)
(0.30082337 -0.28653644 -7.8646121e-20)
(0.3528112 -0.26467908 0)
(0.40844911 -0.24085341 -5.2318138e-20)
(0.46736001 -0.21622324 3.6836229e-20)
(0.52783947 -0.19134358 -1.272994e-20)
(0.58391497 -0.16728641 0)
(0.073053507 -0.036035446 0)
(0.22268172 -0.10993302 5.6098261e-19)
(0.3867462 -0.19113505 -1.0501498e-18)
(0.56202263 -0.2779564 4.819882e-19)
(0.74270126 -0.36734982 3.7219625e-21)
(0.91984187 -0.45454863 1.6766198e-21)
(1.0815475 -0.53291963 2.8062709e-19)
(1.2136895 -0.59399324 -2.3969182e-19)
(1.3052057 -0.63015743 -1.6893461e-19)
(1.3531065 -0.63813858 1.2434882e-19)
(1.3646222 -0.6213425 0)
(1.3530541 -0.58778666 -5.2126153e-20)
(1.3307638 -0.54530214 4.1201063e-20)
(1.3054256 -0.49875974 0)
(1.2805954 -0.45080201 0)
(1.2574739 -0.40354245 0)
(0.00084467022 -0.0079602208 1.3782032e-19)
(0.003534986 -0.02447621 -8.2640355e-20)
(0.0091584073 -0.042753064 -1.5473981e-19)
(0.018750878 -0.062369261 1.4091573e-19)
(0.033407262 -0.082398869 1.6799653e-21)
(0.054295143 -0.10120405 -5.5718517e-20)
(0.082341076 -0.1164613 -4.8364097e-20)
(0.11788198 -0.12573511 3.3576164e-22)
(0.16046683 -0.12763252 4.0800096e-22)
(0.20898817 -0.12274375 7.5488448e-20)
(0.26210624 -0.11329304 -8.0466215e-20)
(0.31862424 -0.10171063 9.6519057e-22)
(0.37757565 -0.089514149 6.9783154e-21)
(0.43809644 -0.077176361 1.906381e-20)
(0.49912255 -0.064534186 1.3596598e-23)
(0.55884434 -0.051560914 -9.9709564e-21)
(0.00084651378 0.0079662604 6.8391528e-20)
(0.0035426241 0.024489791 8.1975438e-20)
(0.0091792188 0.042770519 -2.3225565e-19)
(0.018794258 0.062389133 1.4093311e-19)
(0.033484337 0.082425819 -6.4429487e-20)
(0.054418481 0.10125428 -6.585441e-24)
(0.082523354 0.11656736 -9.3925891e-20)
(0.11813315 0.12594503 4.0931509e-20)
(0.1607895 0.12799722 4.2331689e-21)
(0.20937161 0.12329405 -2.4563614e-20)
(0.26252193 0.1140196 3.5758581e-20)
(0.31902877 0.10256258 -3.1100636e-20)
(0.37791983 0.090416999 6.9747497e-21)
(0.43830676 0.078060672 3.7243742e-20)
(0.49898806 0.065395402 -1.4356586e-20)
(0.55785643 0.052609652 -2.0124844e-20)
(0.0050448067 0.023326949 1.4907898e-21)
(0.016136839 0.070184235 -3.1763324e-19)
(0.030702677 0.11985593 2.9813549e-19)
(0.049323044 0.17034984 -2.6845035e-19)
(0.072357119 0.21864265 2.4199808e-19)
(0.099994835 0.2607473 0)
(0.1321468 0.29237951 -1.7742935e-19)
(0.1685105 0.31027216 1.4464195e-19)
(0.20880513 0.31362589 3.1785127e-21)
(0.25294812 0.30459424 0)
(0.30097522 0.28714222 1.4039517e-20)
(0.35280526 0.26510746 -7.179824e-21)
(0.40819039 0.24097428 5.1443427e-20)
(0.46670475 0.21584922 -9.8415636e-20)
(0.52645439 0.19017569 6.8023407e-20)
(0.58131818 0.16490819 1.9521224e-20)
(0.013500332 0.038684043 -9.6143576e-22)
(0.041323313 0.11561274 1.1450936e-21)
(0.073236104 0.19614115 0)
(0.10900006 0.27671667 -5.1010649e-21)
(0.14785929 0.3523178 -2.7869394e-21)
(0.18869685 0.41677893 -1.8082039e-19)
(0.23020178 0.46399488 1.5901545e-19)
(0.27131418 0.48987095 0)
(0.3117491 0.49411527 -1.2481124e-21)
(0.35214755 0.48042897 9.3762085e-21)
(0.39363102 0.45459173 -9.0707371e-21)
(0.43711909 0.42187075 -4.9128821e-21)
(0.48307521 0.38563339 -1.1108822e-20)
(0.53169743 0.34751557 -7.0956864e-20)
(0.58208371 0.30845613 8.3501937e-20)
(0.62935637 0.27019312 -4.6114313e-20)
(0.024900387 0.049775456 0)
(0.075283893 0.14873917 -4.0502654e-19)
(0.13058665 0.25234053 7.5877645e-19)
(0.18950003 0.35602461 -3.4218863e-19)
(0.24982114 0.45337752 2.7809287e-21)
(0.30871884 0.53654515 8.0693707e-21)
(0.36326367 0.59774363 -2.311901e-19)
(0.4113981 0.63171318 1.9049528e-19)
(0.45288392 0.63800604 1.4575936e-19)
(0.48943296 0.6212738 -1.3363354e-19)
(0.52373564 0.58886403 0)
(0.55813035 0.54751601 9.7142515e-20)
(0.59406453 0.50155313 -5.3810454e-20)
(0.63253278 0.45305261 0)
(0.67345818 0.40344474 0)
(0.71130202 0.35644058 0)
(0.037978723 0.056324509 -3.8065116e-19)
(0.11449473 0.16845862 2.2784646e-19)
(0.19732295 0.28607654 0)
(0.28397736 0.40413089 8.6295184e-22)
(0.37052099 0.51546595 1.709897e-19)
(0.45197002 0.61124817 -1.5414727e-19)
(0.5232706 0.68260907 -1.3054786e-19)
(0.58094056 0.72336275 -6.1858292e-21)
(0.62459508 0.73265512 1.0381836e-19)
(0.65714772 0.71550917 -6.6974398e-21)
(0.68326451 0.68025372 0)
(0.7072019 0.6346816 1.1778235e-19)
(0.73167365 0.58383692 -1.331773e-20)
(0.75807483 0.5302247 -7.6040483e-20)
(0.78653099 0.47545611 0)
(0.81527301 0.42186162 -9.4287249e-21)
(0.055077875 0.060454562 1.0551474e-21)
(0.16511126 0.18074447 -6.2773715e-20)
(0.28118865 0.30716452 3.0071979e-20)
(0.39916233 0.43402704 3.084248e-20)
(0.51334493 0.55385912 -2.6696038e-20)
(0.61704103 0.65795144 3.615521e-20)
(0.70379091 0.73756206 -3.3691236e-20)
(0.76922214 0.78605528 -3.6904639e-20)
(0.8128333 0.80144995 3.2169385e-20)
(0.83850637 0.7876055 0)
(0.85285685 0.75239943 0)
(0.86230153 0.70405113 0)
(0.87115149 0.64847744 -3.5407115e-21)
(0.88172921 0.58896333 0)
(0.89430187 0.52773814 -4.5687375e-20)
(0.90409916 0.46995686 8.6196226e-20)
(-0.0088623032 -0.0084842237 4.5166913e-19)
(-0.022343485 -0.022706485 2.2866717e-21)
(-0.029800124 -0.034193355 -5.1300075e-19)
(-0.026839579 -0.040365852 4.7133047e-19)
(-0.0074116375 -0.037477138 7.0694162e-21)
(0.035724939 -0.020762212 5.072159e-21)
(0.10945455 0.014858747 0)
(0.21814526 0.0727934 2.6635563e-19)
(0.362121 0.15230561 -4.4617012e-19)
(0.53312572 0.2455754 1.8308161e-19)
(0.71328188 0.33857045 -1.4159781e-19)
(0.87985254 0.415743 1.159266e-19)
(1.0134485 0.46567038 3.6937708e-21)
(1.104033 0.4843843 -1.5689561e-20)
(1.1526113 0.47415792 -3.9290235e-20)
(1.172872 0.43310951 0)
(5.3396921e-05 -0.00015571954 0)
(0.0058292058 0.0024797241 -4.9365035e-21)
(0.020939221 0.0089748432 5.879489e-19)
(0.049855763 0.021232557 -5.3731673e-19)
(0.098080961 0.041574268 -1.0970501e-20)
(0.17187379 0.07252281 4.1031021e-19)
(0.27682467 0.11607208 -2.0456977e-21)
(0.41525162 0.17233782 -5.7779369e-19)
(0.58279793 0.23801892 3.3898155e-20)
(0.76610708 0.30587563 1.9077592e-19)
(0.94444799 0.36625274 0)
(1.0959247 0.41017675 -1.4726773e-20)
(1.2049651 0.43227039 -1.9344969e-20)
(1.26682 0.43197991 -9.4048381e-20)
(1.2875438 0.41203781 1.2393361e-19)
(1.2797141 0.37732604 1.3655546e-20)
(0.008136457 0.0037545811 -4.7977115e-22)
(0.031872366 0.014183051 -1.4686439e-18)
(0.068561192 0.02870804 6.9275886e-19)
(0.12299704 0.04870362 -5.2100159e-21)
(0.20061455 0.075638704 -5.5273721e-19)
(0.3065717 0.11055788 4.7467445e-19)
(0.44380099 0.15336502 -6.700709e-21)
(0.61017557 0.20192676 1.105021e-20)
(0.79589377 0.25161526 -6.9064254e-21)
(0.98330719 0.29606218 -1.4041169e-20)
(1.150892 0.32910142 1.6030314e-19)
(1.280116 0.34682799 -1.145597e-19)
(1.3614643 0.34862812 -1.8317633e-19)
(1.3965167 0.33673159 1.5302911e-19)
(1.3956244 0.31443096 -2.06757e-20)
(1.370995 0.28931702 -5.2099068e-20)
(0.02061841 0.0067270614 -1.39505e-21)
(0.07039508 0.022257318 -1.6647636e-21)
(0.13619054 0.040811215 -3.8520824e-19)
(0.22231588 0.062926649 3.594875e-19)
(0.33301051 0.089011538 -5.0326376e-21)
(0.47117364 0.11888517 2.7393419e-19)
(0.63621547 0.15134502 -2.1202151e-19)
(0.82155148 0.18382039 -3.7059697e-19)
(1.0132114 0.21257309 1.054322e-20)
(1.1915477 0.23373047 4.8095644e-19)
(1.3366258 0.24471134 -1.8502016e-19)
(1.4349914 0.24515826 0)
(1.4840029 0.23682438 1.1684342e-20)
(1.4913292 0.22252665 -8.0525691e-20)
(1.4704888 0.20448359 3.8841176e-20)
(1.4338705 0.18818251 -7.255712e-20)
(0.033971267 0.0064770906 1.3948505e-21)
(0.11104623 0.020462536 -4.3976715e-19)
(0.20649854 0.03578965 4.1556571e-19)
(0.32370465 0.052319593 -2.8427679e-21)
(0.46515749 0.069704682 7.660728e-21)
(0.63095625 0.087091236 -2.2674366e-21)
(0.8167385 0.10303743 -2.4894552e-19)
(1.0118958 0.11565919 -7.9812146e-22)
(1.199632 0.12317253 1.507198e-19)
(1.3602596 0.12468734 -1.1917623e-19)
(1.4772826 0.12072126 9.6927134e-20)
(1.5433677 0.11299511 0)
(1.5625781 0.10360508 5.3346755e-20)
(1.5472162 0.094151165 -3.7588735e-20)
(1.5118189 0.084949856 1.1822982e-20)
(1.4671726 0.080093076 0)
(0.04765359 0.0028541373 -1.9064011e-19)
(0.15187737 0.0084161807 1.1403795e-19)
(0.27564404 0.013122627 2.1357755e-19)
(0.42090196 0.016439076 -1.9399983e-19)
(0.58795366 0.017766007 -2.046163e-21)
(0.77392878 0.016367169 7.5986928e-20)
(0.97110031 0.011587791 6.4447939e-20)
(1.1660203 0.0032383282 -1.5585758e-21)
(1.3408604 -0.0079562181 -1.8551031e-21)
(1.4777392 -0.020179518 -9.1652348e-20)
(1.5648657 -0.030986498 9.3463987e-20)
(1.6012563 -0.038353725 -3.4935377e-21)
(1.596637 -0.041601342 -9.1860641e-21)
(1.5658165 -0.041339427 -1.8567057e-20)
(1.5223259 -0.039096617 -1.102709e-23)
(1.474125 -0.031809804 7.0777513e-21)
(0.05978424 -0.0041587109 -9.2813548e-20)
(0.18736549 -0.013634294 -1.1125438e-19)
(0.33445257 -0.026224211 3.1420953e-19)
(0.50134283 -0.042436064 -1.9005422e-19)
(0.6860916 -0.062532051 8.6510099e-20)
(0.88316095 -0.086392897 8.8464108e-24)
(1.0822898 -0.1131406 1.2150967e-19)
(1.2685298 -0.14077486 -5.4071932e-20)
(1.424558 -0.16610207 -6.6050192e-21)
(1.5355645 -0.18534585 2.6495376e-20)
(1.5950034 -0.19551062 -4.1321892e-20)
(1.6076684 -0.1958927 3.0919832e-20)
(1.5872262 -0.18835283 -8.4266807e-21)
(1.5486655 -0.17575954 -3.2533048e-20)
(1.5030896 -0.16093789 1.1935592e-20)
(1.4557065 -0.14254225 1.3082764e-20)
(0.06890119 -0.013897592 -1.9662159e-21)
(0.213274 -0.04349595 4.1452964e-19)
(0.37601128 -0.078165841 -3.8839758e-19)
(0.55580361 -0.11793891 3.483976e-19)
(0.74876265 -0.16220067 -3.1344516e-19)
(0.94737313 -0.20942603 0)
(1.1399181 -0.25680917 2.194588e-19)
(1.3111985 -0.3001015 -1.7866102e-19)
(1.445499 -0.33407107 -3.4827465e-21)
(1.5317449 -0.35398499 0)
(1.5685139 -0.35769642 -1.443982e-20)
(1.5651041 -0.34710491 6.6025562e-21)
(1.5370678 -0.32696746 -4.2392034e-20)
(1.4976069 -0.30167025 7.7002606e-20)
(1.4546614 -0.27432449 -4.9859354e-20)
(1.4113326 -0.24464221 -1.1880151e-20)
(0.073685932 -0.025131928 1.2619247e-21)
(0.22594702 -0.077363093 -1.5041289e-21)
(0.39466225 -0.13603368 0)
(0.5772673 -0.20035974 -1.6724563e-21)
(0.7685556 -0.26852978 -3.7186642e-21)
(0.95993066 -0.33739114 2.1875507e-19)
(1.1392237 -0.4021827 -1.9262919e-19)
(1.2917786 -0.45659146 0)
(1.4040415 -0.4939151 1.4613198e-20)
(1.4688841 -0.50954836 9.8021049e-21)
(1.4894396 -0.50339222 9.1746899e-21)
(1.4777606 -0.48061175 -1.67525e-20)
(1.4494172 -0.44839616 9.2750871e-21)
(1.4150102 -0.41184558 4.7356673e-20)
(1.3793806 -0.37424691 -5.0508449e-20)
(1.3438903 -0.33676581 2.5988533e-20)
(0.06743654 -0.044991079 6.4878461e-19)
(0.20513256 -0.13685205 -3.8835272e-19)
(0.35553335 -0.23700777 0)
(0.51524031 -0.34292373 -2.0120016e-21)
(0.67826181 -0.45021072 -2.7960713e-19)
(0.83564301 -0.55220039 2.5295024e-19)
(0.97588738 -0.63987662 1.8499336e-19)
(1.0872059 -0.70320522 -8.901854e-21)
(1.1619181 -0.73474384 -1.3060093e-19)
(1.2004957 -0.73371821 6.7614356e-21)
(1.211478 -0.70673705 0)
(1.2064733 -0.663683 -7.0011264e-20)
(1.194722 -0.61274114 2.14229e-20)
(1.1815665 -0.55840648 3.4576905e-20)
(1.1697632 -0.50257134 0)
(1.158162 -0.44857198 -7.885321e-23)
(0.06045988 -0.054887388 -1.1321192e-21)
(0.18263681 -0.16550629 4.3810569e-19)
(0.31524643 -0.28388929 -2.0735188e-19)
(0.45496887 -0.40658228 -1.8743215e-19)
(0.5964097 -0.52774408 1.6556988e-19)
(0.73219432 -0.63899241 -1.4458016e-19)
(0.85219613 -0.72909095 1.2476321e-19)
(0.94661236 -0.78750163 8.5768659e-20)
(1.0107129 -0.80936141 -7.6718629e-20)
(1.0466915 -0.79777344 0)
(1.0621733 -0.76202867 0)
(1.0658778 -0.71241847 0)
(1.0642879 -0.65618532 -1.3521054e-21)
(1.0615491 -0.59678693 0)
(1.0605282 -0.5359203 -5.0524659e-21)
(1.0597002 -0.47846424 1.485851e-20)
(-0.012683981 0.013954891 3.3878414e-19)
(-0.035713661 0.039320017 1.4505674e-21)
(-0.056326237 0.062671871 -3.8561589e-19)
(-0.071556164 0.08109496 3.5467265e-19)
(-0.077083125 0.090569016 4.5079546e-21)
(-0.066714293 0.085892757 5.0309431e-21)
(-0.032028391 0.06090031 0)
(0.036967579 0.0094015139 1.9768414e-19)
(0.14468994 -0.069913884 -3.2536229e-19)
(0.28801292 -0.17200132 1.3465433e-19)
(0.45375442 -0.28367297 -1.0271165e-19)
(0.62119217 -0.3872294 8.3968524e-20)
(0.76919466 -0.46635558 -2.9936768e-21)
(0.88329118 -0.51101338 -9.9789861e-21)
(0.9587854 -0.51978591 -2.9567232e-20)
(1.0032268 -0.49684242 0)
(-0.0095694435 0.014405347 0)
(-0.027307279 0.041275407 -2.5584471e-21)
(-0.043875432 0.066997685 3.136076e-19)
(-0.057248058 0.088983241 -2.8681081e-19)
(-0.064416177 0.1035138 -6.11747e-21)
(-0.061143171 0.10560443 2.2037853e-19)
(-0.041886116 0.089104187 -8.4485801e-22)
(-8.3372021e-05 0.047328079 -3.1482822e-19)
(0.07136585 -0.025103431 1.6896922e-20)
(0.17325723 -0.12419454 1.0578884e-19)
(0.30132579 -0.24115938 0)
(0.4420767 -0.35818288 -6.8472929e-21)
(0.57712569 -0.45471539 -1.2580355e-20)
(0.69126301 -0.5153647 -4.9134512e-20)
(0.7772295 -0.53438259 6.4893736e-20)
(0.83753714 -0.51550495 4.2602238e-21)
(-0.009299342 0.018858066 -4.5123464e-23)
(-0.026938138 0.054840558 -4.7365486e-19)
(-0.044180578 0.090567387 2.2383941e-19)
(-0.059559036 0.12341449 -1.3233303e-21)
(-0.070947612 0.14966615 -1.7963139e-19)
(-0.075412898 0.16440554 1.5576931e-19)
(-0.069120033 0.16154408 -1.7400961e-21)
(-0.047360258 0.13407062 2.9171448e-21)
(-0.0047023194 0.074751825 -4.5643907e-21)
(0.065387406 -0.021891234 -3.9153973e-21)
(0.15941954 -0.14459643 5.8900505e-20)
(0.26994792 -0.27417224 -4.0455359e-20)
(0.38395329 -0.38719484 -6.4407357e-20)
(0.48872123 -0.4646572 5.2541128e-20)
(0.57707749 -0.49782057 -8.1334738e-21)
(0.65072176 -0.48740218 -1.0978531e-20)
(-0.0063822096 0.018627225 -1.917413e-22)
(-0.01876547 0.054361809 -2.3022697e-22)
(-0.031537046 0.090086099 -7.3452865e-20)
(-0.043963354 0.12340277 6.8892308e-20)
(-0.054907362 0.15096139 -7.1348182e-22)
(-0.062758962 0.16842105 5.396057e-20)
(-0.065342646 0.17061571 -4.1567886e-20)
(-0.059835959 0.15193497 -7.6039597e-20)
(-0.042553461 0.10681654 -2.2276797e-22)
(-0.0079850721 0.03010735 1.0296059e-19)
(0.048949204 -0.075201027 -3.9703171e-20)
(0.12463198 -0.19230769 0)
(0.21188552 -0.29939535 3.2996441e-21)
(0.30191635 -0.37696067 -1.280025e-20)
(0.38908473 -0.41501161 6.6093199e-21)
(0.47302757 -0.41299239 2.0049407e-21)
(-0.0032999006 0.015840213 1.9174615e-22)
(-0.0099939609 0.046185946 -4.0059132e-20)
(-0.017735819 0.076457551 3.799743e-20)
(-0.026435791 0.10467792 -3.9979022e-22)
(-0.035790938 0.12815429 8.8090909e-22)
(-0.04526416 0.14351727 -1.4786658e-22)
(-0.053947364 0.14698701 -2.4910546e-20)
(-0.060382566 0.13488163 -7.8573572e-22)
(-0.062287891 0.10424838 1.4964904e-20)
(-0.055961533 0.053314725 -1.2561726e-20)
(-0.034827729 -0.018559759 1.0252277e-20)
(0.0069320051 -0.10698517 0)
(0.069436733 -0.19300579 2.5163172e-21)
(0.14478131 -0.25452245 -1.87995e-21)
(0.23003428 -0.28570455 2.1436761e-22)
(0.3229519 -0.28638843 0)
(-0.00073795381 0.0069091941 -5.3427871e-21)
(-0.0028131429 0.020176822 3.0346205e-21)
(-0.0068117838 0.033435208 6.4814891e-21)
(-0.013245626 0.045780529 -6.1886414e-21)
(-0.022499652 0.055908084 -2.6899707e-22)
(-0.034786087 0.062114278 2.6776779e-21)
(-0.049844083 0.062502919 2.5011096e-21)
(-0.06658243 0.055456074 -2.7272882e-23)
(-0.082730919 0.04022384 -1.0569035e-22)
(-0.094496585 0.017190079 -3.1408337e-21)
(-0.09614343 -0.01258918 2.5194579e-21)
(-0.079474953 -0.048506753 -9.1087628e-22)
(-0.039216774 -0.087230989 -1.2104676e-21)
(0.030271396 -0.11952238 9.530183e-22)
(0.11915896 -0.13419294 2.0844029e-24)
(0.2280191 -0.13210345 -2.6104691e-21)
(-0.00073024861 -0.0068070705 -2.620419e-21)
(-0.0027902015 -0.019870373 -3.506842e-21)
(-0.0067709975 -0.032910347 9.6173762e-21)
(-0.013184394 -0.045027948 -6.1697528e-21)
(-0.022415839 -0.054924268 2.9673413e-21)
(-0.034678207 -0.060900765 3.1379567e-25)
(-0.049711326 -0.061062551 4.7333518e-21)
(-0.066425149 -0.05378594 -2.1245903e-21)
(-0.082552849 -0.038306779 -4.5197263e-22)
(-0.094302937 -0.014988524 7.6526023e-22)
(-0.095907106 0.015133231 -1.2046114e-21)
(-0.079247763 0.051444867 -1.6711684e-22)
(-0.039068352 0.090528289 -1.2056182e-21)
(0.030182499 0.12309504 3.0016914e-21)
(0.11863304 0.13781138 -1.6112778e-21)
(0.22708893 0.13458886 -4.5093638e-21)
(-0.0032746076 -0.015719976 -2.3293148e-22)
(-0.0099209057 -0.04583289 4.026364e-20)
(-0.017613257 -0.075865355 -3.7757634e-20)
(-0.026263238 -0.10384771 3.4654594e-20)
(-0.035569688 -0.12709473 -3.1356531e-20)
(-0.044997257 -0.14224253 0)
(-0.05363926 -0.14551193 2.4246357e-20)
(-0.060038907 -0.13321483 -1.951924e-20)
(-0.061915312 -0.10238694 -1.107134e-21)
(-0.055571919 -0.051247448 0)
(-0.034464104 0.02083462 -2.2003822e-21)
(0.007140797 0.10932751 1.3041871e-21)
(0.069381682 0.195438 -3.8249047e-21)
(0.14424114 0.25698957 2.1398696e-22)
(0.22943998 0.28785416 4.8836468e-22)
(0.32712761 0.28561464 2.6320187e-21)
(-0.0063475269 -0.018526085 1.9047406e-22)
(-0.018666162 -0.054061848 -2.2871049e-22)
(-0.031375649 -0.089577178 0)
(-0.043745543 -0.12267977 1.7126525e-21)
(-0.054642621 -0.15002477 1.1694409e-21)
(-0.062461218 -0.1672765 5.3598553e-20)
(-0.065031083 -0.16927338 -4.6855651e-20)
(-0.059537987 -0.15041047 0)
(-0.042309174 -0.10513556 -9.4047799e-22)
(-0.0078428599 -0.028300226 -3.9095906e-21)
(0.048848033 0.077052196 1.8120148e-21)
(0.12421094 0.19415417 3.3610487e-21)
(0.21104314 0.30121474 1.6313933e-21)
(0.30047592 0.37873569 9.212941e-21)
(0.38696436 0.41647328 -8.5300127e-21)
(0.47353123 0.41085175 8.6792497e-22)
(-0.0092760758 -0.018811646 0)
(-0.026872578 -0.054698849 2.3714849e-19)
(-0.044077523 -0.090319787 -4.4506684e-19)
(-0.059426999 -0.12305188 2.0209479e-19)
(-0.070800238 -0.14918199 -1.1696358e-21)
(-0.075271026 -0.16379688 -4.9734375e-21)
(-0.069014049 -0.1608131 1.3490793e-19)
(-0.04733351 -0.13322801 -1.1211367e-19)
(-0.0048189102 -0.073826176 -8.2917281e-20)
(0.065014252 0.022823536 7.3987955e-20)
(0.15872203 0.14552874 0)
(0.26885368 0.27508804 -4.8291692e-20)
(0.38238335 0.3880587 2.4919451e-20)
(0.48653498 0.46544248 0)
(0.57407579 0.49846872 0)
(0.64997125 0.48535478 0)
(-0.0095716102 -0.014409639 5.5609822e-19)
(-0.02731612 -0.041285031 -3.3292056e-19)
(-0.043895951 -0.067008698 0)
(-0.057287914 -0.088991285 -2.4766733e-21)
(-0.064487971 -0.10351495 -2.4873512e-19)
(-0.06126799 -0.10559673 2.2707231e-19)
(-0.042098116 -0.089090278 1.8022588e-19)
(-0.00043452174 -0.047319002 4.5987684e-21)
(0.070807531 0.02509177 -1.3665606e-19)
(0.17245012 0.12418878 5.6177625e-21)
(0.30024037 0.24118051 0)
(0.44068699 0.3582251 -1.2195586e-19)
(0.57541317 0.45473247 2.0572479e-20)
(0.68911854 0.51534039 6.8657773e-20)
(0.77415723 0.53453034 0)
(0.83590833 0.51331947 6.6743303e-21)
(-0.012695743 -0.013967953 5.538913e-22)
(-0.035753725 -0.039361731 8.1363062e-19)
(-0.056404106 -0.062748037 -3.8517052e-19)
(-0.071685463 -0.08121254 -3.5013608e-19)
(-0.077285175 -0.090737185 3.1150415e-19)
(-0.067021894 -0.086121733 -2.7842058e-19)
(-0.03249416 -0.061201891 2.3467562e-19)
(0.036297703 -0.0097734041 1.913394e-19)
(0.14379391 0.069496432 -1.7672199e-19)
(0.28688602 0.17157431 0)
(0.45240631 0.28327432 0)
(0.61963755 0.38687681 0)
(0.76744518 0.466034 1.7043479e-20)
(0.88126859 0.51075417 0)
(0.95657383 0.51949958 5.2010223e-20)
(1.0070682 0.49111545 -8.4268496e-20)
(0.19280269 0.20359435 0)
(0.30378529 0.32054044 0)
(0.41946825 0.44134501 0)
(0.53362937 0.55793578 2.2916407e-21)