/*--------------------------------*- C++ -*----------------------------------*\
| =========                 |                                                 |
| \\      /  F ield         | foam-extend: Open Source CFD                    |
|  \\    /   O peration     | Version:     4.1                                |
|   \\  /    A nd           | Web:         http://www.foam-extend.org         |
|    \\/     M anipulation  |                                                 |
\*---------------------------------------------------------------------------*/
FoamFile
{
    version     2.0;
    format      ascii;
    class       surfaceScalarField;
    location    "0.9";
    object      phi;
}
// * * * * * * * * * * * * * * * * * * * * * * * * * * * * * * * * * * * * * //

dimensions      [0 3 -1 0 0 0 0];

internalField   nonuniform List<scalar> 
6703
(
-2.8117352e-05
0.00014613624
-0.00011801889
-5.3275785e-05
0.00017989901
-0.00015474058
-7.7128554e-05
0.00021596078
-0.00019210801
-0.0001050674
0.00025655312
-0.00022861428
-0.00013715715
0.00030411343
-0.00027202368
-0.0001738222
0.00035981641
-0.00032315136
-0.00021550767
0.00042488037
-0.0003831949
-0.00026268587
0.00050070433
-0.00045352613
-0.00031592099
0.00058882725
-0.00053559213
-0.00037590491
0.00069096708
-0.00063098316
-0.00044347871
0.00080906834
-0.00074149454
-0.00051964726
0.00094537206
-0.00086920351
-0.00060558412
0.0011025784
-0.0010166415
-0.00070273523
0.0012842079
-0.0011870568
-0.00081283333
0.0014952182
-0.0013851201
0.0017423102
-0.0016194255
-0.00093571801
-2.0386411e-05
0.00016652265
-4.0792187e-05
0.00020030479
-6.0866893e-05
0.00023603548
-8.4545951e-05
0.00028023218
-0.0001121784
0.00033174588
-0.00014453466
0.00039217267
-0.00018240621
0.00046275192
-0.00022665661
0.00054495473
-0.00027825823
0.00064042888
-0.00033832765
0.0007510365
-0.00040818574
0.00087892642
-0.0004894512
0.0010266375
-0.0005841397
0.0011972669
-0.00069466179
0.0013947299
-0.00082348345
0.0016240398
0.0018909999
-0.00097217311
-7.6244417e-06
0.00017414709
-1.9808548e-05
0.0002124889
-3.3797896e-05
0.00025002483
-5.0581702e-05
0.00029701599
-7.048994e-05
0.00035165412
-9.4126204e-05
0.00041580893
-0.00012212327
0.00049074899
-0.00015521873
0.00057805018
-0.00019425548
0.00067946563
-0.00024019419
0.00079697521
-0.0002941342
0.00093286643
-0.00035735332
0.0010898566
-0.00043137478
0.0012712883
-0.00051802953
0.0014813847
-0.00061934322
0.0017253535
0.0020090084
-0.00073735176
-2.8572244e-06
0.00017700432
-1.0624066e-05
0.00022025574
-1.8812053e-05
0.00025821282
-2.8953708e-05
0.00030715764
-4.1096876e-05
0.00036379729
-5.5702256e-05
0.00043041431
-7.3204546e-05
0.00050825128
-9.4133238e-05
0.00059897888
-0.0001190982
0.00070443059
-0.00014880207
0.00082667908
-0.00018405164
0.000968116
-0.00022576764
0.0011315726
-0.00027498532
0.001320506
-0.00033281282
0.0015392122
-0.00040019489
0.0017927356
0.0020854215
-0.00047660794
1.3956437e-06
0.00017560867
-2.4557098e-06
0.00022410709
-5.3862583e-06
0.00026114337
-9.4392503e-06
0.00031121063
-1.4249138e-05
0.00036860718
-2.012765e-05
0.00043629282
-2.7272572e-05
0.0005153962
-3.5971223e-05
0.00060767753
-4.656054e-05
0.00071501991
-5.9445209e-05
0.00083956375
-7.5106056e-05
0.00098377685
-9.4108315e-05
0.0011505749
-0.00011710381
0.0013435015
-0.00014481693
0.0015669253
-0.00017802611
0.0018259448
0.0021269327
-0.00021953737
5.8382707e-06
0.0001697704
6.3995438e-06
0.00022354582
8.6263166e-06
0.00025891659
1.0719716e-05
0.00030911723
1.3268482e-05
0.00036605841
1.6142352e-05
0.00043341895
1.9375845e-05
0.00051216271
2.2937381e-05
0.00060411599
2.6777339e-05
0.00071117995
3.080396e-05
0.00083553712
3.4875267e-05
0.00097970554
3.8788231e-05
0.0011466619
4.2268829e-05
0.0013400209
4.4954641e-05
0.0015642395
4.6556601e-05
0.0018243428
0.0021267718
4.6717502e-05
1.0504475e-05
0.00015926593
1.6178109e-05
0.00021787218
2.3616706e-05
0.000251478
3.2131939e-05
0.000300602
4.2181371e-05
0.00035600898
5.3926881e-05
0.00042167344
6.7602639e-05
0.00049848695
8.3442699e-05
0.00058827593
0.0001016826
0.00069294006
0.00012254444
0.00081467528
0.00014622777
0.00095602221
0.00017290262
0.0011199871
0.00020271273
0.0013102108
0.00023576862
0.0015311836
0.00027223958
0.0017878719
0.0020875332
0.00031147824
1.5243816e-05
0.00014402211
2.6581684e-05
0.00020653432
3.9176977e-05
0.00023888271
5.4147826e-05
0.00028563115
7.1699952e-05
0.00033845685
9.2335741e-05
0.00040103765
0.0001164702
0.00047435249
0.00014458554
0.00056016059
0.00017717935
0.00066034625
0.00021476176
0.00077709287
0.00025784453
0.00091293945
0.00030693292
0.0010708987
0.00036252204
0.0012546217
0.00042505491
0.0014686507
0.00049485633
0.0017180705
0.002010782
0.00057160745
2.0379884e-05
0.00012364223
3.8426384e-05
0.00018848782
5.6552297e-05
0.00022075679
7.8023691e-05
0.00026415976
0.00010302476
0.00031345578
0.00013240213
0.00037166028
0.00016677891
0.00043997572
0.00020686461
0.00052007488
0.00025340058
0.00061381028
0.00030716401
0.00072332944
0.00036896457
0.00085113889
0.00043965316
0.0010002101
0.00052015679
0.0011741181
0.00061153468
0.0013772729
0.00071503324
0.0016145719
0.001893685
0.00083213028
2.751372e-05
9.6128508e-05
5.3740876e-05
0.00016226066
7.8757366e-05
0.0001957403
0.000107274
0.00023564312
0.00013988229
0.0002808475
0.00017778011
0.00033376246
0.00022189316
0.00039586267
0.0002731741
0.00046879394
0.00033260186
0.00055438252
0.00040119688
0.00065473443
0.00048003091
0.00077230485
0.00057025904
0.00090998196
0.00067320898
0.0010711681
0.00079058928
0.0012598926
0.00092487677
0.0014802844
0.0017374873
0.0010810745
3.0049012e-05
6.6079496e-05
7.0989909e-05
0.00012131976
0.00010983386
0.00015689636
0.00014914113
0.00019633585
0.00019092832
0.0002390603
0.00023750075
0.00028719004
0.00029056902
0.0003427944
0.00035157347
0.00040778949
0.00042184507
0.00048411092
0.00050266242
0.00057391708
0.00059526862
0.00067969865
0.0007009
0.00080435058
0.00082084477
0.00095122336
0.00095652378
0.0011242135
0.0011093011
0.0013275071
0.0015642205
0.0012825679
5.2991247e-05
1.3088249e-05
0.00010305974
7.1251271e-05
0.00014451499
0.00011544111
0.00018614211
0.00015470873
0.00023113508
0.00019406732
0.00028115587
0.00023716925
0.0003374423
0.00028650798
0.00040099065
0.00034424114
0.00047248183
0.00041261975
0.00055224944
0.00049414946
0.00064029863
0.00059164946
0.00073637834
0.00070827087
0.00084012499
0.00084747671
0.00095126037
0.0010130782
0.0010691231
0.0012096443
0.0014396642
0.0011936795
-1.9416531e-06
-0.00011844599
0.00012038765
-1.5053953e-05
-0.00014189814
0.00015501044
-3.9335187e-05
-0.00016885703
0.00019313827
-6.7692106e-05
-0.00020068182
0.00022903874
-0.00010127215
-0.00023803358
0.00027161363
-0.00014091096
-0.00028174807
0.00032138688
-0.00018751137
-0.00033274836
0.00037934877
-0.00024207919
-0.00039204404
0.00044661186
-0.00030560135
-0.00046074089
0.00052426305
-0.00037899667
-0.00054005104
0.00061344636
-0.00046309798
-0.00063131345
0.00071541475
-0.00055863366
-0.0007360397
0.00083157538
-0.00066627892
-0.00085600183
0.0009636471
-0.0007870366
-0.00099329082
0.0011140485
-0.0009234579
-0.0011501452
0.0012865665
-0.0013295752
0.0014887929
-0.0010826756
-1.817892e-05
-0.00010026707
-4.1242511e-05
-0.00011883455
-6.9335431e-05
-0.00014076411
-0.00010330276
-0.00016671449
-0.00014407796
-0.00019725838
-0.00019275966
-0.00023306637
-0.00025061916
-0.00027488885
-0.00031911258
-0.00032355062
-0.00039990216
-0.00037995131
-0.0004948808
-0.0004450724
-0.00060619779
-0.00051999646
-0.00073629086
-0.00060594664
-0.0008879401
-0.00070435259
-0.0010642837
-0.00081694721
-0.0012684298
-0.00094599912
-0.0010947976
-0.0015032074
-2.1370108e-05
-7.8896965e-05
-4.7471108e-05
-9.2733548e-05
-7.8773102e-05
-0.00010946212
-0.00011618671
-0.00012930089
-0.00016078197
-0.00015266312
-0.00021380322
-0.00018004513
-0.00027668286
-0.00021200921
-0.00035105567
-0.00024917782
-0.00043877456
-0.00029223241
-0.0005419302
-0.00034191677
-0.0006628797
-0.00039904696
-0.00080429294
-0.0004645334
-0.00096922154
-0.00053942399
-0.0011611995
-0.00062496924
-0.0013846004
-0.00072259821
-0.00083350842
-0.0016458896
-2.1984626e-05
-5.6912339e-05
-4.9313353e-05
-6.5404821e-05
-8.2464402e-05
-7.6311069e-05
-0.0001223058
-8.9459486e-05
-0.000169933
-0.00010503592
-0.00022663933
-0.0001233388
-0.00029391511
-0.00014473343
-0.0003734535
-0.00016963943
-0.00046715803
-0.00019852787
-0.0005771519
-0.0002319229
-0.00070579224
-0.00027040661
-0.00085570158
-0.00031462406
-0.0010298427
-0.00036528292
-0.0012316078
-0.00042320411
-0.0014644661
-0.00048973994
-0.00056781148
-0.001730163
-2.4181571e-05
-3.2730767e-05
-5.3555362e-05
-3.603103e-05
-8.8705193e-05
-4.1161237e-05
-0.00013068428
-4.7480403e-05
-0.00018073916
-5.4981039e-05
-0.00024029984
-6.3778121e-05
-0.00031099196
-7.4041302e-05
-0.00039465013
-8.5981265e-05
-0.00049333119
-9.9846816e-05
-0.00060933149
-0.00011592259
-0.00074521383
-0.00013452428
-0.00090383122
-0.00015600666
-0.0010883501
-0.00018076404
-0.0013024008
-0.00020915345
-0.0015513764
-0.00024076434
-0.00027291439
-0.0018462734
-7.6292508e-06
0.00017428228
-0.00016665303
-1.9823543e-05
0.00021266823
-0.00020047394
-3.3824014e-05
0.00025025231
-0.00023625183
-5.0620026e-05
0.00029731286
-0.00028051684
-7.054068e-05
0.00035204972
-0.00033212907
-9.4186855e-05
0.00041633309
-0.00039268691
-0.0001221869
0.00049143026
-0.00046343021
-0.00015527135
0.00057890518
-0.00054582072
-0.00019427392
0.00068048251
-0.00064147994
-0.0002401466
0.00079809223
-0.00075221955
-0.00029398902
0.00093395525
-0.00088011282
-0.00035710365
0.0010907351
-0.0010276205
-0.00043107587
0.0012717992
-0.001197827
-0.00051781438
0.0014815538
-0.0013948152
-0.00061932328
0.0017255292
-0.0016240203
0.0020096311
-0.0018917977
-0.00073715671
-3.2467611e-05
-2.6315689e-07
-6.8237041e-05
-2.6159959e-07
-0.00010913533
-2.6294399e-07
-0.00015635539
-2.6034966e-07
-0.00021108665
-2.4977221e-07
-0.00027463686
-2.2792031e-07
-0.000348486
-1.921596e-07
-0.00043432611
-1.4115775e-07
-0.00053409688
-7.604166e-08
-0.00065001768
-1.7949037e-09
-0.00078461383
7.18705e-08
-0.00094075166
1.3117222e-07
-0.0011216755
1.5978412e-07
-0.001330962
1.3308188e-07
-0.001571714
-1.2318153e-08
-4.2253915e-07
-0.0018442059
-3.3108483e-05
3.2845326e-05
-6.9430534e-05
3.6060451e-05
-0.00011089468
4.1201202e-05
-0.0001587125
4.7557466e-05
-0.00021407308
5.5110808e-05
-0.00027827228
6.3971289e-05
-0.00035276739
7.4302941e-05
-0.00043921633
8.6307786e-05
-0.00053951384
0.00010022147
-0.0006558256
0.00011630996
-0.00079061782
0.00013486409
-0.00094669172
0.00015620508
-0.0011272024
0.00018067049
-0.0013355797
0.00020851041
-0.0015748721
0.00023928001
0.00027113025
-0.0018464249
-2.4302649e-05
5.7147975e-05
-5.3933757e-05
6.5691559e-05
-8.9395398e-05
7.6662843e-05
-0.00013172026
8.9882326e-05
-0.00018214008
0.00010553063
-0.00024206829
0.0001238995
-0.0003131099
0.00014534455
-0.0003970735
0.00017027138
-0.00049598303
0.000199131
-0.00061209229
0.00023241922
-0.00074790683
0.00027067863
-0.00090620397
0.00031450222
-0.0010900689
0.00036453546
-0.0013030589
0.00042150033
-0.0015501919
0.000486413
0.0005612437
-0.0018403053
-2.192241e-05
7.9070385e-05
-4.9191528e-05
9.2960677e-05
-8.227282e-05
0.00010974413
-0.00012202003
0.00012962953
-0.00016951296
0.00015302357
-0.00022602548
0.00018041201
-0.00029302245
0.00021234152
-0.00037216366
0.00024941259
-0.00046531016
0.00029227751
-0.00057453416
0.00034164322
-0.0007021382
0.00039828267
-0.00085070002
0.00046306404
-0.001023184
0.00053701948
-0.0012231345
0.00062145083
-0.001454494
0.00071777244
0.00082627618
-0.0017195265
-2.12265e-05
0.00010029689
-4.7152998e-05
0.00011888718
-7.823861e-05
0.00014082975
-0.00011538277
0.00016677369
-0.00015964223
0.00019728303
-0.00021224501
0.00023301479
-0.00027460415
0.00027470066
-0.00034833325
0.00032314169
-0.00043526608
0.00037921034
-0.00053748591
0.00044386305
-0.00065737544
0.0005181722
-0.00079770056
0.00060338916
-0.00096171829
0.00070103721
-0.0011533141
0.00081304668
-0.0013779241
0.00094238242
0.0010956275
-0.0016472754
-1.8096744e-05
0.00011839363
-4.1052706e-05
0.00014184314
-6.9008302e-05
0.00016878534
-0.00010280472
0.00020057011
-0.00014337218
0.0002378505
-0.00019180797
0.00028145057
-0.00024938699
0.00033227969
-0.00031757978
0.00039133447
-0.00039808408
0.00045971464
-0.00049286714
0.00053864611
-0.0006042195
0.00062952455
-0.00073483025
0.00073399991
-0.00088792074
0.0008541277
-0.0010674004
0.00099252635
-0.0012771377
0.0011521197
0.0013351222
-0.0015166325
-1.8329171e-06
0.00012022655
-1.4875602e-05
0.00015488582
-3.9112735e-05
0.00019302248
-6.7413551e-05
0.00022887092
-0.0001009339
0.00027137084
-0.00014051457
0.00032103125
-0.00018706743
0.00037883255
-0.00024161432
0.00044588137
-0.00030517242
0.00052327274
-0.00037870854
0.00061218223
-0.00046312602
0.00071394203
-0.00055923473
0.00083010863
-0.00066773372
0.00096262669
-0.00078934701
0.0011141396
-0.00092552547
0.0012882982
0.0014905656
-0.0010809688
5.3084269e-05
-6.6161001e-05
1.3076732e-05
0.00010325222
-0.00012145743
7.1289481e-05
0.0001447911
-0.00015706255
0.00011552367
0.00018649702
-0.00019655153
0.00015484561
0.00023156843
-0.00023934642
0.00019427501
0.00028166488
-0.00028757263
0.00023747617
0.00033801553
-0.00034330479
0.00028695414
0.00040160088
-0.00040845974
0.0003448744
0.00047307636
-0.00048496393
0.00041348845
0.0005527374
-0.00057494982
0.00049528879
0.0006405363
-0.00068085875
0.00059305984
0.00073615349
-0.00080550959
0.0007098924
0.00083913438
-0.00095215108
0.00084917018
0.0009489921
-0.0011245508
0.001014693
0.0010645073
-0.0013264587
0.0012109434
-0.0015615589
0.0014362842
0.001189782
3.0080865e-05
-9.6241866e-05
7.1081588e-05
-0.00016245815
0.00010999058
-0.00019597154
0.00014937211
-0.00023593306
0.00019124419
-0.00028121851
0.00023791454
-0.00033424297
0.00029109319
-0.00039648344
0.00035221593
-0.00046958248
0.0004226046
-0.00055535261
0.00050352475
-0.00065586997
0.00059620827
-0.00077354227
0.00070190142
-0.00091120274
0.00082197458
-0.0010722242
0.00095812971
-0.0012607059
0.0011126004
-0.0014809294
-0.0017396205
0.001290662
2.7541232e-05
-0.0001237831
5.379358e-05
-0.0001887105
7.8836985e-05
-0.00022101495
0.0001073904
-0.00026448647
0.00014004536
-0.00031387346
0.00017800009
-0.00037219771
0.00022217882
-0.00044066216
0.00027352979
-0.00052093346
0.0003330233
-0.00061484612
0.00040166625
-0.00072451292
0.00048051395
-0.00085238997
0.00057070954
-0.0010013983
0.00067358672
-0.0011751014
0.00079087344
-0.0013779926
0.00092498292
-0.0016150388
-0.0018947311
0.0010800936
2.0389661e-05
-0.00014417276
3.8442549e-05
-0.00020676339
5.6576876e-05
-0.00023914928
7.8061366e-05
-0.00028597096
0.00010308021
-0.00033889231
0.00013247967
-0.00040159717
0.00016688124
-0.00047506374
0.0002069902
-0.00056104242
0.00025353994
-0.00066139585
0.0003072953
-0.00077826828
0.00036905133
-0.00091414601
0.00043964998
-0.001071997
0.00052003238
-0.0012554838
0.00061131259
-0.0014692728
0.00071488228
-0.0017186085
-0.0020123184
0.00083246952
1.5243216e-05
-0.00015941598
2.6574484e-05
-0.00021809466
3.9165815e-05
-0.00025174061
5.4132925e-05
-0.00030093807
7.1682644e-05
-0.00035644202
9.2316389e-05
-0.00042223091
0.00011644745
-0.0004991948
0.00014455405
-0.00058914902
0.00017712637
-0.00069396818
0.00021466306
-0.00081580497
0.00025766141
-0.00095714435
0.00030661449
-0.0011209501
0.00036201632
-0.0013108856
0.000424317
-0.0015315735
0.00049385244
-0.001788144
-0.0020884869
0.00057002096
1.05001e-05
-0.00016991608
1.6161949e-05
-0.00022375651
2.359136e-05
-0.00025917002
3.2095607e-05
-0.00030944232
4.2134139e-05
-0.00036648056
5.3867981e-05
-0.00043396475
6.7530177e-05
-0.00051285699
8.3351938e-05
-0.00060497078
0.00010156349
-0.00071217973
0.00012237866
-0.00083662014
0.0001459868
-0.0009807525
0.00017255039
-0.0011475136
0.00020221597
-0.0013405512
0.00023511235
-0.0015644699
0.00027147257
-0.0018245042
-0.002127539
0.00031052474
5.8339785e-06
-0.00017575005
6.383458e-06
-0.00022430599
8.6009843e-06
-0.00026138754
1.0683591e-05
-0.00031152493
1.3221789e-05
-0.00036901876
1.6085276e-05
-0.00043682824
1.9308309e-05
-0.00051608002
2.2858286e-05
-0.00060852076
2.6683157e-05
-0.0007160046
3.068701e-05
-0.000840624
3.4722345e-05
-0.00098478783
3.8581547e-05
-0.0011513728
4.1991467e-05
-0.0013439612
4.4603745e-05
-0.0015670821
4.6175798e-05
-0.0018260762
-0.0021275392
4.6175918e-05
1.3928109e-06
-0.00017714286
-2.4685151e-06
-0.00022044466
-5.4072315e-06
-0.00025844883
-9.4689884e-06
-0.00030746317
-1.4287044e-05
-0.0003642007
-2.0171917e-05
-0.00043094337
-2.7320261e-05
-0.00050893168
-3.6017864e-05
-0.00059982315
-4.6600477e-05
-0.00070542199
-5.947258e-05
-0.00082775189
-7.5117201e-05
-0.00096914321
-9.4105232e-05
-0.0011323848
-0.00011709567
-0.0013209707
-0.00014480723
-0.0015393706
-0.00017797148
-0.001792912
-0.0020860438
-0.00021946684
-2.8605826e-06
-1.063701e-05
-1.8833532e-05
-2.8983847e-05
-4.1134823e-05
-5.57451e-05
-7.3246523e-05
-9.41645e-05
-0.00011910397
-0.00014876364
-0.0001839516
-0.0002256013
-0.00027477276
-0.0003325896
-0.00039997236
-0.00047638501
-2.0370807e-05
-0.00014628222
-4.0787291e-05
-0.00018005746
-6.0888538e-05
-0.00021615059
-8.459561e-05
-0.00025680977
-0.00011225961
-0.00030446507
-0.0001446477
-0.00036029882
-0.00018254448
-0.00042553343
-0.00022680083
-0.00050156437
-0.00027836986
-0.00058991091
-0.00033834438
-0.00069224504
-0.00040802966
-0.00081042754
-0.00048906788
-0.00094658228
-0.00058358525
-0.0011033097
-0.00069421556
-0.0012841849
-0.00082374547
-0.0014944904
-0.0017412359
-0.00097430729
-2.8098346e-05
-0.00011818388
-5.3293478e-05
-0.00015486232
-7.7216428e-05
-0.00019222764
-0.00010524013
-0.00022878606
-0.00013743275
-0.00027227246
-0.00017421592
-0.00032351565
-0.00021602638
-0.00038372298
-0.00026331953
-0.00045427123
-0.0003166327
-0.00053659773
-0.00037662111
-0.00063225662
-0.00044409194
-0.00074295672
-0.00052005667
-0.00087061755
-0.00060581095
-0.0010175554
-0.00070309183
-0.0011869041
-0.00081370284
-0.0013838794
-0.0016187026
-0.00093623613
3.1459704e-05
-2.0590947e-05
-1.0868758e-05
0.00010253888
-5.9291712e-07
-7.0486261e-05
0.00018695288
2.8042071e-05
-0.00011245607
0.00027679032
6.0032088e-05
-0.00014986953
0.00036553096
9.8632436e-05
-0.00018737307
0.00045175952
0.00014174406
-0.00022797262
0.00053555033
0.00019005991
-0.00027385072
0.00061723753
0.00024523897
-0.00032692616
0.00069748094
0.00030890626
-0.00038914968
0.00077741173
0.00038275758
-0.00046268837
0.00085858535
0.0004688435
-0.00055001712
0.00094291727
0.00056961584
-0.00065394776
0.0010327758
0.00068774529
-0.00077760384
0.00113107
0.00082613749
-0.00092443162
0.00124113
0.00098820919
-0.0010982693
0.0011777303
-0.0013032507
0.0013666504
1.5646901e-05
-3.6237848e-05
5.4033148e-05
-3.8979164e-05
0.00011341233
-3.1337111e-05
0.00019335502
-1.9910606e-05
0.00029576558
-3.7781172e-06
0.00041162655
2.5883091e-05
0.00053388736
6.7799104e-05
0.00065723537
0.00012189095
0.00077975537
0.00018638626
0.00090258683
0.00025992613
0.0010267183
0.000344712
0.0011543095
0.00044202467
0.0012894734
0.00055258143
0.001438632
0.00067697879
0.0016105052
0.00081633604
0.00097220414
0.0018160314
1.7033608e-06
-3.7941209e-05
2.8214368e-06
-4.009724e-05
1.5554336e-05
-4.4070011e-05
4.4881964e-05
-4.9238233e-05
9.654768e-05
-5.5443833e-05
0.00017417336
-5.1742592e-05
0.00028045725
-3.8484782e-05
0.00041729726
-1.4949064e-05
0.00057586472
2.7818795e-05
0.00074112137
9.4669485e-05
0.0009024582
0.00018337518
0.0010617465
0.00028273633
0.0012228071
0.00039152087
0.0013928049
0.00050698094
0.0015809769
0.00062816411
0.00075501944
0.0017981616
2.2225955e-06
-4.0163804e-05
4.6288986e-06
-4.2503543e-05
7.8404683e-06
-4.728158e-05
1.1817861e-05
-5.3215626e-05
1.6243015e-05
-5.9868987e-05
3.144541e-05
-6.6944986e-05
6.6953609e-05
-7.3992981e-05
0.00013295743
-8.0952882e-05
0.00023710843
-7.633221e-05
0.00037942295
-4.7645028e-05
0.00054457535
1.8222772e-05
0.00069590539
0.00013140629
0.00086421113
0.00022321513
0.0010548824
0.00031630966
0.0012734303
0.00040961616
0.0004976686
0.0015307812
-1.9579774e-06
-3.8205827e-05
-7.5753532e-06
-3.6886167e-05
-1.6274036e-05
-3.8582898e-05
-2.8189915e-05
-4.1299747e-05
-4.3524491e-05
-4.4534411e-05
-6.2456575e-05
-4.8012902e-05
-8.4990163e-05
-5.1459392e-05
-0.00011160109
-5.4341953e-05
-0.00013201219
-5.5921117e-05
-0.00012405434
-5.5602876e-05
-5.0241108e-05
-5.5590457e-05
9.2832422e-05
-1.1667236e-05
0.00025124426
6.4803292e-05
0.00043247065
0.00013508327
0.00065136212
0.0001907247
0.00021981549
0.00092921523
-4.0027728e-05
1.8219007e-06
-7.9147676e-05
2.2337813e-06
-0.00012034775
2.6171733e-06
-0.00016461526
2.9677679e-06
-0.00021240957
3.2599021e-06
-0.00026387908
3.4566014e-06
-0.00031885279
3.5143208e-06
-0.00037658794
3.3932012e-06
-0.0004355889
3.0798382e-06
-0.00049380385
2.6120748e-06
-0.00055141686
2.0225546e-06
-0.00056392769
8.4359048e-07
-0.00049956452
4.4012928e-07
-0.00036730286
2.8216111e-06
-0.00019482015
1.8241982e-05
4.8910544e-05
-2.3915203e-05
-3.7326322e-05
3.9148223e-05
-7.3956488e-05
3.8863948e-05
-0.00011242519
4.108587e-05
-0.00015361816
4.4160742e-05
-0.00019799177
4.7633518e-05
-0.00024577001
5.1234841e-05
-0.00029694395
5.4688253e-05
-0.00035101265
5.7461901e-05
-0.00040677908
5.8846274e-05
-0.00046269213
5.852512e-05
-0.00052140294
6.0733372e-05
-0.0005252299
4.6705445e-06
-0.00045293966
-7.1850108e-05
-0.00030745989
-0.00014265816
-8.2941668e-05
-0.00020627624
-0.00026752415
0.00023349302
-2.343662e-06
4.1491885e-05
-7.7181409e-06
4.4238427e-05
-1.5731514e-05
4.9099244e-05
-2.6559932e-05
5.498916e-05
-4.0443708e-05
6.1517294e-05
-5.7617542e-05
6.8408675e-05
-7.8200388e-05
7.52711e-05
-0.00010283022
8.2091738e-05
-0.00012137355
7.7389596e-05
-0.00011093577
4.808734e-05
-3.0267552e-05
-1.9934843e-05
0.00011528128
-0.00014087829
0.00026952537
-0.0002260942
0.0004499458
-0.00032307859
0.00066538625
-0.00042171669
-0.00051664635
0.00091450846
2.7460295e-06
3.8745855e-05
5.7726506e-06
4.1211806e-05
9.6550694e-06
4.5216825e-05
1.433737e-05
5.0306859e-05
1.9489709e-05
5.6364955e-05
3.5154135e-05
5.2744249e-05
7.1090975e-05
3.933426e-05
0.00013766658
1.5516132e-05
0.00024256429
-2.7508115e-05
0.00038571702
-9.5065386e-05
0.00055066352
-0.00018488135
0.00069547528
-0.00028569005
0.00086505266
-0.00039567157
0.00105399
-0.00051201596
0.0012662333
-0.00063395993
-0.00075994964
0.0015095365
2.113105e-06
3.663275e-05
3.7682992e-06
3.9556611e-05
1.6955678e-05
3.2029446e-05
4.6692385e-05
2.0570152e-05
9.8705031e-05
4.3523085e-06
0.00017659135
-2.5142072e-05
0.0002830813
-6.7155683e-05
0.00042017094
-0.00012157351
0.00057926283
-0.00018660001
0.00074493936
-0.00026074191
0.00090626957
-0.00034621156
0.0010648512
-0.00044427163
0.0012247252
-0.00055554559
0.0013931101
-0.00068040091
0.0015790447
-0.00081989453
-0.00097566001
0.0017947551
1.5905395e-05
2.0727355e-05
5.4635789e-05
8.2621803e-07
0.00011438658
-2.7721349e-05
0.00019463424
-5.96775e-05
0.00029728952
-9.8302978e-05
0.00041373866
-0.00014159121
0.00053668404
-0.00019010107
0.0006606284
-0.00024551786
0.00078351517
-0.00030948679
0.00090648006
-0.0003837068
0.0010304822
-0.00047021366
0.0011576309
-0.00057142038
0.001292009
-0.00068992363
0.0014401325
-0.00082852445
0.0016107641
-0.0009905261
-0.0011786202
0.0018137242
3.1580228e-05
-1.0852873e-05
0.00010292902
-7.0522578e-05
0.00018774159
-0.00011253391
0.00027806093
-0.00014999684
0.00036732385
-0.0001875659
0.00045399106
-0.00022825841
0.00053815803
-0.00027426804
0.00062016247
-0.0003275223
0.00070065102
-0.00038997534
0.00078073099
-0.00046378676
0.00086192417
-0.00055140685
0.00094610701
-0.00065560322
0.0010356249
-0.00077944155
0.0011334348
-0.00092633437
0.0012430892
-0.0011001804
-0.0013062048
0.0013706738
2.3528996e-06
-2.2076592e-06
3.2673676e-06
3.5240149e-06
2.8711796e-06
7.5106526e-07
-3.6112909e-06
-1.1256052e-05
-2.3575442e-05
-4.2376367e-05
-6.9928871e-05
-0.00010902375
-0.00016303859
-0.00023595571
-0.0003327776
-0.00046163752
2.3518817e-06
-2.2037674e-06
3.2625104e-06
3.5151891e-06
2.8563617e-06
7.2758753e-07
-3.6466225e-06
-1.1305989e-05
-2.3640667e-05
-4.2450929e-05
-6.9992891e-05
-0.00010903506
-0.00016294334
-0.00023579889
-0.0003331118
-0.00046302149
2.9907628e-06
-2.2238596e-06
5.9805175e-06
1.0829284e-05
1.7538398e-05
2.6756161e-05
3.9442268e-05
5.6794361e-05
8.030747e-05
0.0001118095
0.00015346249
0.00020775167
0.00027748031
0.00036583898
0.00047660201
0.0006066814
2.9845016e-06
-2.2194915e-06
5.9695393e-06
1.0808735e-05
1.7502988e-05
2.6699613e-05
3.9356866e-05
5.6671839e-05
8.0141912e-05
0.000111603
0.00015323534
0.00020755845
0.00027743132
0.00036607786
0.0004774529
0.00061386639
0.0015443503
-0.003552687
0.0020083367
0.0085189484
-0.0088233549
0.00030440649
0.0012452258
-0.0032317247
0.0019864988
0.0085189484
-0.0022270617
0.00032366001
0.0019034017
-0.0082179428
0.0049977549
0.0032201879
-0.0011224903
0.0044043973
-0.003281907
0.0077649575
0.0029362544
-0.010701212
0.0080785467
0.0020100158
-0.010088562
0.0012772718
-0.0017389093
-0.0019545518
0.0014915303
0.0034670802
0.0064739197
-0.0099409999
-0.0036100654
-0.0038625451
0.0074726105
-0.0076548377
0.0034128609
0.0042419768
-0.0016679987
0.0040242233
-0.0023562247
0.0036677272
-0.00023507221
-0.003432655
0.0073318272
-0.0075938028
0.00026197555
0.00048103406
0.0017279917
-0.0022090258
0.0011862593
-0.0017106494
0.00052439006
0.0062711016
-0.0022744453
-0.0039966563
-0.0011044997
-0.0011225621
-0.0076990783
0.0040890129
-0.0094789475
0.009390385
8.8562496e-05
0.00072723115
0.0085230728
-0.009250304
3.4828347e-05
-0.0056642588
0.0056294305
0.004647679
0.0011954521
-0.0058431311
-0.0040574573
-0.0060257372
0.010083194
0.006376813
-0.0021026099
-0.0042742032
0.0014283029
0.0064406279
-0.0078689307
-0.0023097983
0.005590643
-0.0032808447
0.0067232901
-0.0020756111
0.0020291831
-0.0014518667
-0.00057731639
-0.00017372907
0.0083752635
-0.0082015344
0.0064248594
1.7726763e-05
-0.0064425861
0.0010464098
-0.006130765
0.0050843553
0.0088426078
-0.0074638758
-0.001378732
0.0076396353
-0.0080935043
0.00045386894
-0.0048029846
0.0058493943
0.0056013095
-0.0032630592
-0.0023382502
-0.0086418796
0.0016969528
0.0069449268
0.0025279644
-0.0037510986
0.0012231342
0.0099653903
-0.0043116933
-0.005653697
0.0077649575
-0.002335348
0.0056342649
-0.0032989169
0.0080785467
-0.00087473338
0.0037418812
-0.0028671478
-0.0019490377
0.0066469191
-0.0046978814
-0.0098023982
0.0041657374
0.0056366608
-0.0077649575
0.01165591
-0.0038909529
-0.0080785467
0.011757754
-0.0036792074
0.003188658
-0.00054965335
-0.0026390046
-0.0039152774
0.0017505104
0.002164767
0.0014418326
-0.0027050779
0.0012632452
0.00097643311
0.0011611151
-0.0021375482
-0.0031558761
0.0057077413
-0.0025518652
0.00063888477
0.0055371414
-0.0061760262
0.0009738903
-0.0019130453
0.00093915498
-0.0054922596
0.0034881318
0.0020041277
-0.010521053
0.0011469946
0.0093740579
0.0085631496
-0.0031176086
-0.005445541
0.0078661759
0.0006969737
0.0055333329
0.004096124
-0.009629457
0.0051806265
0.0043597278
-0.0095403543
-0.0024546242
0.0050402541
-0.00258563
0.00071758038
-0.0040202689
0.0033026886
-0.0066425617
0.0068954291
-0.0002528674
0.0042192518
-0.0078812904
0.0036620386
0.0045948578
0.001832255
-0.0064271128
-0.0010409138
0.0062043247
-0.0051634109
-0.0091553922
0.0072063545
-0.0026200785
0.0067507522
-0.0041306737
0.0018391233
0.001828604
-0.0046121028
0.004101011
0.00051109174
0.0048521974
0.0062275251
-0.011079723
0.0087321377
-0.0080819481
-0.00065018954
0.0005210525
-0.0029344519
0.004967254
-0.0020328021
0.0067093409
-0.0030865124
-0.0036228286
0.0097765978
-0.0088327787
-0.00094381907
0.0077180214
-0.00684891
-0.00086911143
0.0028954011
-0.0040190334
0.0011236322
-0.0022836494
0.00089085395
0.0013927955
0.0013542956
-0.0036640939
-0.01204429
0.0085274214
0.0035168684
0.0023270234
0.0050048038
0.0024830711
-0.0091253485
0.0066422775
-0.0044957733
0.0076025998
-0.0031068265
-0.00099740127
-0.006013741
0.0070111423
0.0029093712
-0.00216071
-0.00074866118
0.00048631919
0.0082458185
0.0054871016
6.5701222e-05
-0.0055528028
-0.0076788029
0.0030009746
0.0046778283
0.00053014642
0.0036692555
-0.0041994019
0.0031858967
0.0024154127
0.0044044519
0.0024287122
-0.0068331642
0.0045929098
-0.0017410836
-0.0028518263
-0.0046829362
-0.005311048
0.0030856953
-0.0018404694
-0.00077919681
-0.0015486012
0.002327798
-0.0028938813
0.0056621621
-0.0027682808
-0.0030226273
0.0078748248
-0.0057554074
0.0076257616
-0.0018703543
-0.0060616838
-0.0016171191
-6.5275312e-05
0.0077049107
0.0082452266
-0.0076813103
-0.00056391629
-0.0050835434
-0.0025712942
-0.011228498
0.0074318935
0.0037966049
-0.01184438
0.0085987952
0.0032455852
0.0057533752
-0.002583653
-0.0031697221
0.0013737796
-0.0037091275
0.0020497521
-0.0052056282
4.7231596e-05
0.0042384538
-0.0042856854
0.0031193965
-0.0041603103
-0.0016304991
0.0041584635
0.0018820566
0.004389045
0.0065638155
0.0032127823
0.0038769639
-0.0038297323
0.0029666793
0.0070862799
-0.010052959
0.0098788399
-0.0056198974
-0.0042589424
-0.0021959363
0.0048103629
-0.0026144266
-6.4004481e-05
0.0015058371
0.0020620369
-0.0010856038
0.00092983784
0.00086851365
-0.0017983515
0.010928824
-0.011102553
0.00086381106
0.00045283844
-0.0013166495
0.0011784558
-0.0002492406
-0.0074969552
0.008072838
-0.00057588282
-0.0020865284
0.0013837452
0.00070278311
0.0039146452
-0.0036819798
-0.00023266538
-0.0056301924
0.0051327805
0.00049741191
0.0019375785
-0.00096368817
-0.00043333472
0.0037346843
-0.0033013496
-0.004733223
0.0085319457
-0.0037987226
0.0034676537
0.0064977366
0.0076790653
-0.0034598135
0.0034223363
0.0023310389
-0.0035605068
0.0026857734
0.0063832883
-0.0073806895
-0.0031015387
0.0023223419
0.005648828
0.0025963987
0.0052601605
-0.010818305
0.0055581443
0.0030872005
0.0016888372
-0.0013651772
-0.0031212458
0.0046655961
0.007807776
-0.007807776
-0.002205548
-0.001344015
0.0068311166
0.00085104399
-0.0037854959
-0.00040851093
0.0063513927
-0.0059428818
-0.0040765306
0.0096098635
-0.0042564146
0.0094370411
0.0084145582
-0.0048676602
-0.003546898
0.0040892624
0.0030573046
-0.0052532409
0.0058560948
-0.007616817