/*--------------------------------*- C++ -*----------------------------------*\
| =========                 |                                                 |
| \\      /  F ield         | foam-extend: Open Source CFD                    |
|  \\    /   O peration     | Version:     4.1                                |
|   \\  /    A nd           | Web:         http://www.foam-extend.org         |
|    \\/     M anipulation  |                                                 |
\*---------------------------------------------------------------------------*/
FoamFile
{
    version     2.0;
    format      ascii;
    class       surfaceScalarField;
    location    "1";
    object      phi;
}
// * * * * * * * * * * * * * * * * * * * * * * * * * * * * * * * * * * * * * //

dimensions      [0 3 -1 0 0 0 0];

internalField   nonuniform List<scalar> 
6703
(
-2.8148922e-05
0.00014621802
-0.0001180691
-5.3340351e-05
0.00017999607
-0.00015480464
-7.7229357e-05
0.00021607458
-0.00019218558
-0.00010521031
0.00025668619
-0.00022870523
-0.00013734849
0.00030426836
-0.00027213018
-0.00017406883
0.00035999591
-0.00032327557
-0.00021581712
0.00042508711
-0.00038333883
-0.00026306613
0.00050094094
-0.00045369193
-0.00031638077
0.00058909568
-0.00053578104
-0.00037645366
0.00069126825
-0.00063119536
-0.00044412677
0.00080940128
-0.00074172817
-0.00052040605
0.00094573274
-0.00086945346
-0.00060646623
0.0011029582
-0.001016898
-0.00070375361
0.0012845915
-0.0011873041
-0.00081399726
0.0014955797
-0.001385336
0.0017426058
-0.0016195768
-0.0009370263
-2.0417117e-05
0.00016663513
-4.0856608e-05
0.00020043556
-6.0970412e-05
0.00023618839
-8.4695254e-05
0.00028041103
-0.00011238164
0.00033195475
-0.00014480152
0.00039241579
-0.00018274815
0.00046303374
-0.00022708696
0.00054527976
-0.00027879263
0.00064080135
-0.00033898427
0.00075145988
-0.00040898572
0.00087940273
-0.00049041924
0.0010271663
-0.00058530452
0.0011978435
-0.00069605566
0.0013953427
-0.00082514017
0.0016246642
0.0018915898
-0.00097412417
-7.6506509e-06
0.00017428579
-1.9866341e-05
0.00021265125
-3.3893944e-05
0.00025021599
-5.0723103e-05
0.00029724019
-7.0685331e-05
0.00035191698
-9.4385765e-05
0.00041611622
-0.00012245911
0.00049110708
-0.00015564521
0.00057846586
-0.00019478973
0.00067994587
-0.00024085664
0.00079752679
-0.00029494933
0.00093349543
-0.00035835063
0.0010905676
-0.00043258977
0.0012720826
-0.00051950449
0.0014822574
-0.00062112746
0.0017262871
0.0020099685
-0.00073950616
-2.8800845e-06
0.00017716587
-1.0675466e-05
0.00022044663
-1.8897981e-05
0.00025843851
-2.9080791e-05
0.000307423
-4.1273311e-05
0.0003641095
-5.5937678e-05
0.00043078059
-7.3510458e-05
0.00050867986
-9.452336e-05
0.00059947877
-0.00011958899
0.0007050115
-0.00014941337
0.00082735117
-0.0001848076
0.00096888966
-0.0002266979
0.0011324579
-0.00027612656
0.0013215113
-0.00033421055
0.0015403414
-0.00040190464
0.0017939812
0.0020867527
-0.00047868881
1.3798824e-06
0.00017578599
-2.4946062e-06
0.00022432112
-5.451972e-06
0.00026139587
-9.5373806e-06
0.00031150841
-1.438633e-05
0.00036895845
-2.0311768e-05
0.00043670603
-2.7513039e-05
0.00051588113
-3.6279298e-05
0.00060824503
-4.694977e-05
0.00071568197
-5.9932004e-05
0.00084033341
-7.5710541e-05
0.0009846682
-9.485557e-05
0.0011516029
-0.00011802583
0.0013446815
-0.00014595584
0.0015682714
-0.00017944
0.0018274654
0.0021286252
-0.00022131247
5.830228e-06
0.00016995576
6.3755566e-06
0.00022377579
8.5859248e-06
0.0002591855
1.0658793e-05
0.00030943554
1.3183352e-05
0.00036643389
1.6028231e-05
0.00043386115
1.922704e-05
0.00051268232
2.2747025e-05
0.00060472504
2.6537192e-05
0.0007118918
3.0504142e-05
0.00083636646
3.4503878e-05
0.00098066846
3.8330735e-05
0.001147776
4.1706905e-05
0.0013413054
4.4263968e-05
0.0015657143
4.5703129e-05
0.0018260262
0.002128667
4.56613e-05
1.0507659e-05
0.0001594481
1.617649e-05
0.00021810696
2.361004e-05
0.00025175195
3.2118472e-05
0.0003009271
4.2159915e-05
0.00035639245
5.3895873e-05
0.00042212519
6.7560441e-05
0.00049901775
8.3387659e-05
0.00058889782
0.00010161325
0.00069366621
0.0001224598
0.0008155199
0.00014612779
0.00095700047
0.0001727887
0.0011211151
0.00020258798
0.0013115061
0.00023563718
0.0015326651
0.00027210219
0.0017895612
0.0020894449
0.00031132428
1.5256296e-05
0.0001441918
2.6599137e-05
0.00020676412
3.9198097e-05
0.00023915299
5.4172881e-05
0.00028595232
7.172967e-05
0.00033883566
9.2371402e-05
0.00040148346
0.00011651388
0.00047487527
0.00014464065
0.00056077105
0.00017725142
0.00066105545
0.00021485965
0.00077791167
0.00025798215
0.00091387797
0.0003071315
0.0010719658
0.00036281278
0.0012558248
0.00042548161
0.0014699963
0.00049547607
0.0017195668
0.0020124318
0.00057248921
2.0395834e-05
0.00012379597
3.844937e-05
0.00018871058
5.6579617e-05
0.00022102275
7.8055159e-05
0.00026447678
0.00010306114
0.00031382968
0.00013244553
0.00037209907
0.00016683327
0.00044048753
0.00020693677
0.00052066755
0.00025350188
0.00061449034
0.00030731271
0.00072410083
0.0003691893
0.00085200138
0.00043999742
0.0010011577
0.00052068458
0.0011751376
0.00061233685
0.001378344
0.00071623328
0.0016156703
0.0018947789
0.00083388621
2.7513264e-05
9.6282707e-05
5.3735204e-05
0.00016248864
7.8739661e-05
0.00019601829
0.00010723932
0.00023597712
0.00013982755
0.00028124145
0.00017770456
0.00033422207
0.00022179915
0.00039639294
0.00027306877
0.00046939793
0.00033249989
0.00055505921
0.00040112449
0.00065547624
0.00048003132
0.00077309455
0.00057039956
0.00091078942
0.00067358954
0.0010719477
0.000791352
0.0012605816
0.00092621591
0.0014808064
0.0017377531
0.0010832417
3.006065e-05
6.6222058e-05
7.0955266e-05
0.00012159402
0.00010971727
0.00015725628
0.00014892084
0.00019677355
0.00019059604
0.00023956625
0.00023705341
0.00028776469
0.00029000763
0.00034343872
0.00035090615
0.00040849941
0.00042109147
0.0004848739
0.0005018597
0.00057470801
0.00059447928
0.00068047496
0.00070022133
0.00080504738
0.00082041931
0.00095174969
0.00095655025
0.0011244506
0.0011100462
0.0013273105
0.0015634107
0.0012843886
5.2901361e-05
1.3320696e-05
0.00010283875
7.1656639e-05
0.00014411452
0.00011598051
0.00018554715
0.00015534092
0.00023033209
0.00019478131
0.00028013311
0.00023796367
0.00033619443
0.0002873774
0.00039952324
0.0003451706
0.00047081763
0.00041357951
0.00055043673
0.00049508891
0.00063841954
0.00059249215
0.0007345556
0.00070891132
0.000838526
0.00084777929
0.00095009686
0.0010128798
0.0010686402
0.0012087671
0.0014379144
0.0011941365
-1.9486932e-06
-0.0001184785
0.00012042719
-1.5074686e-05
-0.00014193671
0.0001550627
-3.9375516e-05
-0.00016890247
0.0001932033
-6.7755183e-05
-0.00020073519
0.00022911486
-0.00010136208
-0.00023809572
0.00027170262
-0.00014103256
-0.00028181966
0.00032149014
-0.00018767013
-0.00033282982
0.00037946739
-0.0002422816
-0.00039213528
0.00044674675
-0.00030585444
-0.00046084103
0.00052441387
-0.00037930793
-0.00054015798
0.00061361147
-0.00046347508
-0.00063142318
0.00071559033
-0.00055908404
-0.00073614549
0.00083175446
-0.00066680941
-0.0008560932
0.00096381857
-0.00078765343
-0.00099335241
0.0011141964
-0.00092416748
-0.0011501553
0.0012866694
-0.0013295059
0.001488819
-0.0010834806
-1.818871e-05
-0.00010028979
-4.1265284e-05
-0.00011886013
-6.9374233e-05
-0.00014079352
-0.00010336098
-0.00016674845
-0.00014415936
-0.00019729734
-0.00019286847
-0.00023311056
-0.00025076013
-0.00027493815
-0.00031929097
-0.00032360444
-0.00040012372
-0.00038000828
-0.00049515168
-0.00044513002
-0.00060652434
-0.00052005052
-0.00073667924
-0.00060599059
-0.00088839581
-0.00070437663
-0.0010648108
-0.0008169374
-0.0012690294
-0.00094593673
-0.0010946601
-0.0015038752
-2.1377044e-05
-7.8912743e-05
-4.7486829e-05
-9.2750349e-05
-7.8799262e-05
-0.00010948109
-0.00011622517
-0.00012932254
-0.00016083486
-0.00015268765
-0.00021387294
-0.00018007247
-0.00027677213
-0.00021203897
-0.00035116744
-0.00024920913
-0.00043891196
-0.00029226376
-0.00054209625
-0.00034194572
-0.00066307696
-0.00039906982
-0.00080452283
-0.00046454472
-0.00096948345
-0.000539416
-0.0011614897
-0.00062493118
-0.0013849106
-0.00072251583
-0.00083336421
-0.0016462065
-2.1987602e-05
-5.6925141e-05
-4.9320806e-05
-6.5417144e-05
-8.2477487e-05
-7.6324405e-05
-0.00012232562
-8.9474408e-05
-0.00016996065
-0.00010505262
-0.00022667594
-0.00012335718
-0.00029396182
-0.00014475309
-0.00037351136
-0.00016965959
-0.0004672279
-0.00019854723
-0.00057723416
-0.00023193946
-0.0007058865
-0.00027041749
-0.00085580608
-0.00031462514
-0.0010299534
-0.0003652687
-0.0012317173
-0.00042316723
-0.0014645625
-0.0004896707
-0.00056769686
-0.0017302298
-2.4182395e-05
-3.2742747e-05
-5.3559424e-05
-3.6040116e-05
-8.8713647e-05
-4.1170182e-05
-0.0001306978
-4.749026e-05
-0.0001807581
-5.4992315e-05
-0.00024032423
-6.3791047e-05
-0.00031102145
-7.4055861e-05
-0.0003946839
-8.5997141e-05
-0.00049336784
-9.9863289e-05
-0.00060936886
-0.00011593844
-0.00074524856
-0.00013453778
-0.00090385934
-0.00015601436
-0.0010883647
-0.00018076337
-0.0013023909
-0.00020914104
-0.0015513256
-0.00024073591
-0.0002728674
-0.0018461551
-7.6508462e-06
0.00017439795
-0.0001667471
-1.9871464e-05
0.00021280455
-0.00020058393
-3.3903701e-05
0.00025041317
-0.00023638093
-5.0737435e-05
0.00029750233
-0.0002806686
-7.0703052e-05
0.00035227262
-0.00033230701
-9.4402789e-05
0.00041659454
-0.0003928948
-0.0001224667
0.0004917359
-0.00046367199
-0.00015562736
0.0005792611
-0.00054610043
-0.00019472103
0.00068089509
-0.00064180142
-0.00024070289
0.00079856801
-0.00075258616
-0.00029467659
0.00093450076
-0.00088052705
-0.00035794973
0.0010913566
-0.0010280834
-0.00043211395
0.0012725016
-0.0011983373
-0.00051908484
0.0014823374
-0.0013953665
-0.00062087278
0.001726382
-0.0016245941
0.0020105181
-0.00189235
-0.00073904087
-3.2481663e-05
-2.6108322e-07
-6.8261449e-05
-2.6032983e-07
-0.00010916903
-2.626006e-07
-0.00015639818
-2.6111496e-07
-0.00021113862
-2.5187162e-07
-0.00027469806
-2.3160549e-07
-0.00034855623
-1.9768889e-07
-0.0004344046
-1.4876997e-07
-0.00053418197
-8.5921227e-08
-0.00065010638
-1.4028877e-08
-0.0007847015
5.7334084e-08
-0.00094083043
1.1456901e-07
-0.0011217353
1.4151683e-07
-0.0013309901
1.1373985e-07
-0.0015716941
-3.1884749e-08
-4.4101941e-07
-0.0018441205
-3.3120791e-05
3.2859707e-05
-6.9451887e-05
3.6070767e-05
-0.00011092437
4.1209878e-05
-0.00015875069
4.7565208e-05
-0.00021412031
5.5117747e-05
-0.00027832916
6.3977249e-05
-0.00035283434
7.4307485e-05
-0.00043929329
8.6310186e-05
-0.00053959986
0.00010022065
-0.0006559183
0.00011630441
-0.00079071294
0.00013485198
-0.00094678142
0.00015618305
-0.0011272763
0.00018063638
-0.0013356242
0.00020846166
-0.0015748696
0.00023921349
0.00027104466
-0.0018463553
-2.4303236e-05
5.7162943e-05
-5.3937551e-05
6.5705082e-05
-8.9403956e-05
7.6676283e-05
-0.00013173478
8.9896037e-05
-0.00018216158
0.00010554454
-0.00024209756
0.00012391323
-0.00031314743
0.00014535736
-0.0003971194
0.00017028215
-0.00049603683
0.00019913808
-0.00061215276
0.00023242034
-0.0007479715
0.00027067072
-0.00090626962
0.00031448116
-0.0010901293
0.00036449603
-0.0013031034
0.00042143583
-0.0015502049
0.00048631498
0.00056110138
-0.0018402616
-2.1926987e-05
7.908993e-05
-4.9202615e-05
9.2980711e-05
-8.2292101e-05
0.00010976577
-0.00012204925
0.00012965318
-0.00016955402
0.00015304931
-0.00022608042
0.00018043962
-0.00029309349
0.00021237043
-0.00037225312
0.00024944178
-0.00046542039
0.00029230535
-0.0005746673
0.00034166726
-0.00070229589
0.00039829931
-0.00085088288
0.00046306814
-0.0010233907
0.00053700381
-0.0012233601
0.00062140527
-0.0014547283
0.00071768319
0.0008261256
-0.0017197525
-2.1235374e-05
0.0001003253
-4.7173128e-05
0.00011891847
-7.8272247e-05
0.00014086489
-0.00011543245
0.00016681338
-0.00015971083
0.0001973277
-0.0002123358
0.00023306459
-0.0002747208
0.00027475543
-0.00034847977
0.00032320076
-0.0004354467
0.00037927228
-0.00053770472
0.00044392528
-0.00065763584
0.00051823042
-0.0007980042
0.00060343651
-0.00096206348
0.0007010631
-0.0011536935
0.00081303531
-0.0013783216
0.00094231129
0.0010954686
-0.0016476646
-1.8108672e-05
0.00011843398
-4.1080387e-05
0.00014189018
-6.9055448e-05
0.00016883995
-0.00010287545
0.00020063339
-0.00014347111
0.00023792335
-0.00019194025
0.00028153374
-0.00024955844
0.00033237362
-0.00031779679
0.00039143911
-0.00039835367
0.00045982915
-0.00049319674
0.00053876835
-0.00060461666
0.00062965034
-0.00073530213
0.00073412198
-0.00088847338
0.00085423435
-0.001068038
0.00099259997
-0.0012778621
0.0011521353
0.0013350457
-0.0015174392
-1.8434966e-06
0.00012027747
-1.4903061e-05
0.00015494974
-3.9162905e-05
0.00019309979
-6.7490416e-05
0.0002289609
-0.00010104235
0.00027147528
-0.00014066033
0.00032115172
-0.00018725696
0.00037897025
-0.00024185526
0.00044603741
-0.00030547292
0.00052344682
-0.00037907719
0.00061237262
-0.00046357135
0.0007141445
-0.00055976459
0.00083031522
-0.00066835452
0.00096282428
-0.00079006309
0.0011143085
-0.00092633883
0.001288411
0.0014905859
-0.001081879
5.30443e-05
-6.6089199e-05
1.3044899e-05
0.00010315701
-0.00012145719
7.1344478e-05
0.00014463555
-0.000157137
0.00011565846
0.00018627156
-0.00019667223
0.00015503622
0.00023126711
-0.00023950258
0.00019450703
0.00028128708
-0.00028775624
0.00023773627
0.00033756975
-0.00034350778
0.00028722511
0.00040110855
-0.00040867096
0.00034513216
0.00047257648
-0.00048516689
0.00041369895
0.00055229185
-0.00057512018
0.00049540481
0.00064023422
-0.00068096186
0.00059301949
0.00073611292
-0.0008054988
0.00070962011
0.00083950004
-0.00095196736
0.00084858024
0.00094992815
-0.0011241233
0.0010136952
0.0010661809
-0.0013257081
0.0012094553
-0.0015603835
0.0014341887
0.0011923756
3.015221e-05
-9.6241409e-05
7.1193583e-05
-0.00016249856
0.00011011941
-0.00019606282
0.0001495022
-0.00023605502
0.00019137046
-0.00028137084
0.00023803862
-0.0003344244
0.00029122478
-0.00039669394
0.00035237506
-0.00046982124
0.00042282478
-0.0005556166
0.00050385711
-0.00065615251
0.00059672681
-0.00077383157
0.0007027088
-0.00091148079
0.00082320796
-0.0010724665
0.00095996665
-0.001260882
0.0011152677
-0.0014810091
-0.0017395648
0.001294449
2.7593511e-05
-0.00012383492
5.3901228e-05
-0.00018880628
7.8989283e-05
-0.00022115088
0.00010758412
-0.00026464985
0.00014028298
-0.0003140697
0.00017828851
-0.00037242993
0.00022252996
-0.00044093539
0.00027396148
-0.00052125277
0.00033356125
-0.00061521637
0.000402347
-0.00072493826
0.00048138878
-0.00085287334
0.00057184925
-0.0010019413
0.00067508707
-0.0011757043
0.00079286062
-0.0013786555
0.00092761761
-0.0016157661
-0.0018955157
0.0010835685
2.0433573e-05
-0.00014426849
3.8530504e-05
-0.00020690321
5.6703179e-05
-0.00023932355
7.8230199e-05
-0.00028617687
0.00010329776
-0.00033913726
0.00013275479
-0.00040188696
0.00016722546
-0.00047540606
0.00020741837
-0.00056144568
0.00025407149
-0.00066186949
0.00030795601
-0.00077882278
0.00036987582
-0.00091479315
0.00044068489
-0.0010727503
0.00052134023
-0.0012563597
0.000612976
-0.0014702913
0.00071700675
-0.0017197968
-0.0020136934
0.00083518445
1.5273463e-05
-0.00015954196
2.6632733e-05
-0.00021826248
3.9249503e-05
-0.00025194033
5.4247148e-05
-0.00030117452
7.1832312e-05
-0.00035672242
9.2507987e-05
-0.00042256264
0.00011668869
-0.00049958676
0.00014485435
-0.00058961134
0.00017749741
-0.00069451256
0.0002151196
-0.00081644497
0.00025822242
-0.00095789597
0.00030730469
-0.0011218326
0.00036286787
-0.0013119229
0.0004253711
-0.0015327945
0.00049515841
-0.0017895841
-0.0020901706
0.00057163556
1.0515399e-05
-0.00017005735
1.618802e-05
-0.0002239351
2.36277e-05
-0.00025938001
3.2144447e-05
-0.00030969127
4.2197334e-05
-0.00036677531
5.3947872e-05
-0.00043431317
6.762932e-05
-0.00051326821
8.3473242e-05
-0.00060545526
0.00010171024
-0.00071274956
0.00012255463
-0.00083728935
0.00014619632
-0.00098153766
0.00017279841
-0.0011484347
0.00020250782
-0.0013416323
0.00023545221
-0.0015657389
0.00027185751
-0.0018259894
-0.0021292497
0.00031093666
5.8349501e-06
-0.0001758923
6.3796729e-06
-0.00022447982
8.5923649e-06
-0.0002615927
1.0668857e-05
-0.00031176776
1.3199608e-05
-0.00036930606
1.6053796e-05
-0.00043716736
1.9265062e-05
-0.00051647947
2.2799975e-05
-0.00060899017
2.6605357e-05
-0.00071655494
3.0583771e-05
-0.00084126777
3.4585608e-05
-0.0009855395
3.8400241e-05
-0.0011522493
4.1749975e-05
-0.001344982
4.4279057e-05
-0.001568268
4.5732482e-05
-0.0018274429
-0.0021290862
4.5568938e-05
1.3834683e-06
-0.00017727577
-2.49312e-06
-0.00022060323
-5.4493533e-06
-0.00025863646
-9.5323848e-06
-0.00030768473
-1.437624e-05
-0.00036446221
-2.0292408e-05
-0.00043125119
-2.7478804e-05
-0.00050929308
-3.6222803e-05
-0.00060024617
-4.6862222e-05
-0.00070591552
-5.9804272e-05
-0.00082832572
-7.5535682e-05
-0.00096980809
-9.4632472e-05
-0.0011331525
-0.00011776098
-0.0013218535
-0.00014565088
-0.0015403781
-0.00017905138
-0.0017940424
-0.0020872664
-0.00022087111
-2.8778219e-06
-1.067651e-05
-1.8899808e-05
-2.9082205e-05
-4.1271789e-05
-5.5928443e-05
-7.3485619e-05
-9.4470696e-05
-0.00011949113
-0.00014924883
-0.00018455616
-0.00022635213
-0.00027570408
-0.00033374479
-0.00040140511
-0.00047815347
-2.0397703e-05
-0.0001463494
-4.0843066e-05
-0.00018013856
-6.0977364e-05
-0.00021624663
-8.4723282e-05
-0.00025692268
-0.0001124331
-0.00030459719
-0.00014487535
-0.00036045255
-0.0001828362
-0.00042571115
-0.00022716825
-0.00050176838
-0.00027882676
-0.00059014291
-0.00033890698
-0.00069250593
-0.00040871727
-0.00081071676
-0.00048990362
-0.00094689708
-0.00058459668
-0.0011036443
-0.00069543402
-0.0012845292
-0.00082520269
-0.0014948254
-0.0017415254
-0.00097602725
-2.8126651e-05
-0.00011822275
-5.3350407e-05
-0.00015491481
-7.7304196e-05
-0.00019229284
-0.00010536387
-0.000228863
-0.00013759788
-0.00027236317
-0.00017442838
-0.00032362206
-0.00021629269
-0.00038384684
-0.0002636467
-0.00045441437
-0.00031702847
-0.00053676114
-0.00037709408
-0.00063244033
-0.00044465184
-0.000743159
-0.00052071483
-0.00087083409
-0.00060658068
-0.0010177784
-0.00070398781
-0.001187122
-0.00081473595
-0.0013840773
-0.0016188584
-0.000937403
3.1253134e-05
-2.0159125e-05
-1.1094008e-05
0.0001020462
1.0330707e-07
-7.0896378e-05
0.00018590004
2.9143846e-05
-0.00011299768
0.00027494147
6.1469865e-05
-0.0001505113
0.000362682
0.00010036581
-0.00018810635
0.00044805412
0.00014342537
-0.00022879749
0.00053110204
0.00019171699
-0.00027476492
0.00061215848
0.0002468617
-0.00032791814
0.00069191994
0.00031043015
-0.00039019161
0.00077156207
0.0003840859
-0.00046372803
0.00085267252
0.00046986023
-0.00055097068
0.00093719485
0.00057017106
-0.00065469339
0.0010275253
0.00068764602
-0.00077797649
0.0011266043
0.0008251425
-0.00092422149
0.0012377924
0.0009860411
-0.0010972292
0.0011740729
-0.0013011048
0.0013648242
1.5267485e-05
-3.5426611e-05
5.3630942e-05
-3.826015e-05
0.00011307687
-3.0302086e-05
0.00019323934
-1.8692602e-05
0.00029599606
-2.3909025e-06
0.00041099935
2.8422076e-05
0.00053161794
7.1098408e-05
0.00065283081
0.00012564884
0.00077354647
0.00018971449
0.00089493298
0.00026269938
0.0010180295
0.00034676374
0.0011450495
0.00044315105
0.0012801476
0.00055254791
0.0014298321
0.00067545797
0.0016028488
0.00081302445
0.00096674139
0.0018101803
9.6651725e-07
-3.6393128e-05
1.3089226e-06
-3.8602555e-05
1.3641521e-05
-4.2634685e-05
4.286218e-05
-4.791326e-05
9.4803915e-05
-5.4332638e-05
0.00017287021
-4.9644216e-05
0.00027972169
-3.5753076e-05
0.00041717486
-1.1804332e-05
0.00057468078
3.2208569e-05
0.00073803357
9.9346587e-05
0.00089753027
0.00018726704
0.0010549799
0.00028570143
0.001214676
0.0003928518
0.0013839944
0.00050613958
0.0015720764
0.00062494245
0.00074896338
0.0017898544
2.0025786e-06
-3.8395707e-05
4.1939596e-06
-4.0793936e-05
7.0836353e-06
-4.552436e-05
1.0562435e-05
-5.139206e-05
1.4244587e-05
-5.8014789e-05
2.9750076e-05
-6.5149705e-05
6.6375479e-05
-7.2378479e-05
0.00013433251
-7.9761367e-05
0.0002404496
-7.3908516e-05
0.00038407472
-4.4278536e-05
0.0005476872
2.3654563e-05
0.00069262364
0.000140765
0.00086100418
0.00022447125
0.001050482
0.00031666178
0.0012674196
0.00040800487
0.00049204561
0.0015243373
-1.5292582e-06
-3.6866448e-05
-6.5199803e-06
-3.5803214e-05
-1.4449386e-05
-3.7594954e-05
-2.5478669e-05
-4.0362777e-05
-3.9854024e-05
-4.3639434e-05
-5.7833319e-05
-4.7170411e-05
-7.952413e-05
-5.0687668e-05
-0.00010565339
-5.3632105e-05
-0.00012428609
-5.5275817e-05
-0.00011353373
-5.5030896e-05
-3.5265671e-05
-5.4613496e-05
0.00010732374
-1.8244069e-06
0.00025873166
7.3063329e-05
0.00043391818
0.00014147526
0.0006455166
0.00019640644
0.0002228463
0.00091471591
-3.8370094e-05
1.5036454e-06
-7.6036973e-05
1.8636657e-06
-0.00011582518
2.1932494e-06
-0.0001586858
2.4978432e-06
-0.00020509079
2.7655579e-06
-0.00025524113
2.9799336e-06
-0.00030905704
3.1282339e-06
-0.00036590494
3.215801e-06
-0.0004244692
3.288442e-06
-0.00048294812
3.4480288e-06
-0.00054137742
3.8157978e-06
-0.00054717489
3.9730619e-06
-0.00047959041
5.4788545e-06
-0.00034993794
1.1822784e-05
-0.0001871081
3.3576601e-05
6.573017e-05
-2.9991967e-05
-3.5977349e-05
3.7480995e-05
-7.150666e-05
3.7392977e-05
-0.0001089574
3.964399e-05
-0.00014917601
4.2716455e-05
-0.00019262068
4.6210225e-05
-0.00023955131
4.9910568e-05
-0.00029002989
5.3606814e-05
-0.0003436513
5.6837202e-05
-0.00039934542
5.8982563e-05
-0.00045565576
5.9758375e-05
-0.00051578744
6.3947478e-05
-0.00051636235
4.5479714e-06
-0.0004437781
-6.7105394e-05
-0.00029853368
-0.00013342164
-7.2036302e-05
-0.00019292078
-0.00025108246
0.00024477633
-2.1494311e-06
3.9630426e-05
-7.2774972e-06
4.2521043e-05
-1.4994817e-05
4.736131e-05
-2.5473641e-05
5.3195279e-05
-3.8974186e-05
5.971077e-05
-5.578367e-05
6.6720052e-05
-7.610145e-05
7.3924594e-05
-0.00010074493
8.1480686e-05
-0.00011894881
7.7186439e-05
-0.00010837406
4.9183625e-05
-2.577134e-05
-1.8655241e-05
0.00012068339
-0.00014190676
0.00027624305
-0.00022266505
0.00045990331
-0.0003170819
0.00068116209
-0.00041417956
-0.000509017
0.00093909662
2.4140087e-06
3.7216417e-05
5.0911242e-06
3.9843928e-05
8.5126967e-06
4.3939738e-05
1.2575874e-05
4.9132102e-05
1.6904619e-05
5.5382025e-05
3.2387668e-05
5.1237003e-05
6.8699243e-05
3.7613019e-05
0.0001362747
1.3905226e-05
0.00024256355
-2.9102406e-05
0.00038751998
-9.5772807e-05
0.00055350972
-0.00018464498
0.00069598945
-0.00028438649
0.00086632687
-0.00039300247
0.0010569205
-0.00050767551
0.0012707687
-0.00062802781
-0.00075275014
0.0015145019
1.4058269e-06
3.581059e-05
2.3361333e-06
3.8913621e-05
1.5014452e-05
3.1261419e-05
4.4377463e-05
1.9769091e-05
9.62038e-05
3.5556883e-06
0.00017397381
-2.653301e-05
0.00028046497
-6.8878137e-05
0.00041770154
-0.00012333135
0.00057644137
-0.00018784223
0.00074196623
-0.00026129767
0.00090326127
-0.00034594002
0.0010619345
-0.00044305971
0.0012222288
-0.00055329681
0.0013915501
-0.00067699674
0.0015788079
-0.0008152857
-0.00096989859
0.0017959564
1.5479368e-05
2.0331223e-05
5.4020412e-05
3.7257658e-07
0.00011362524
-2.8343411e-05
0.00019383073
-6.0436397e-05
0.00029654444
-9.9158019e-05
0.00041234869
-0.00014233726
0.00053421176
-0.0001907412
0.00065690672
-0.00024602631
0.00077886299
-0.0003097985
0.00090129716
-0.00038373185
0.0010252083
-0.00046985117
0.0011527114
-0.00057056281
0.0012878724
-0.00068845779
0.0014372075
-0.0008263318
0.0016094151
-0.00098749335
-0.0011746251
0.0018141417
3.1153863e-05
-1.082264e-05
0.00010210352
-7.0577077e-05
0.00018643021
-0.00011267011
0.00027618575
-0.00015019193
0.00036483438
-0.00018780665
0.00045102914
-0.00022853202
0.00053484587
-0.00027455794
0.00061662385
-0.00032780429
0.00069703824
-0.00039021289
0.00077723249
-0.0004639261
0.00085875499
-0.00055137367
0.00094349403
-0.00065530185
0.0010337931
-0.00077875687
0.0011325976
-0.00092513633
0.0012434383
-0.001098334
-0.0013035723
0.0013723855
2.3534816e-06
-2.2083769e-06
3.2676965e-06
3.523363e-06
2.8684657e-06
7.4461642e-07
-3.6239633e-06
-1.1278486e-05
-2.3612711e-05
-4.2435448e-05
-7.0019115e-05
-0.00010915735
-0.0001632311
-0.00023622668
-0.00033315167
-0.00046214253
2.3523333e-06
-2.2044389e-06
3.2627874e-06
3.5146449e-06
2.8540904e-06
7.2217762e-07
-3.6572789e-06
-1.1324901e-05
-2.3672169e-05
-4.2501023e-05
-7.0069695e-05
-0.00010914933
-0.00016310918
-0.00023603478
-0.0003334427
-0.00046348207
2.9896609e-06
-2.2222595e-06
5.9780155e-06
1.0822304e-05
1.7522678e-05
2.6726931e-05
3.9394102e-05
5.6721979e-05
8.0208043e-05
0.00011168675
0.00015333257
0.00020765083
0.00027747419
0.00036603304
0.00047715434
0.0006077708
2.9869486e-06
-2.2266876e-06
5.9697823e-06
1.0799408e-05
1.7474367e-05
2.6640546e-05
3.9253032e-05
5.650549e-05
7.9893383e-05
0.00011125426
0.00015277573
0.00020699366
0.00027679646
0.00036545473
0.00047699264
0.00061380232
0.0015693289
-0.0035615486
0.0019922197
0.0085178668
-0.0088181363
0.00030026947
0.0012458559
-0.0032315111
0.0019856552
0.0085178668
-0.002224514
0.00033155678
0.0018929572
-0.0082594088
0.0050069438
0.0032524649
-0.001121022
0.0044040011
-0.0032829792
0.007765082
0.0029361692
-0.010701251
0.0080786529
0.0020099367
-0.01008859
0.0012769417
-0.0017390842
-0.0019548103
0.0014913283
0.0034573488
0.0064881375
-0.0099454864
-0.0036104543
-0.0038617606
0.0074722148
-0.0076592568
0.0033987685
0.0042604883
-0.0016692562
0.0040244898
-0.0023552337
0.0036736901
-0.00024695964
-0.0034267305
0.00732827
-0.0075959246
0.00026765459
0.00047517158
0.0017318716
-0.0022070432
0.0011774774
-0.0017068055
0.0005293281
0.0062733176
-0.0022799827
-0.0039933348
-0.0011085
-0.0011160139
-0.0076989417
0.0040884874
-0.0094789668
0.0093903772
8.8589575e-05
0.00072708087
0.0085231528
-0.0092502336
3.5545972e-05
-0.0056645399
0.0056289939
0.0046763554
0.0012035799
-0.0058799353
-0.0040580285
-0.0060429982
0.010101027
0.0063795878
-0.0021088626
-0.0042707252
0.0014435847
0.0064343977
-0.0078779824
-0.0023068705
0.0055914103
-0.0032845398
0.0067614511
-0.0020850957
0.0020294459
-0.0014514303
-0.00057801556
-0.00017286936
0.0083667129
-0.0081938435
0.0064319098
9.9674453e-06
-0.0064418773
0.0010470016
-0.0061309473
0.0050839456
0.0088502842
-0.0074623891
-0.0013878951
0.0076258434
-0.0080914784
0.00046563497
-0.0048025057
0.0058495074
0.0056018817
-0.00326012
-0.0023417617
-0.0086441922
0.0017035479
0.0069406443
0.0025284518
-0.0037263287
0.0011978769
0.0099537914
-0.0043089853
-0.0056448061
0.007765082
-0.0023326749
0.0056352055
-0.0033025305
0.0080786529
-0.00087440736
0.0037412399
-0.0028668325
-0.001948372
0.0066611132
-0.0047127412
-0.0098024172
0.0041661809
0.0056362364
-0.007765082
0.011656318
-0.0038912357
-0.0080786529
0.011758129
-0.0036794758
0.0031909797
-0.00055439998
-0.0026365797
-0.0039145133
0.0017501729
0.0021643404
0.00144256
-0.0027051157
0.0012625558
0.0009777953
0.0011595898
-0.0021373851
-0.003161336
0.0057123689
-0.0025510329
0.00066192229
0.005532349
-0.0061942713
0.00097525154
-0.0019126916
0.00093744007
-0.0054922723
0.0034874354
0.0020048369
-0.010521033
0.0011468763
0.0093741569
0.0085786711
-0.0031083137
-0.0054703574
0.0078920197
0.00068665139
0.0055338926
0.004095823
-0.0096297156
0.005181148
0.0043594634
-0.0095406113
-0.002460098
0.0050413436
-0.0025812456
0.00071218098
-0.0040209252
0.0033087442
-0.0066455692
0.0068938679
-0.0002482987
0.00419333
-0.0078970358
0.0037037058
0.0046275884
0.0018179509
-0.0064455393
-0.0010340176
0.0061990103
-0.0051649927
-0.0091745994
0.0072262274
-0.0026327896
0.0066828451
-0.0040500555
0.0018512771
0.001822413
-0.00453703
0.0040259
0.00051113002
0.0048610548
0.0062302082
-0.011091263
0.0087380867
-0.0080903737
-0.00064771297
0.0005210332
-0.0029527414
0.0049727199
-0.0020199785
0.0066833082
-0.0030558543
-0.0036274539
0.0097895511
-0.0088487747
-0.0009407764
0.0077193003
-0.0068491041
-0.00087019613
0.0029124751
-0.0040143462
0.0011018711
-0.0022811925
0.00088559255
0.0013955999
0.0013589541
-0.0036658247
-0.012065133
0.0085443697
0.0035207635
0.0023197181
0.0050085519
0.0024830335
-0.0091179422
0.0066349087
-0.004496579
0.0076027311
-0.0031061521
-0.0009912678
-0.0060186981
0.0070099659
0.0029099354
-0.0021547132
-0.0007552222
0.00048455131
0.0082535354
0.0055143255
4.2405812e-05
-0.0055567313
-0.007715514
0.0030008539
0.0047146601
0.00053016251
0.0036685154
-0.0041986779
0.0031900592
0.0024118225
0.0044039361
0.0024294446
-0.0068333806
0.0045925289
-0.0017405935
-0.0028519354
-0.0046869967
-0.0053052873
0.0030856558
-0.0018397999
-0.0007746775
-0.0015519994
0.0023266769
-0.0028943769
0.0056619786
-0.0027676017
-0.0030201931
0.0078812479
-0.0057550663
0.00763443
-0.0018793637
-0.0061001104
-0.0016154036
-7.7624073e-05
0.0077034675
0.0082561552
-0.0077001937
-0.00055596147
-0.0050775594
-0.0025816974
-0.011222381
0.0074243851
0.003797996
-0.011854233
0.0086046952
0.0032495376
0.0057537358
-0.0025873473
-0.0031663886
0.0013781855
-0.0037108605
0.0020483945
-0.0052097305
4.7006828e-05
0.0042381941
-0.004285201
0.0031251314
-0.004159149
-0.0015986246
0.0041270764
0.0018877332
0.0043855844
0.0065748525
0.0032146986
0.0038765073
-0.0038295004
0.0029727062
0.0070723195
-0.010045026
0.0098908046
-0.0056150561
-0.0042757485
-0.0021962936
0.0048100825
-0.0026137889
-6.3146819e-05
0.0015057068
0.0020627798
-0.0010849845
0.00091239889
0.00088179006
-0.001794189
0.010918795
-0.011091664
0.00086033049
0.00045435324
-0.0013146837
0.0011365913
-0.00022187535
-0.0074957985
0.0080752729
-0.00057947438
-0.0020842746
0.0013833932
0.00070088141
0.0039266189
-0.0036760055
-0.00025061345
-0.0056295707
0.0051326811
0.00049688961
0.0019384223
-0.00096317072
-0.00041680685
0.0035722029
-0.0031553961
-0.0047613823
0.0085526307
-0.0037912484
0.0034615424
0.006492249
0.0076858843
-0.0034925543
0.0034266436
0.0023270923
-0.0035599054
0.002685498
0.0063884868
-0.0073797546
-0.0031003869
0.0023257094
0.0056495323
0.0026066229
0.0052606275
-0.010818295
0.0055576678
0.0030952179
0.0016917088
-0.001360152
-0.0031055005
0.0046748294
0.0078114777
-0.0078114777
-0.0022056073
-0.0013291689
0.0068434944
0.0008294915
-0.0037822329
-0.00040971931
0.0063658603
-0.005956141
-0.0040765378
0.0096104304
-0.0042564239
0.0094375718
0.0084336587
-0.0048704037
-0.003563255
0.0040505186
0.0030565595
-0.0052528531
0.0058796519
-0.0076358061
0.0017561542