/*--------------------------------*- C++ -*----------------------------------*\
| =========                 |                                                 |
| \\      /  F ield         | foam-extend: Open Source CFD                    |
|  \\    /   O peration     | Version:     4.1                                |
|   \\  /    A nd           | Web:         http://www.foam-extend.org         |
|    \\/     M anipulation  |                                                 |
\*---------------------------------------------------------------------------*/
FoamFile
{
    version     2.0;
    format      ascii;
    class       volVectorField;
    location    "1";
    object      U;
}
// * * * * * * * * * * * * * * * * * * * * * * * * * * * * * * * * * * * * * //

dimensions      [0 1 -1 0 0 0 0];

internalField   nonuniform List<vector> 
4242
(
(1.0908727 1.1177116 1.0584347e-18)
(1.1916864 0.98070759 3.6095025e-21)
(1.158686 0.97706022 -6.6847196e-19)
(1.160866 0.94741413 5.5328372e-19)
(1.1539437 0.92293237 7.3261662e-21)
(1.1479509 0.89374922 3.2633631e-21)
(1.1412366 0.86113989 0)
(1.1337897 0.82499386 1.8970687e-19)
(1.1256339 0.78523369 -3.0232688e-19)
(1.1168447 0.74190941 1.1617621e-19)
(1.1076108 0.69524305 -7.3911546e-20)
(1.0982238 0.64566594 6.0400888e-20)
(1.0891379 0.59379265 5.8621944e-21)
(1.0813747 0.54011792 -7.8371706e-21)
(1.0766443 0.48532633 -1.5239041e-20)
(1.0741203 0.43338061 0)
(1.2594974 1.0367775 0)
(1.3773879 0.85320056 -7.9316103e-21)
(1.3336874 0.86658775 7.8373561e-19)
(1.3310079 0.83937557 -6.4553101e-19)
(1.3189348 0.81898711 -1.1578581e-20)
(1.3078251 0.7936101 3.8212117e-19)
(1.2955353 0.76564428 -1.7976574e-20)
(1.2822925 0.73464726 -4.6583303e-19)
(1.2681244 0.70057035 3.6350067e-20)
(1.2530869 0.6634723 1.3711685e-19)
(1.2373097 0.62354029 0)
(1.2209972 0.58113039 -9.949654e-21)
(1.2044779 0.53676826 -1.0111876e-20)
(1.1884728 0.49089072 -5.467372e-20)
(1.1741058 0.44387221 7.0556681e-20)
(1.1603602 0.39804451 8.7553689e-21)
(1.429035 0.94917984 -2.1840518e-20)
(1.5711912 0.69988381 -2.4694498e-18)
(1.5143195 0.74296218 1.0061318e-18)
(1.508594 0.71552272 -6.9227595e-21)
(1.4913346 0.70023969 -6.1145945e-19)
(1.4747294 0.67941549 4.9696496e-19)
(1.4561768 0.65673744 -6.7452826e-21)
(1.4360708 0.63133539 1.0408099e-20)
(1.4144237 0.60322083 -4.6134666e-21)
(1.3913479 0.57242174 -1.1925845e-20)
(1.3670595 0.53908146 1.196809e-19)
(1.3418818 0.50349471 -8.61533e-20)
(1.3162571 0.46612861 -1.3158874e-19)
(1.2907938 0.42753399 1.0997983e-19)
(1.266112 0.38849943 -1.32344e-20)
(1.2426205 0.3499269 -3.5510036e-20)
(1.5795471 0.82763865 -3.9705761e-21)
(1.7410914 0.49950473 -3.1794562e-21)
(1.6727839 0.58091227 -6.0515877e-19)
(1.666059 0.54886034 5.0987438e-19)
(1.6444489 0.54051309 -6.5374462e-21)
(1.6233515 0.5252673 3.0929534e-19)
(1.5995273 0.50924158 -2.3146752e-19)
(1.573484 0.49101128 -3.6418312e-19)
(1.5451788 0.47072064 2.1083358e-20)
(1.5147517 0.4483463 4.386597e-19)
(1.4824819 0.42397282 -1.6541141e-19)
(1.4488086 0.39779848 0)
(1.4143361 0.37014861 9.1935292e-21)
(1.379755 0.34151346 -6.7223521e-20)
(1.3453822 0.31303444 3.2088356e-20)
(1.3112023 0.2847079 -6.19449e-20)
(1.6780143 0.67006461 3.9705762e-21)
(1.8511804 0.25628823 -8.5659885e-19)
(1.7756384 0.38314699 7.1089984e-19)
(1.7692637 0.34209032 -4.1159913e-21)
(1.7448935 0.34328911 1.0163254e-20)
(1.7213303 0.33411752 -2.8543521e-21)
(1.6944921 0.32585836 -2.8240376e-19)
(1.6650123 0.31609806 6.1855609e-21)
(1.632783 0.30522188 1.5982618e-19)
(1.5979418 0.29312659 -1.1888132e-19)
(1.5607783 0.27982536 9.5959675e-20)
(1.5217697 0.26538691 0)
(1.4815887 0.24993569 5.1745877e-20)
(1.4410238 0.23363152 -3.6109347e-20)
(1.4005364 0.21695195 1.0766548e-20)
(1.3604891 0.1977758 0)
(1.7144283 0.4834466 -5.6915451e-19)
(1.8862611 -0.0028282252 2.4037667e-19)
(1.8140668 0.16278694 3.7357049e-19)
(1.8066045 0.11488045 -2.9977138e-19)
(1.7819529 0.1260861 6.2995165e-22)
(1.757868 0.12331958 9.9213485e-20)
(1.7304371 0.12331674 7.6599577e-20)
(1.7002436 0.12263088 -3.2422239e-21)
(1.667164 0.12187538 -2.8964238e-21)
(1.6313152 0.12087464 -9.8276003e-20)
(1.5929667 0.11957407 9.8809334e-20)
(1.5525784 0.11790617 -3.539455e-21)
(1.51081 0.1158068 -9.1257512e-21)
(1.4684623 0.1131479 -1.9506263e-20)
(1.4260132 0.11051034 -1.2405611e-23)
(1.3843316 0.10400994 7.9256079e-21)
(1.6836338 0.28504593 -2.8395664e-19)
(1.8445343 -0.25215375 -2.232485e-19)
(1.7873526 -0.064492333 5.6420699e-19)
(1.7767125 -0.11092647 -3.0058995e-19)
(1.7544105 -0.092695853 1.2547749e-19)
(1.7315272 -0.088372576 1.1515613e-23)
(1.7057667 -0.080384266 1.4929754e-19)
(1.6773911 -0.072054544 -6.588084e-20)
(1.6463312 -0.062827057 -8.2125e-21)
(1.6126828 -0.052879513 2.9637653e-20)
(1.5766886 -0.042332563 -4.5815111e-20)
(1.5387633 -0.031380858 3.4712883e-20)
(1.4995026 -0.020264096 -9.2577629e-21)
(1.4596307 -0.0094212323 -3.7199823e-20)
(1.4195746 0.0018405294 1.3775546e-20)
(1.3800293 0.0077376811 1.6583239e-20)
(1.5826319 0.093707591 -6.3146661e-21)
(1.7291734 -0.46978509 8.744911e-19)
(1.6966294 -0.2809472 -7.199302e-19)
(1.6829169 -0.31710468 5.5766531e-19)
(1.6647012 -0.29556762 -4.6601898e-19)
(1.6448911 -0.28393879 0)
(1.6229314 -0.26869896 2.7845189e-19)
(1.5988 -0.25204066 -2.2084068e-19)
(1.5724822 -0.23364581 -4.5351838e-21)
(1.5440609 -0.21366925 0)
(1.5137416 -0.1923043 -1.7196266e-20)
(1.4818656 -0.16986999 8.1935231e-21)
(1.4489227 -0.14677217 -5.2860276e-20)
(1.4154899 -0.12376108 9.5986825e-20)
(1.3820006 -0.10015235 -6.4250885e-20)
(1.3487774 -0.081739269 -1.6433181e-20)
(1.4107815 -0.069753405 4.1138231e-21)
(1.5464358 -0.63404679 -3.2577453e-21)
(1.545736 -0.46759198 0)
(1.5324679 -0.48678249 1.1531855e-20)
(1.5193378 -0.46490175 5.8186008e-21)
(1.5046004 -0.4467712 3.2361608e-19)
(1.4884769 -0.42548921 -2.7302458e-19)
(1.4708981 -0.40194585 0)
(1.4518809 -0.37601151 1.3240931e-21)
(1.4314922 -0.34783051 -1.2943736e-20)
(1.4098765 -0.31765811 1.1141551e-20)
(1.3872642 -0.28590649 6.0283634e-21)
(1.363993 -0.2530865 1.1806448e-20)
(1.3404328 -0.22010982 6.8493043e-20)
(1.3170083 -0.1864875 -7.7453907e-20)
(1.2936472 -0.15718963 4.0552664e-20)
(1.166833 -0.18069024 0)
(1.3016764 -0.7194212 1.3108345e-18)
(1.3385779 -0.60279751 -2.126766e-18)
(1.3344747 -0.60361495 8.5741631e-19)
(1.328146 -0.58301641 -5.8157144e-21)
(1.3206101 -0.56053799 -1.6501009e-20)
(1.3123163 -0.53509291 4.1580401e-19)
(1.3033846 -0.50698567 -3.3368147e-19)
(1.293908 -0.47613982 -2.1891636e-19)
(1.2839386 -0.44268997 1.9807239e-19)
(1.2735294 -0.40692719 0)
(1.2627467 -0.36930897 -1.1330946e-19)
(1.2516932 -0.33038239 6.2586724e-20)
(1.2404167 -0.291027 0)
(1.2290914 -0.25090943 0)
(1.2173537 -0.21279159 0)
(0.86533487 -0.21911461 2.5196403e-18)
(1.0206131 -0.72138018 -1.0201898e-18)
(1.095306 -0.66894558 0)
(1.1130466 -0.66005657 -4.279037e-21)
(1.1186908 -0.64201504 -4.9336618e-19)
(1.1209901 -0.61845422 4.2312452e-19)
(1.1218976 -0.59125747 2.9943486e-19)
(1.1222829 -0.56118042 -6.6306482e-21)
(1.1226649 -0.52830243 -2.0758386e-19)
(1.1232736 -0.49279047 1.0333869e-20)
(1.1241646 -0.45499355 0)
(1.1252723 -0.41543735 -1.519056e-19)
(1.1264403 -0.37475046 2.7767939e-20)
(1.1273203 -0.33383867 8.7400146e-20)
(1.1275049 -0.29295358 0)
(1.1297443 -0.24716096 8.504895e-21)
(0.25889363 0.065122441 8.2805369e-21)
(0.48376774 -0.39615396 1.4337894e-18)
(0.6576578 -0.5000661 -5.8194614e-19)
(0.74911571 -0.54087389 -4.5219735e-19)
(0.7967735 -0.55314433 3.7038265e-19)
(0.82764976 -0.54915824 -2.9473207e-19)
(0.85228093 -0.53550285 2.4349197e-19)
(0.87460448 -0.51589932 1.7136495e-19)
(0.89645367 -0.49209455 -1.5214311e-19)
(0.91861086 -0.4649668 0)
(0.94114717 -0.43512413 0)
(0.96366342 -0.40313697 0)
(0.98549483 -0.36957222 8.7365615e-21)
(1.0058092 -0.33513803 0)
(1.023355 -0.30111977 4.7887843e-20)
(1.0416979 -0.26076601 -8.2789428e-20)
(0.69611549 -0.99138275 2.9224462e-19)
(0.86784873 -0.95591851 2.5378439e-22)
(0.88515003 -0.99888531 -1.6779208e-19)
(0.88484211 -0.97272879 1.3870537e-19)
(0.88427105 -0.94751128 2.0378262e-22)
(0.88388761 -0.91832689 3.0629343e-21)
(0.88391711 -0.88520428 0)
(0.88455142 -0.8479086 2.9385105e-20)
(0.88593457 -0.80625994 -3.6018624e-20)
(0.88824079 -0.76031459 1.4354533e-20)
(0.89161373 -0.7103779 -3.0107618e-21)
(0.8961346 -0.65700703 2.4591368e-21)
(0.90194584 -0.60092477 -6.6959261e-21)
(0.90941224 -0.54285202 2.7950437e-21)
(0.9181021 -0.48414301 2.6950339e-21)
(0.92438611 -0.4295804 0)
(0.55108201 -0.9494758 0)
(0.62674427 -0.8892132 7.097102e-22)
(0.62173585 -0.8779779 -9.1809449e-20)
(0.628712 -0.85827276 7.5510189e-20)
(0.63673093 -0.83647792 9.8262855e-22)
(0.64652198 -0.81173638 -6.8329339e-20)
(0.65815546 -0.78375206 -5.1519221e-21)
(0.67170738 -0.75229057 1.0376003e-19)
(0.68722321 -0.71720004 -2.3603725e-21)
(0.70469362 -0.67844105 -3.8107947e-20)
(0.7240254 -0.63612783 0)
(0.7450288 -0.59056014 5.1175918e-21)
(0.76748583 -0.54219352 2.8605817e-21)
(0.79124638 -0.49154276 3.2456881e-20)
(0.81585682 -0.43932206 -4.0597161e-20)
(0.83927268 -0.3874821 -6.7547547e-21)
(0.36262591 -0.81785752 -3.3026387e-21)
(0.41161141 -0.7799833 7.949596e-19)
(0.41596235 -0.76498504 -3.2990828e-19)
(0.42666419 -0.74674747 2.7781275e-21)
(0.43961111 -0.72657951 2.31213e-19)
(0.45500538 -0.7040049 -1.8671863e-19)
(0.47301142 -0.67870299 3.1001886e-21)
(0.49377607 -0.65043615 -5.0543277e-21)
(0.51739976 -0.61905514 6.796623e-22)
(0.5438988 -0.58452574 6.5477165e-21)
(0.5731648 -0.54696266 -6.8338661e-20)
(0.60496068 -0.50664796 4.9719563e-20)
(0.63902434 -0.46400191 8.8223086e-20)
(0.67517497 -0.41955361 -7.4337994e-20)
(0.71278337 -0.37416634 9.2231783e-21)
(0.74909323 -0.32966749 2.9915708e-20)
(0.20330013 -0.6351663 1.7029626e-21)
(0.23076125 -0.60977437 1.4043863e-21)
(0.24099715 -0.59449691 2.6498792e-19)
(0.25511346 -0.57865471 -2.2250327e-19)
(0.2723689 -0.56162888 3.1152737e-21)
(0.29284325 -0.54299123 -1.5019749e-19)
(0.31672385 -0.5224539 1.1246311e-19)
(0.34418064 -0.49982178 1.9417814e-19)
(0.37531328 -0.47498122 -3.5353876e-21)
(0.41009574 -0.44791038 -2.5355456e-19)
(0.44832484 -0.41869639 9.8497212e-20)
(0.48962959 -0.38753783 0)
(0.53359966 -0.35471804 -6.1975124e-21)
(0.57982101 -0.32061747 5.0381767e-20)
(0.62710405 -0.28593248 -2.3997278e-20)
(0.67183552 -0.25193241 5.2539261e-20)
(0.092403158 -0.42687443 -1.7129164e-21)
(0.10530546 -0.40189779 3.9875137e-19)
(0.118725 -0.38535851 -3.2914898e-19)
(0.13550436 -0.37085559 1.9100644e-21)
(0.15591865 -0.35677447 -4.8885179e-21)
(0.1801185 -0.34244743 1.4314598e-21)
(0.20833106 -0.32751936 1.5128894e-19)
(0.24076923 -0.3117851 1.577733e-21)
(0.27756438 -0.29513038 -8.9161363e-20)
(0.31870048 -0.27750958 7.2886371e-20)
(0.36396517 -0.25893641 -5.8758884e-20)
(0.41298563 -0.23946741 0)
(0.46538023 -0.21915948 -3.6832558e-20)
(0.5206591 -0.19805255 2.5807042e-20)
(0.57687204 -0.1763819 -8.3888414e-21)
(0.62827145 -0.15517156 0)
(1.4302713 -0.94978266 0)
(1.5724431 -0.70044291 1.2265453e-18)
(1.5156968 -0.74351496 -1.989316e-18)
(1.510077 -0.71616091 8.1492872e-19)
(1.4930009 -0.70093825 5.5072115e-21)
(1.4765798 -0.6801966 1.7293456e-21)
(1.458194 -0.65758831 3.6889438e-19)
(1.4381918 -0.63223032 -3.0679582e-19)
(1.4165334 -0.60411082 -2.1385126e-19)
(1.3932788 -0.57323634 1.5579062e-19)
(1.3686133 -0.5397346 0)
(1.3428854 -0.50390922 -7.3762992e-20)
(1.3166548 -0.46628445 5.5047631e-20)
(1.2907661 -0.4274819 0)
(1.266176 -0.38818916 0)
(1.2433232 -0.34927464 0)
(0.035825892 -0.25267636 2.5544782e-19)
(0.044241309 -0.21770992 -1.0508175e-19)
(0.061926281 -0.19669405 -1.7205001e-19)
(0.083121038 -0.18053329 1.4087832e-19)
(0.10759429 -0.16676791 1.4336369e-21)
(0.13547982 -0.15438418 -4.8419195e-20)
(0.16696727 -0.14286346 -3.9986583e-20)
(0.20222211 -0.1318994 4.7437231e-22)
(0.24133932 -0.12128755 5.2001614e-22)
(0.28429976 -0.11087478 5.7373538e-20)
(0.3309294 -0.10053524 -6.0029379e-20)
(0.38087889 -0.090173098 1.0354307e-21)
(0.43363293 -0.079668606 5.2837577e-21)
(0.48848718 -0.068850571 1.3506255e-20)
(0.54433808 -0.057506151 9.2898805e-24)
(0.59921303 -0.045816979 -6.5347575e-21)
(0.036218287 0.25107745 1.2697651e-19)
(0.044761214 0.21542247 1.0483709e-19)
(0.062680807 0.19458189 -2.5858651e-19)
(0.084171702 0.17877701 1.4108278e-19)
(0.10896293 0.165426 -5.953131e-20)
(0.13717255 0.15346885 -5.7165042e-24)
(0.16897378 0.14235884 -7.7712922e-20)
(0.20451177 0.13176713 3.3105523e-20)
(0.24385709 0.12146982 3.5027087e-21)
(0.28696442 0.11129856 -1.8411652e-20)
(0.33363762 0.10111963 2.6871518e-20)
(0.38351771 0.090840058 -2.2586727e-20)
(0.43608846 0.08035626 5.2809002e-21)
(0.49061247 0.069534084 2.6118499e-20)
(0.5458375 0.058258647 -9.9391709e-21)
(0.59954197 0.046950569 -1.32421e-20)
(0.092795327 0.42790933 2.6843032e-21)
(0.10569175 0.40316789 -4.0197146e-19)
(0.11929115 0.38684243 3.2946136e-19)
(0.13626948 0.37246751 -2.6771541e-19)
(0.15687552 0.35843281 2.2303807e-19)
(0.18125127 0.34407542 0)
(0.20961313 0.32904398 -1.4668982e-19)
(0.24216119 0.3131359 1.1624653e-19)
(0.27901124 0.29623849 2.3774944e-21)
(0.32012835 0.27830628 0)
(0.36528069 0.25935082 1.0313842e-20)
(0.41408306 0.23942242 -5.1208e-21)
(0.46614384 0.21856028 3.6014442e-20)
(0.52090569 0.19674732 -6.7977662e-20)
(0.57621973 0.17408169 4.6119355e-20)
(0.6262864 0.15147254 1.2684834e-20)
(0.20377293 0.63725013 -1.7021484e-21)
(0.23131213 0.61204811 1.4037184e-21)
(0.24159609 0.59688205 0)
(0.2556889 0.58105135 -4.6818348e-21)
(0.27286706 0.56394757 -2.2980231e-21)
(0.29320937 0.54515225 -1.4984828e-19)
(0.31689645 0.52438397 1.2666825e-19)
(0.34408917 0.50145254 0)
(0.37487546 0.47624919 -1.2464905e-21)
(0.40921087 0.44875879 6.5494235e-21)
(0.44686473 0.41907919 -6.6198398e-21)
(0.48745998 0.38741682 -2.9669878e-21)
(0.53069858 0.35402061 -7.7389992e-21)
(0.57641943 0.3191269 -4.6625148e-20)
(0.62324214 0.2832827 5.3545661e-20)
(0.66561784 0.2483945 -2.9236899e-20)
(0.36273451 0.81924488 0)
(0.41199868 0.78137046 -3.9955284e-19)
(0.41627237 0.76642794 6.6083935e-19)
(0.42682571 0.7481495 -2.7086397e-19)
(0.43955172 0.72786038 2.2876144e-21)
(0.45464962 0.7050915 5.7725573e-21)
(0.47227993 0.67952614 -1.6189676e-19)
(0.49258706 0.65093084 1.2954702e-19)
(0.51567332 0.61916369 9.74639e-20)
(0.54155886 0.58420723 -8.8714097e-20)
(0.57013684 0.54621194 0)
(0.60121382 0.50550436 6.1362622e-20)
(0.63479072 0.46248847 -3.4493901e-20)
(0.67128373 0.41759443 0)
(0.71000727 0.37208029 0)
(0.74469779 0.33008157 0)
(0.5506484 0.94979297 -2.0934683e-19)
(0.62671772 0.88937727 8.9943244e-20)
(0.62156959 0.87817709 0)
(0.62839922 0.85838066 -2.0286548e-22)
(0.63620123 0.83642757 7.5730281e-20)
(0.64571177 0.81146558 -6.388382e-20)
(0.65700835 0.78320465 -6.0814008e-20)
(0.67018194 0.75142009 -4.489686e-21)
(0.68530766 0.71597691 4.860313e-20)
(0.7024258 0.67686634 -3.9160969e-21)
(0.72151887 0.63425484 0)
(0.74253286 0.58850643 5.6136872e-20)
(0.76551938 0.54012295 -7.7736263e-21)
(0.79065728 0.48974432 -3.575582e-20)
(0.8173875 0.43864817 0)
(0.84355985 0.38902537 -3.1317459e-21)
(0.69473401 0.99061343 1.0656626e-20)
(0.86727442 0.95519719 4.5226302e-19)
(0.88455623 0.99845965 -1.8021208e-19)
(0.88413017 0.97217607 -1.25238e-19)
(0.88339653 0.94682833 1.0345206e-19)
(0.88280728 0.91747055 -6.5660954e-20)
(0.88260071 0.88414377 4.9411114e-20)
(0.88299169 0.8466327 2.9341144e-20)
(0.88416222 0.80478601 -2.8693259e-20)
(0.88634329 0.75870185 0)
(0.88975536 0.70874655 0)
(0.8945777 0.65555174 0)
(0.90107022 0.59991133 3.4341684e-21)
(0.90965798 0.54262185 0)
(0.9196855 0.48505253 -8.1176031e-21)
(0.92652625 0.4314296 1.8118095e-20)
(0.25724432 -0.066867282 9.0024755e-19)
(0.48212775 0.39427967 3.3545346e-21)
(0.65619648 0.49854134 -5.6691664e-19)
(0.74812034 0.53955342 4.6796285e-19)
(0.7962153 0.55202501 6.930347e-21)
(0.82748869 0.54823116 2.4368957e-21)
(0.85251016 0.53475386 0)
(0.87521738 0.51531426 1.7767428e-19)
(0.89742063 0.4916534 -2.8930387e-19)
(0.91986426 0.46463603 1.1323257e-19)
(0.94256996 0.43485551 -8.0698984e-20)
(0.96508595 0.40287797 6.5951952e-20)
(0.98671128 0.36927752 5.1933284e-21)
(1.0065541 0.33489111 -1.0201516e-20)
(1.0237344 0.30041095 -2.4787888e-20)
(1.0440365 0.25521786 0)
(0.86522153 0.21858596 0)
(1.0206552 0.72107439 -7.8644332e-21)
(1.0955264 0.66890966 7.9088052e-19)
(1.113486 0.65998962 -6.4984805e-19)
(1.1193257 0.64198608 -1.1419013e-20)
(1.1218349 0.61847034 3.9364664e-19)
(1.1229646 0.59131732 -1.4799078e-20)
(1.123563 0.5612732 -4.8922831e-19)
(1.1241171 0.52840274 3.5118168e-20)
(1.1248178 0.49285507 1.4781008e-19)
(1.1256827 0.45496429 0)
(1.1266268 0.41524989 -1.1406253e-20)
(1.1275241 0.37432968 -1.2299228e-20)
(1.1280896 0.33315107 -6.9681948e-20)
(1.1282619 0.29141946 9.0909218e-20)
(1.1281138 0.24964152 1.143311e-20)
(1.1674312 0.18055526 -2.4558128e-20)
(1.3023201 0.71953404 -2.6462583e-18)
(1.339355 0.60306131 1.0770169e-18)
(1.3353945 0.60384071 -7.3189208e-21)
(1.3292207 0.58329057 -6.6092126e-19)
(1.3218649 0.56085441 5.3706631e-19)
(1.3137577 0.53544943 -7.1957251e-21)
(1.3049893 0.50736688 1.1154213e-20)
(1.2956149 0.47651755 -5.0921285e-21)
(1.2856449 0.4430234 -1.2940393e-20)
(1.2751002 0.40717037 1.3534165e-19)
(1.2640458 0.36942542 -9.7288927e-20)
(1.2526439 0.33035711 -1.5337982e-19)
(1.2410382 0.2909686 1.2818807e-19)
(1.2296578 0.25061227 -1.6605358e-20)
(1.2174465 0.21505272 -4.5819748e-20)
(1.4118517 0.069756738 -4.1198845e-21)
(1.5475239 0.6343504 -3.2624937e-21)
(1.5469235 0.46792587 -6.3047554e-19)
(1.5337603 0.4871113 5.3080383e-19)
(1.520779 0.46527632 -6.7287832e-21)
(1.5062085 0.4471817 3.24021e-19)
(1.490246 0.42593529 -2.423157e-19)
(1.4727873 0.40241198 -3.8426092e-19)
(1.453807 0.37647383 2.0536785e-20)
(1.4333295 0.34825691 4.6620185e-19)
(1.4114725 0.31801595 -1.7623378e-19)
(1.3884827 0.28617371 0)
(1.364783 0.25326404 1.0288097e-20)
(1.3408761 0.22029516 -7.4877401e-20)
(1.3174009 0.18637211 3.582931e-20)
(1.2941046 0.1585978 -7.0921873e-20)
(1.5839281 -0.09373292 4.1036016e-21)
(1.7304851 0.47004962 -8.6933894e-19)
(1.698032 0.28119537 7.2105204e-19)
(1.6844183 0.31736958 -4.2274044e-21)
(1.6663565 0.29586975 1.0381251e-20)
(1.6467086 0.28426936 -2.8819533e-21)
(1.6248955 0.26906055 -2.8788908e-19)
(1.600855 0.25242181 5.7373467e-21)
(1.5745266 0.23403237 1.6306483e-19)
(1.5459496 0.21404332 -1.2214171e-19)
(1.515308 0.19265067 9.8604197e-20)
(1.4829738 0.17018384 0)
(1.4495435 0.14707592 5.3870998e-20)
(1.4157537 0.12413627 -3.7682327e-20)
(1.382199 0.10031021 1.1672929e-20)
(1.3492351 0.0834063 0)
(1.6850148 -0.28516434 -5.7328968e-19)
(1.8459365 0.25228164 2.4155664e-19)
(1.7888508 0.064596799 3.7527924e-19)
(1.7783127 0.11104183 -3.0109087e-19)
(1.7561731 0.092837556 5.5669622e-22)
(1.7334527 0.088527922 9.9660767e-20)
(1.7078331 0.080560213 7.702985e-20)
(1.6795317 0.072245926 -3.2165532e-21)
(1.648431 0.063031954 -2.873841e-21)
(1.6145827 0.053096158 -9.8996081e-20)
(1.5782125 0.042562789 9.963955e-20)
(1.5397772 0.031633374 -3.512701e-21)
(1.4999967 0.020564733 -9.2690051e-21)
(1.4597697 0.0097807245 -1.9765429e-20)
(1.4196403 -0.0016824027 -1.2395315e-23)
(1.3804475 -0.0062488625 8.0932446e-21)
(1.7158231 -0.48367991 -2.8288775e-19)
(1.8876824 0.0027875701 -2.2295853e-19)
(1.8155936 -0.16284402 5.6360887e-19)
(1.8082376 -0.11494986 -3.0030244e-19)
(1.7837573 -0.12614378 1.2536258e-19)
(1.7598391 -0.12338502 1.1564801e-23)
(1.7325495 -0.12337832 1.4898755e-19)
(1.7024239 -0.12268593 -6.5786033e-20)
(1.6692892 -0.12191227 -8.1871498e-21)
(1.6332178 -0.12087767 2.9457169e-20)
(1.5944654 -0.11952327 -4.5670908e-20)
(1.5535419 -0.11777895 3.4442069e-20)
(1.5112422 -0.11558583 -9.1392298e-21)
(1.4685446 -0.11289147 -3.679364e-20)
(1.4260468 -0.11034855 1.3607374e-20)
(1.384796 -0.10274268 1.6127893e-20)
(1.6793868 -0.67042027 -6.1673601e-21)
(1.8525836 -0.25649953 8.6459929e-19)
(1.7771542 -0.38337016 -7.1225248e-19)
(1.7708899 -0.34235135 5.5102855e-19)
(1.7466975 -0.34355998 -4.6066929e-19)
(1.7233057 -0.33441989 0)
(1.6966123 -0.32617846 2.739907e-19)
(1.6672016 -0.31642426 -2.1741778e-19)
(1.6349156 -0.30552921 -4.2569364e-21)
(1.5998471 -0.29338166 0)
(1.5622729 -0.27998916 -1.6633486e-20)
(1.5227231 -0.26542417 7.7972456e-21)
(1.4820075 -0.24984609 -5.053466e-20)
(1.4410936 -0.23350744 9.2097245e-20)
(1.400611 -0.21677451 -6.1033569e-20)
(1.3609838 -0.19690777 -1.5446476e-20)
(1.5808697 -0.82812165 3.9784381e-21)
(1.7424455 -0.49988691 -3.1858194e-21)
(1.6742548 -0.58130249 0)
(1.6676409 -0.54931294 -2.8247703e-21)
(1.6462122 -0.54100098 -5.5134207e-21)
(1.6252915 -0.52581165 2.9260535e-19)
(1.6016199 -0.50982819 -2.4811804e-19)
(1.5756566 -0.49162002 0)
(1.547308 -0.47131367 1.7499792e-20)
(1.5166672 -0.44887174 1.1976042e-20)
(1.4839961 -0.42437004 1.0659052e-20)
(1.44978 -0.39801688 -2.0679151e-20)
(1.4147538 -0.37019243 1.1145167e-20)
(1.3798069 -0.34146873 6.2332547e-20)
(1.3454929 -0.3128451 -6.9443334e-20)
(1.3117769 -0.28406616 3.6407037e-20)
(1.2605765 -1.0374602 2.4831898e-18)
(1.3784465 -0.85390863 -1.0176734e-18)
(1.3348828 -0.86726811 0)
(1.3322994 -0.84015565 -4.5660283e-21)
(1.3204108 -0.81984656 -4.8389235e-19)
(1.3094958 -0.79457471 4.1567234e-19)
(1.2973964 -0.76670799 2.871495e-19)
(1.2842979 -0.7357867 -9.4467452e-21)
(1.2701756 -0.70173451 -1.9616234e-19)
(1.2550237 -0.6645818 9.3890349e-21)
(1.2389182 -0.62448944 0)
(1.2220518 -0.5818069 -1.2979927e-19)
(1.204845 -0.53709024 2.7345192e-20)
(1.1882931 -0.49081493 7.1775864e-20)
(1.1739428 -0.44329191 0)
(1.1607054 -0.39697478 5.6590583e-21)
(1.0917607 -1.1182992 1.0918863e-20)
(1.1924428 -0.98144204 1.7028348e-18)
(1.1596027 -0.97772726 -6.9338058e-19)
(1.1618683 -0.94818611 -5.2711035e-19)
(1.155134 -0.92379513 4.3251507e-19)
(1.1493528 -0.89473484 -3.3181604e-19)
(1.1428629 -0.86225578 2.7316777e-19)
(1.1356168 -0.82623101 1.8326375e-19)
(1.1275878 -0.78655414 -1.6223899e-19)
(1.1187828 -0.74324291 0)
(1.1093129 -0.69647967 0)
(1.0994138 -0.64666184 0)
(1.089577 -0.59440025 5.5819996e-21)
(1.0810642 -0.5402589 0)
(1.0760222 -0.48510084 3.0381669e-20)
(1.0739811 -0.43265615 -4.8894204e-20)
(-0.27454004 0.42327077 1.1582803e-19)
(0.12710296 -0.084158511 4.2224508e-22)
(0.30956603 -0.23352361 -6.833413e-20)
(0.43728276 -0.31238184 5.5993929e-20)
(0.53365417 -0.35324555 8.6466408e-22)
(0.60822392 -0.37082231 2.2206771e-21)
(0.66725398 -0.37446677 0)
(0.71549308 -0.36995576 3.3221343e-20)
(0.7562576 -0.36078318 -5.5633012e-20)
(0.7917274 -0.34905571 2.5469835e-20)
(0.82335363 -0.33594982 -2.5823047e-20)
(0.85205956 -0.32192215 2.1135089e-20)
(0.8783657 -0.30687651 -2.8247376e-21)
(0.90269257 -0.29029653 -3.6019799e-21)
(0.92460608 -0.27239036 -1.4078049e-20)
(0.94815758 -0.25019444 0)
(-0.12191241 0.30725389 0)
(-0.16067163 0.24827403 -9.3950361e-22)
(-0.028245769 0.11077358 1.0180089e-19)
(0.11355545 -0.024524091 -8.3219007e-20)
(0.25420363 -0.14701095 -1.4120639e-21)
(0.37219443 -0.22870621 5.3577902e-20)
(0.47205143 -0.27861308 4.5766582e-22)
(0.55679486 -0.30705373 -7.2790739e-20)
(0.6276703 -0.3211162 2.5597341e-21)
(0.68639234 -0.32536459 2.5252358e-20)
(0.734922 -0.32285669 0)
(0.77476233 -0.3155222 -2.0131488e-21)
(0.80722579 -0.30440798 -3.9019204e-21)
(0.83399043 -0.28982584 -1.827265e-20)
(0.85660239 -0.27206 2.4956882e-20)
(0.87984859 -0.24926693 2.2048094e-21)
(-0.11407755 0.3585833 -1.1711842e-21)
(-0.15650999 0.29363536 -2.7657675e-19)
(-0.13259954 0.27528332 1.1370776e-19)
(-0.11446072 0.26465864 -7.4620128e-22)
(-0.096032006 0.25721272 -7.4522158e-20)
(-0.012249606 0.17051941 6.028792e-20)
(0.098276726 0.057345593 -8.0681425e-22)
(0.22158946 -0.0571798 1.3064752e-21)
(0.34037843 -0.14813932 -8.6780214e-22)
(0.445369 -0.20979532 -1.7131916e-21)
(0.53529245 -0.25019695 1.854406e-20)
(0.60849305 -0.27460261 -1.2838042e-20)
(0.66557997 -0.28484707 -2.2070521e-20)
(0.70956356 -0.28280108 1.816199e-20)
(0.74387066 -0.2706573 -3.2973698e-21)
(0.77851981 -0.24706166 -7.0832726e-21)
(-0.092024614 0.38501778 -3.0658674e-22)
(-0.11163928 0.33473903 -2.5217734e-22)
(-0.10135249 0.31274088 -6.0288621e-20)
(-0.092667051 0.29523588 5.079826e-20)
(-0.085336092 0.27895662 -5.6688669e-22)
(-0.07562294 0.26362807 3.4248631e-20)
(-0.058500171 0.25057508 -2.5596497e-20)
(-0.035900456 0.23735303 -4.6699992e-20)
(0.027736089 0.17496719 -1.2861726e-21)
(0.12960965 0.068953001 6.4372035e-20)
(0.24776782 -0.047318152 -2.52909e-20)
(0.33853292 -0.14040635 0)
(0.41349781 -0.20522716 1.426863e-21)
(0.47935049 -0.23888446 -7.0588955e-21)
(0.537264 -0.24658486 3.6900635e-21)
(0.59764377 -0.23118734 -1.4440286e-21)
(-0.062754037 0.36125911 3.0658675e-22)
(-0.062598458 0.31489471 -5.512054e-20)
(-0.061973388 0.29010342 4.5715382e-20)
(-0.062887009 0.27069185 -3.4239616e-22)
(-0.065780994 0.25273134 7.3180349e-22)
(-0.070321479 0.23482799 -1.4297295e-22)
(-0.076306333 0.21632408 -2.423824e-20)
(-0.083480758 0.19618552 -1.5053612e-21)
(-0.091301121 0.17180254 1.4983042e-20)
(-0.10007874 0.1363867 -1.4285877e-20)
(-0.090551364 0.077644867 1.1548357e-20)
(0.082854422 -0.048851147 0)
(0.12600362 -0.13229386 4.9095041e-21)
(0.18071185 -0.1773772 -3.4650433e-21)
(0.24325685 -0.19422779 4.6375564e-22)
(0.32736441 -0.18673231 0)
(-0.043264704 0.25116703 -8.7802656e-21)
(-0.047982423 0.18354848 3.4403463e-21)
(-0.064013729 0.14311045 6.4224806e-21)
(-0.082533664 0.11151587 -5.7150234e-21)
(-0.10273925 0.084025719 -4.43022e-22)
(-0.12421985 0.058681755 2.3811415e-21)
(-0.14645279 0.034445895 2.5986241e-21)
(-0.16888255 0.010633013 2.7208087e-22)
(-0.19149539 -0.013343559 2.5749081e-22)
(-0.21479559 -0.037972069 -5.3988015e-21)
(-0.23584721 -0.063395494 6.1630721e-21)
(-0.23942569 -0.088170536 -3.4992483e-22)
(-0.20294944 -0.11263589 -1.2431597e-21)
(-0.14946454 -0.13449716 -8.0424779e-22)
(-0.070495787 -0.14654101 3.5577626e-25)
(0.045268935 -0.13896372 -9.6996741e-22)
(-0.042585443 -0.26796236 -5.084465e-21)
(-0.046910145 -0.20741644 -4.550411e-21)
(-0.062168803 -0.16831198 1.1049241e-20)
(-0.079475882 -0.13621783 -6.4944749e-21)
(-0.098236701 -0.10726398 2.9286033e-21)
(-0.11811541 -0.079895396 3.0368877e-25)
(-0.13867387 -0.05337053 5.1861685e-21)
(-0.15951337 -0.027290777 -1.9928993e-21)
(-0.18092976 -0.0013682595 -1.4123811e-22)
(-0.20381542 0.024603858 2.0708655e-21)
(-0.22503117 0.050578534 -2.4646815e-21)
(-0.22738887 0.074889627 2.1327247e-21)
(-0.18859572 0.097721086 -1.2046765e-21)
(-0.13458228 0.11424362 -8.7263831e-22)
(-0.065167257 0.11719559 5.1055863e-23)
(0.083757025 0.10537595 -1.4156312e-21)
(-0.063656367 -0.37343212 -3.9381511e-22)
(-0.065748607 -0.32885795 5.6025704e-20)
(-0.065019431 -0.30255729 -4.6047605e-20)
(-0.065267731 -0.28099409 3.8316129e-20)
(-0.067323354 -0.26093721 -3.1963543e-20)
(-0.070952437 -0.24134892 0)
(-0.076011909 -0.22183141 2.3663112e-20)
(-0.082195655 -0.20162465 -1.8657457e-20)
(-0.089178505 -0.17832199 -7.2830149e-22)
(-0.09897901 -0.14513303 0)
(-0.09834004 -0.089557747 -2.1054619e-21)
(0.10350258 0.05163689 1.1470038e-21)
(0.13054484 0.13055945 -5.3713794e-21)
(0.18735699 0.17794317 6.1617558e-21)
(0.25505006 0.20029984 -3.1808235e-21)
(0.35166795 0.19577193 6.4701885e-22)
(-0.093291384 -0.39482927 3.0807807e-22)
(-0.1151442 -0.3457331 -2.5309004e-22)
(-0.10432062 -0.32255825 0)
(-0.094608357 -0.3033786 1.0843527e-21)
(-0.086315623 -0.28539171 6.0614302e-22)
(-0.075899642 -0.26860106 3.4198743e-20)
(-0.058504229 -0.25458813 -2.8760181e-20)
(-0.03533178 -0.24125101 0)
(0.02582662 -0.18308675 2.967541e-23)
(0.12680005 -0.078605852 -1.7441396e-21)
(0.24764459 0.039889859 1.5120177e-21)
(0.33950253 0.13612854 9.6842139e-22)
(0.41511571 0.20388005 1.419366e-21)
(0.48185225 0.23939983 6.1751052e-21)
(0.539879 0.24918983 -5.8116722e-21)
(0.60530187 0.23408603 1.493102e-21)
(-0.11515586 -0.36491053 0)
(-0.15960098 -0.30095183 1.3629324e-19)
(-0.13519789 -0.28135662 -2.2308172e-19)
(-0.11586893 -0.26919294 9.054931e-20)
(-0.09627584 -0.26054585 -6.0408789e-22)
(-0.015850478 -0.17837008 -1.8730535e-21)
(0.093974177 -0.066501702 4.9199987e-20)
(0.21741976 0.048432511 -3.9289283e-20)
(0.33805048 0.14195662 -2.6794445e-20)
(0.44477215 0.20559907 2.4151627e-20)
(0.53633527 0.24751805 0)
(0.61085474 0.27322243 -1.6271119e-20)
(0.66872992 0.28446606 8.1967483e-21)
(0.71306717 0.28317555 0)
(0.74712605 0.27175695 0)
(0.78382689 0.24727744 0)
(-0.12212359 -0.31001524 2.9944162e-19)
(-0.16249393 -0.25153716 -1.232394e-19)
(-0.032552107 -0.11707048 0)
(0.10873989 0.017131843 -5.1033822e-22)
(0.24937942 0.13952115 -6.3389991e-20)
(0.36907115 0.22310675 5.3837593e-20)
(0.47033949 0.27431838 4.1633613e-20)
(0.55640536 0.30362956 2.1679622e-21)
(0.62846232 0.31832958 -3.1090265e-20)
(0.68814565 0.32313615 1.5176876e-21)
(0.73742491 0.32117495 0)
(0.77780297 0.314384 -3.5182617e-20)
(0.81055422 0.30378713 3.3060406e-21)
(0.8373651 0.28963045 2.2201621e-20)
(0.85925704 0.27259372 0)
(0.8831571 0.24932885 3.5605567e-21)
(-0.27855114 -0.42807007 3.1723477e-21)
(0.12317751 0.079804607 1.7047792e-19)
(0.30674181 0.23021518 -6.7533823e-20)
(0.43518946 0.30939022 -4.9535247e-20)
(0.5322557 0.35040743 4.0317474e-20)
(0.60751362 0.36811422 -3.7609704e-20)
(0.66720621 0.37193554 2.8105986e-20)
(0.71607568 0.36766008 3.0807601e-20)
(0.75743784 0.35878021 -3.0821721e-20)
(0.79344418 0.3473864 0)
(0.8254992 0.33463276 0)
(0.85447358 0.32095811 0)
(0.88085467 0.30624811 7.1943053e-21)
(0.90506645 0.28998023 0)
(0.92635382 0.272843 2.5101479e-20)
(0.95459714 0.24732704 -4.4755861e-20)
(0.8606767 0.96530151 0)
(0.88591653 1.0053955 0)
(0.89414071 0.97600348 0)
(0.89682929 0.9522088 6.5651827e-21)
(0.90032547 0.92425535 -4.1243635e-20)
(0.90446481 0.8921436 4.311185e-20)
(0.90938116 0.85584727 0)
(0.91512734 0.81512031 -5.9560385e-21)
(0.92173086 0.76992893 0)
(0.92917885 0.72056865 0)
(0.93739768 0.66763702 0)
(0.94635994 0.61197635 7.4545383e-21)
(0.95637717 0.55440895 0)
(0.96760335 0.49630015 1.2096552e-20)
(0.97803198 0.44326111 0)
(0.86130461 -0.96599186 0)
(0.88653081 -1.0058166 0)
(0.89485453 -0.97656566 0)
(0.89771146 -0.95289714 6.5847443e-21)
(0.90141384 -0.92511578 -3.8737064e-20)
(0.9057912 -0.8932043 4.7760641e-20)
(0.91094925 -0.85711991 0)