/*--------------------------------*- C++ -*----------------------------------*\
| =========                 |                                                 |
| \\      /  F ield         | foam-extend: Open Source CFD                    |
|  \\    /   O peration     | Version:     4.1                                |
|   \\  /    A nd           | Web:         http://www.foam-extend.org         |
|    \\/     M anipulation  |                                                 |
\*---------------------------------------------------------------------------*/
FoamFile
{
    version     2.0;
    format      ascii;
    class       volScalarField;
    location    "1.3";
    object      p;
}
// * * * * * * * * * * * * * * * * * * * * * * * * * * * * * * * * * * * * * //

dimensions      [0 2 -2 0 0 0 0];

internalField   nonuniform List<scalar> 
16126
(
-4.1411191e-05
0.00041064424
0.00039276488
0.00076530169
0.00081369269
0.0011063268
0.001197797
0.0014269939
0.0015354425
0.0017143762
0.0018195604
0.0019551055
0.002042254
0.0021361539
0.0021941848
0.0022447716
0.0022647631
0.0022682751
0.0022424829
0.0021939488
0.0021152854
0.0020091258
0.0018709651
0.0017014419
0.0014976235
0.0012591983
0.00098410382
0.00067173583
0.00032090772
-6.8923158e-05
-0.00049815432
-0.00096686979
-0.0014748779
-0.0020215896
-0.0026061966
-0.00322871
-0.0038880851
-0.0045802662
-0.0053053005
-0.0060593143
-0.006837603
-0.0076393848
-0.0084605279
-0.0092961424
-0.010141291
-0.010990488
-0.011837845
-0.01267699
-0.013501143
-0.01430309
-0.015075243
-0.015809647
-0.016498039
-0.017131883
-0.017702438
-0.018200822
-0.018618105
-0.018945395
-0.019173963
-0.019295361
-0.01930156
-0.019185105
-0.018939253
-0.01855814
-0.018036907
-0.017371846
-0.016560491
-0.015601711
-0.014495732
-0.013244164
-0.011849922
-0.010317181
-0.0086511931
-0.0068581781
-0.0049450514
-0.0029192762
-0.00078851314
0.0014395164
0.0037574397
0.0061583077
0.0086360131
0.011185242
0.013801883
0.016482878
0.019226635
0.022032433
0.024899906
0.02782764
0.030812112
0.033847125
0.036923941
0.040031907
0.04315905
0.046293409
0.04942291
0.052537316
0.055626289
0.058682968
0.061698812
0.064671252
0.06759225
0.070465148
0.07328003
0.076050797
0.078762035
0.08145061
0.084089787
0.086769604
0.089440057
0.09231267
0.095279893
0.098819892
0.10265268
0.10782313
0.11350465
0.12197441
0.13073288
0.14507645
0.15751369
0.18229998
0.19587797
0.24620128
0.24236409
0.4113928
-4.633066e-05
0.00041401606
0.00039096941
0.00076468219
0.00081235494
0.0011038902
0.0011952919
0.0014231109
0.0015315757
0.0017093854
0.0018144515
0.0019491133
0.0020359977
0.0021291729
0.0021868357
0.0022367926
0.0022563517
0.0022592865
0.0022330208
0.0021839309
0.0021047553
0.0019980318
0.0018593042
0.0016891983
0.0014847964
0.0012459092
0.00097069917
0.00065855863
0.00030849663
-8.022935e-05
-0.00050751768
-0.00097456664
-0.0014821869
-0.0020291373
-0.0026148851
-0.0032365347
-0.0038905564
-0.004573215
-0.005289638
-0.0060408551
-0.0068179108
-0.0076158712
-0.0084316753
-0.0092615051
-0.010100379
-0.010942931
-0.011783283
-0.01261512
-0.013431708
-0.014225894
-0.014990157
-0.015716615
-0.016397088
-0.017023121
-0.017586066
-0.018077132
-0.018487483
-0.018808325
-0.019031026
-0.019147235
-0.019149023
-0.01902903
-0.01878061
-0.018397992
-0.017876405
-0.017212226
-0.016403058
-0.015447826
-0.014346792
-0.013101571
-0.011715053
-0.010191344
-0.0085355862
-0.0067538395
-0.0048528127
-0.0028397197
-0.00072193622
0.0014931268
0.0037984248
0.0061873601
0.0086542237
0.011194207
0.013803876
0.016481036
0.019224955
0.022035223
0.024911259
0.027851451
0.030852159
0.03390689
0.037006432
0.040139599
0.043294069
0.046457784
0.049618897
0.052767588
0.055894181
0.058992538
0.062055135
0.065080379
0.06806172
0.071003753
0.073898772
0.076762099
0.079581547
0.082394926
0.085179975
0.088025242
0.090886709
0.093967422
0.097168942
0.10094502
0.10503578
0.11042852
0.11635464
0.12495731
0.13391255
0.14814099
0.16074293
0.1843542
0.19856631
0.23875899
0.2467376
0.30667702
-7.158333e-05
0.00042220743
0.00038362463
0.00076548354
0.00081146119
0.0011042427
0.0011980485
0.0014256711
0.0015366021
0.0017141448
0.0018211973
0.00195593
0.0020443976
0.0021379953
0.0021970086
0.0022476752
0.0022685032
0.002272394
0.0022474436
0.002199566
0.0021218858
0.0020167046
0.0018798352
0.001711735
0.0015097471
0.0012733523
0.0010001913
0.00068961124
0.00034029001
-4.8168139e-05
-0.00047677239
-0.00094434605
-0.0014495074
-0.0019913568
-0.0025661848
-0.0031799411
-0.003836725
-0.0045312274
-0.0052565708
-0.0060077756
-0.0067840598
-0.0075824928
-0.0083998183
-0.009231471
-0.010072642
-0.010917881
-0.011761369
-0.012596791
-0.013417434
-0.014216153
-0.014985435
-0.015717395
-0.016403843
-0.017036306
-0.017606104
-0.018104405
-0.018522317
-0.018850978
-0.019081673
-0.019205961
-0.019215804
-0.019103733
-0.018862981
-0.018487657
-0.017972871
-0.017314882
-0.016511189
-0.015560621
-0.014463359
-0.013220954
-0.011836249
-0.010313322
-0.0086573053
-0.0068742649
-0.0049709289
-0.0029545394
-0.00083249628
0.0013877738
0.0036992362
0.006095309
0.0085702853
0.011119253
0.013738515
0.01642545
0.019178993
0.021999103
0.02488614
0.027839027
0.03085396
0.033923943
0.037039352
0.040188687
0.043359467
0.046539376
0.04971637
0.052880292
0.056021336
0.059133027
0.062207915
0.065244054
0.068235431
0.071186299
0.07409063
0.07696361
0.07979743
0.082630227
0.085449774
0.088344692
0.091291071
0.094486193
0.097866456
0.1018536
0.10624173
0.11190652
0.11817336
0.12687849
0.13595681
0.14954159
0.16172913
0.18280855
0.19668629
0.22983593
0.24289351
0.28661126
-0.00011681344
0.00043453907
0.00036735592
0.00076470165
0.00080694366
0.0011023131
0.0011965708
0.0014236124
0.0015363991
0.0017134131
0.0018223612
0.0019570923
0.002047257
0.0021413534
0.0022019403
0.0022535114
0.0022759029
0.0022810192
0.002257691
0.0022112716
0.0021352523
0.0020316182
0.0018962705
0.0017295534
0.0015286151
0.0012933001
0.0010222177
0.00071471339
0.00037014259
-1.2382109e-05
-0.00042973912
-0.00088613726
-0.0013863269
-0.001927786
-0.0025130168
-0.0031335188
-0.0037844
-0.0044672361
-0.0051819624
-0.0059279125
-0.0067001422
-0.0074948069
-0.0083081124
-0.0091359596
-0.0099735516
-0.010815648
-0.011656508
-0.012489939
-0.013309321
-0.014107612
-0.014877387
-0.015610848
-0.016299879
-0.016936073
-0.017510795
-0.018015249
-0.018440554
-0.018777844
-0.019018377
-0.019153661
-0.019175591
-0.019076603
-0.018849818
-0.018489208
-0.017989723
-0.017347443
-0.01655966
-0.015624973
-0.014543307
-0.013315936
-0.011945395
-0.01043544
-0.0087908562
-0.0070173567
-0.0051213106
-0.0031096173
-0.00098935382
0.0012323254
0.0035486087
0.0059530856
0.0084402147
0.011005326
0.013645103
0.016357367
0.019141314
0.02199637
0.02492172
0.027915004
0.030971781
0.034084833
0.037244641
0.040439777
0.043657944
0.046887003
0.050115377
0.053333373
0.056532027
0.059705623
0.062848144
0.065958783
0.069033889
0.072079257
0.075092684
0.078090958
0.081072205
0.08407479
0.087095085
0.090216415
0.093426509
0.096901989
0.10059551
0.10487258
0.10955816
0.1153966
0.12180087
0.13030968
0.13914722
0.151685
0.1630213
0.18097772
0.19329534
0.21695625
0.22800495
0.24607094
-0.00018432872
0.00045003682
0.00034552009
0.00076644006
0.00079885801
0.001100974
0.0011973409
0.0014269225
0.0015428974
0.0017210407
0.0018330545
0.0019689484
0.0020619119
0.0021575519
0.0022208167
0.0022743764
0.0022995234
0.0023071124
0.002286829
0.0022434711
0.0021710581
0.0020713196
0.0019406349
0.0017791966
0.0015852429
0.0013581096
0.0010943588
0.00079316344
0.00045327735
7.44327e-05
-0.00034751964
-0.00080870044
-0.0013048567
-0.0018385203
-0.00240852
-0.003016686
-0.0036630939
-0.00434525
-0.0050595088
-0.0058025569
-0.0065719812
-0.0073645558
-0.0081769147
-0.0090048331
-0.0098437452
-0.010688471
-0.011533428
-0.012372532
-0.01319928
-0.014006719
-0.014787504
-0.015533889
-0.016237785
-0.016890783
-0.017484217
-0.01800922
-0.018456811
-0.018817984
-0.01908382
-0.019245616
-0.019295014
-0.019224164
-0.019025862
-0.018693723
-0.018222299
-0.017607245
-0.016845394
-0.01593486
-0.014875061
-0.013666751
-0.012311941
-0.010813877
-0.0091768478
-0.0074061191
-0.0055076516
-0.0034880075
-0.0013539806
0.00088747148
0.0032296827
0.0056662652
0.0081916032
0.010800671
0.013489506
0.016254837
0.019094416
0.022006387
0.024988953
0.028038951
0.031151285
0.034318207
0.037530008
0.040775251
0.044042045
0.047318548
0.050593541
0.053857448
0.057101673
0.06032057
0.063508674
0.066665274
0.069787888
0.072882498
0.075949329
0.079005393
0.082053555
0.085131744
0.088244858
0.091472295
0.094815662
0.09843568
0.10230588
0.10674325
0.11160743
0.1175189
0.12397638
0.13223139
0.14079626
0.15235715
0.16301082
0.17870425
0.19040627
0.20970233
0.2210019
0.23331073
-0.00026292981
0.00046784181
0.0003195003
0.00077041434
0.00079328141
0.0011035596
0.0011976817
0.0014290272
0.0015471247
0.0017267354
0.001841826
0.0019795819
0.0020758638
0.0021739447
0.0022407239
0.0022973329
0.0023262912
0.0023375292
0.0023214398
0.0022822795
0.0022144116
0.0021192306
0.0019930483
0.0018358888
0.0016445565
0.0014186938
0.0011581761
0.00086241538
0.00053000124
0.00016020564
-0.00024702759
-0.00069347889
-0.0011804798
-0.0017071848
-0.002273842
-0.0028770369
-0.0035146452
-0.004186016
-0.0048897992
-0.005624406
-0.0063865503
-0.0071730195
-0.0079802187
-0.0088042024
-0.0096405134
-0.010484228
-0.011329946
-0.012171793
-0.013003443
-0.013818113
-0.014608599
-0.015367272
-0.016086131
-0.016756818
-0.017370681
-0.01791883
-0.018392213
-0.018781711
-0.019078246
-0.019272901
-0.019357055
-0.019322543
-0.019161783
-0.018867952
-0.018435105
-0.017858332
-0.017133834
-0.016259039
-0.015232617
-0.014054538
-0.012725989
-0.011249387
-0.009628194
-0.0078668911
-0.0059707012
-0.0039455531
-0.0017977105
0.00046622706
0.0028397808
0.0053165304
0.0078906085
0.01055656
0.01330979
0.01614617
0.01906248
0.022055096
0.025120352
0.028253076
0.031446864
0.034693147
0.037982206
0.041302773
0.044643341
0.047992432
0.051339618
0.054676009
0.057993916
0.061288407
0.0645553
0.067794746
0.071006088
0.07419622
0.077368006
0.080538827
0.08371511
0.086932906
0.090201431
0.093591955
0.097110936
0.10089654
0.10492935
0.10947392
0.11440988
0.12024478
0.12654996
0.13432867
0.14234168
0.15266338
0.16218721
0.17517799
0.18504473
0.19896909
0.20754051
0.2137083
-0.00034217857
0.00048680564
0.00029189476
0.00077494903
0.00078593546
0.0011078871
0.0012027956
0.0014396184
0.001560801
0.0017435603
0.0018623214
0.0020028767
0.0021029585
0.0022041019
0.002274814
0.0023349486
0.0023681151
0.0023834551
0.0023720455
0.0023377152
0.0022752766
0.0021859374
0.0020664486
0.001916723
0.0017346391
0.0015192588
0.0012684451
0.00098146508
0.00065688874
0.00029428416
-0.00010787833
-0.00054849385
-0.0010265395
-0.0015426853
-0.0020964853
-0.0026881946
-0.0033170625
-0.0039815545
-0.0046793758
-0.0054081537
-0.0061654204
-0.0069482507
-0.0077534577
-0.0085772476
-0.0094154472
-0.010263324
-0.011115712
-0.011966929
-0.012810834
-0.0136408
-0.014449743
-0.015230123
-0.015973982
-0.016672963
-0.017318364
-0.017901191
-0.018412235
-0.01884216
-0.019181608
-0.019421322
-0.01955227
-0.019565807
-0.019453799
-0.019208798
-0.018824157
-0.018294198
-0.017614281
-0.016780943
-0.015791916
-0.014646211
-0.013344049
-0.011886916
-0.010277386
-0.0085191502
-0.0066167412
-0.0045755664
-0.0024015083
-0.00010102272
0.0023193971
0.0048529867
0.0074933924
0.01023419
0.013069651
0.015994024
0.01900192
0.022087877
0.025246376
0.028470678
0.031753155
0.035084277
0.038453728
0.041849805
0.0452615
0.0486778
0.052088665
0.055485356
0.058860759
0.062210225
0.065530149
0.068820931
0.07208294
0.075323262
0.078546522
0.081770025
0.085003082
0.088280385
0.091615555
0.095074369
0.098669578
0.10252299
0.10662489
0.11119858
0.11614545
0.12187941
0.12804135
0.13542816
0.14303297
0.15245056
0.16128257
0.1726073
0.18170108
0.19308761
0.20087939
0.20502822
-0.00041378604
0.00050648897
0.00026688236
0.00078244847
0.00078183223
0.0011155603
0.0012089689
0.0014507932
0.0015744531
0.0017608122
0.0018834381
0.0020276395
0.0021321812
0.0022374475
0.0023130618
0.0023779339
0.0024164797
0.0024372135
0.00243171
0.0024034059
0.002347369
0.0022645554
0.0021517411
0.0020087382
0.0018331454
0.0016244788
0.001381577
0.00110366
0.00078952992
0.00043841867
4.9558522e-05
-0.00037797404
-0.00084472395
-0.0013505102
-0.0018951547
-0.002477265
-0.0030957068
-0.0037495225
-0.0044373155
-0.0051574453
-0.0059074726
-0.0066847143
-0.0074860673
-0.008308013
-0.0091465859
-0.0099973329
-0.010855328
-0.01171514
-0.012570843
-0.013416008
-0.014243714
-0.015046545
-0.015816621
-0.016545619
-0.01722481
-0.017845121
-0.018397196
-0.018871484
-0.01925834
-0.019548145
-0.019731419
-0.019798986
-0.01974209
-0.019552574
-0.019222988
-0.018746769
-0.018118312
-0.01733313
-0.01638787
-0.015280449
-0.014009976
-0.012576878
-0.010982709
-0.0092302659
-0.0073232916
-0.005266604
-0.0030656629
-0.00072676669
0.001743516
0.0043380761
0.007049876
0.0098716669
0.012796418
0.015816834
0.018926484
0.022117415
0.025382185
0.028711756
0.032096898
0.035526786
0.038991099
0.042478214
0.045977028
0.049476214
0.052966552
0.056440028
0.059890176
0.063312804
0.06670537
0.070068825
0.073404699
0.076720497
0.080022243
0.083326815
0.086645002
0.090008785
0.093432957
0.096975327
0.10064939
0.10455809
0.10869396
0.11324001
0.11811086
0.12363702
0.12951445
0.13636099
0.14335406
0.15167579
0.15946785
0.16884796
0.17646674
0.18500711
0.19104789
0.19361648
-0.00047352452
0.00052562839
0.00024594785
0.00079195203
0.00078053784
0.0011272022
0.0012207156
0.0014694954
0.0015965673
0.0017878331
0.0019149581
0.002063683
0.0021732036
0.0022832523
0.0023642499
0.0024344312
0.002478864
0.0025055945
0.0025066466
0.0024851887
0.0024365927
0.0023616863
0.002257492
0.0021237089
0.0019582141
0.0017600975
0.0015276183
0.0012599257
0.00095570161
0.00061430668
0.00023478141
-0.00018289728
-0.00063875806
-0.0011331369
-0.00166594
-0.002237098
-0.0028459759
-0.0034915737
-0.0041723729
-0.0048866461
-0.0056323446
-0.0064070416
-0.0072079814
-0.0080318989
-0.0088751295
-0.0097334757
-0.010602277
-0.011476333
-0.012349935
-0.013216832
-0.014070245
-0.014902854
-0.015706823
-0.016473816
-0.017195026
-0.017861233
-0.01846286
-0.018990054
-0.019432783
-0.01978095
-0.020024506
-0.020153611
-0.020158748
-0.02003091
-0.019761703
-0.019343551
-0.018769762
-0.018034727
-0.017133936
-0.016064168
-0.014823411
-0.013411058
-0.011827708
-0.010075368
-0.0081571194
-0.0060773671
-0.0038413191
-0.0014553569
0.001073736
0.0037381299
0.006530154
0.0094411207
0.012462995
0.015586887
0.018803268
0.02210272
0.02547582
0.02891202
0.03240093
0.035930707
0.039489668
0.043064633
0.046645214
0.050221085
0.053782828
0.057322006
0.060832849
0.064311636
0.067756134
0.071167604
0.07454842
0.07790614
0.081247933
0.084590337
0.087945578
0.091343892
0.094801823
0.09837173
0.10206932
0.10598366
0.11011167
0.114605
0.11939292
0.12473936
0.13039286
0.13683038
0.14339539
0.1509608
0.15811813
0.16631253
0.17319257
0.1802542
0.18551878
0.18729468
-0.00051982857
0.00054363598
0.0002306242
0.00080384198
0.00078324565
0.0011420538
0.0012352961
0.0014907483
0.0016210747
0.0018175341
0.0019493762
0.0021032176
0.0022182171
0.0023337965
0.002420857
0.0024971654
0.0025482417
0.0025817643
0.0025900675
0.0025760712
0.0025353247
0.0024684954
0.0023726793
0.0022475229
0.0020909201
0.0019021682
0.0016798102
0.0014229437
0.0011303275
0.00080108849
0.00043428158
2.9131047e-05
-0.0004148867
-0.00089797773
-0.0014201376
-0.0019808923
-0.0025796666
-0.0032157604
-0.0038881249
-0.0045954501
-0.0053359367
-0.0061074509
-0.0069074683
-0.0077330187
-0.0085807048
-0.0094466234
-0.010326384
-0.011215053
-0.012107155
-0.012996647
-0.013876912
-0.01474075
-0.015580388
-0.016387488
-0.017153175
-0.01786808
-0.018522394
-0.019105943
-0.019608275
-0.020018777
-0.020326774
-0.020521704
-0.020593217
-0.020531382
-0.020326785
-0.019970762
-0.019455462
-0.018774088
-0.017920918
-0.016891544
-0.015682796
-0.014293009
-0.012721805
-0.010970398
-0.0090412033
-0.0069382205
-0.0046664234
-0.0022322635
0.00035714983
0.0030934862
0.0059680081
0.0089713394
0.012093376
0.015323124
0.018651758
0.022066371
0.025555933
0.029107368
0.032708241
0.036344711
0.040006041
0.043679967
0.047355011
0.051018313
0.054661838
0.058278489
0.061862511
0.065409971
0.068919793
0.072393482
0.075833992
0.079249075
0.082646462
0.086041896
0.089447916
0.092891914
0.09639007
0.099987794
0.10369976
0.1076002
0.11168619
0.11607965
0.12071884
0.1258088
0.1311384
0.1370644
0.14305901
0.14974279
0.15604777
0.16291932
0.16873582
0.17426909
0.17850623
0.17982279
-0.0005533225
0.00055986315
0.00022101405
0.00081755931
0.00079012774
0.0011608407
0.0012552169
0.0015182066
0.0016526767
0.0018551932
0.0019923919
0.0021520619
0.002273075
0.0023947942
0.002488427
0.0025714409
0.0026297108
0.0026706589
0.002686893
0.0026811687
0.0026492218
0.0025916233
0.0025055881
0.002390663
0.0022447944
0.0020670523
0.0018557976
0.0016100532
0.0013285123
0.0010103222
0.00065452138
0.00026054392
-0.00017210248
-0.00064388961
-0.0011550345
-0.0017056261
-0.0022953923
-0.0029238086
-0.0035899686
-0.004292719
-0.0050305665
-0.0058016557
-0.0066037887
-0.0074342916
-0.0082900803
-0.0091675421
-0.010062571
-0.010970492
-0.011886063
-0.012803433
-0.013716136
-0.014617068
-0.015498488
-0.016352021
-0.017168675
-0.017938877
-0.018652518
-0.019299024
-0.019867436
-0.020346526
-0.020724894
-0.020991143
-0.021133983
-0.021142458
-0.021006036
-0.020714882
-0.020259916
-0.019633114
-0.01882751
-0.01783752
-0.016658836
-0.015288798
-0.013726118
-0.011971325
-0.010026275
-0.0078947138
-0.0055814905
-0.0030933702
-0.00043775197
0.0023758632
0.0053383445
0.0084379573
0.011664904
0.01500644
0.018448641
0.02197881
0.025584144
0.029250343
0.032964781
0.036712388
0.040478684
0.044247553
0.048009463
0.051756008
0.055477072
0.059162957
0.062809354
0.066413609
0.069974065
0.073492506
0.076972811
0.080422392
0.083849775
0.087270155
0.090696558
0.094154564
0.09766061
0.10125522
0.1049533
0.10881799
0.11284821
0.11714291
0.12165048
0.12653017
0.13160865
0.13715111
0.1427409
0.14881307
0.15456863
0.16060138
0.16579931
0.17044487
0.17409338
0.17504937
-0.00057547885
0.00057420807
0.00021711236
0.0008328735
0.00080100275
0.0011823991
0.0012784444
0.0015486698
0.0016875011
0.0018962548
0.0020391096
0.0022050378
0.002332496
0.0024609049
0.0025616317
0.0026519386
0.0027179428
0.0027668609
0.0027914901
0.0027944344
0.0027715496
0.0027233076
0.0026469929
0.0025421137
0.0024066657
0.0022397716
0.0020398622
0.0018058993
0.0015365486
0.0012307873
0.00088753479
0.00050589181
8.5136049e-05
-0.00037528186
-0.00087569635
-0.0014162075
-0.0019967232
-0.0026169752
-0.0032763987
-0.0039741722
-0.0047091075
-0.005479664
-0.0062839427
-0.0071195894
-0.0079838284
-0.0088733619
-0.009784381
-0.010712493
-0.011652705
-0.012599385
-0.013546234
-0.014486257
-0.015411759
-0.016314332
-0.017184862
-0.018013565
-0.018790009
-0.019503192
-0.020141606
-0.020693362
-0.021146273
-0.021488048
-0.021706389
-0.021789243
-0.021724892
-0.021502266
-0.021110997
-0.020541783
-0.019786368
-0.018837962
-0.01769109
-0.016342085
-0.014788732
-0.013030882
-0.011069822
-0.0089090564
-0.0065533323
-0.0040096445
-0.001285973
0.0016077809
0.0046608153
0.0078616832
0.011197578
0.014652559
0.018214255
0.021866169
0.025594153
0.02938138
0.033213462
0.037074368
0.040950878
0.044829653
0.048695646
0.052533032
0.056336135
0.060100481
0.06381982
0.067489085
0.071109089
0.074681723
0.078210503
0.081703299
0.085168599
0.088620624
0.092072251
0.095546296
0.099058268
0.1026429
0.1063135
0.11012189
0.11406647
0.11822493
0.12255207
0.12716749
0.13192675
0.13701961
0.14211548
0.14750646
0.15259782
0.15774115
0.16219676
0.16598452
0.16902045
0.16981508
-0.00058816329
0.00058670687
0.00021855232
0.00084970077
0.00081614952
0.001207448
0.0013065546
0.0015843345
0.0017283924
0.0019439561
0.0020931081
0.0022658818
0.0024003377
0.0025360062
0.0026443655
0.0027425454
0.0028168635
0.0028743906
0.0029080919
0.0029204645
0.0029074756
0.0028695206
0.0028039384
0.0027101556
0.0025861629
0.0024309565
0.002242889
0.0020208462
0.0017634402
0.0014696032
0.0011382105
0.00076833731
0.00035915751
-9.0086452e-05
-0.00057995839
-0.0011108904
-0.0016830543
-0.0022964229
-0.0029506706
-0.0036452279
-0.0043792139
-0.005151398
-0.0059602165
-0.0068036441
-0.0076792403
-0.0085840292
-0.0095145125
-0.010466583
-0.011435504
-0.012415855
-0.013401498
-0.01438554
-0.01536031
-0.016317342
-0.017247367
-0.018140342
-0.018985462
-0.019771234
-0.020485529
-0.021115714
-0.021648731
-0.022071305
-0.022370035
-0.022531685
-0.022543263
-0.022392391
-0.022067346
-0.021557497
-0.020853264
-0.019946638
-0.018830968
-0.017501609
-0.015955446
-0.014191716
-0.012211186
-0.010017229
-0.0076145151
-0.0050105725
-0.0022135169
0.0007647243
0.0039145837
0.0072209351
0.010669221
0.014243485
0.017927983
0.021704904
0.02555835
0.029469638
0.033423208
0.03740074
0.041387452
0.045366894
0.049328548
0.053260971
0.057151719
0.060988353
0.064770128
0.068497349
0.07216702
0.075780882
0.079344743
0.082864999
0.086350967
0.089816326
0.093273728
0.096744477
0.10024353
0.10380161
0.1074314
0.11117628
0.1150354
0.11907025
0.12324274
0.1276423
0.13215068
0.13690125
0.14163463
0.14653886
0.15117375
0.15572003
0.15969002
0.16292266
0.16554177
0.16614862
-0.0005930785
0.00059754566
0.00022481197
0.00086775495
0.00083501902
0.0012350126
0.0013380934
0.0016231435
0.0017728738
0.0019953889
0.0021512176
0.0023311885
0.0024730611
0.002616441
0.0027328914
0.0028394272
0.0029225196
0.0029891112
0.0030322931
0.0030544637
0.0030516728
0.003024248
0.0029695769
0.0028870467
0.0027746735
0.0026314362
0.0024556807
0.0022462192
0.0020015934
0.0017205956
0.0014019671
0.0010445784
0.00064742955
0.00020961525
-0.00026959135
-0.00079077889
-0.0013543461
-0.0019605307
-0.0026093197
-0.0033004652
-0.0040334169
-0.0048072831
-0.0056208414
-0.0064724171
-0.0073599168
-0.0082807098
-0.0092316277
-0.010208874
-0.011207989
-0.012223788
-0.013250317
-0.014280798
-0.015307596
-0.016322197
-0.017315173
-0.018276216
-0.019194126
-0.020056891
-0.02085172
-0.021565192
-0.022183312
-0.022691759
-0.023075955
-0.023321401
-0.02341375
-0.023339238
-0.0230847
-0.022638113
-0.02198849
-0.021126552
-0.020044408
-0.0187364
-0.017198463
-0.015429213
-0.01342886
-0.011200657
-0.0087492301
-0.0060824266
-0.0032094951
-0.00014094928
0.0031091623
0.0065252678
0.010092288
0.013791215
0.017605691
0.021514847
0.02550147
0.029544248
0.033626468
0.037727961
0.041833762
0.045926329
0.049992679
0.054018228
0.05799659
0.061919781
0.065778358
0.069566725
0.073290463
0.076952567
0.080555185
0.084106852
0.087616363
0.091096125
0.09455896
0.098023393
0.10150359
0.10502559
0.10860059
0.11226368
0.11601345
0.11989687
0.1238806
0.12802875
0.13224336
0.13661341
0.14093513
0.14532099
0.14944908
0.15339124
0.15684368
0.15956695
0.1618042
0.16233914
-0.00059168448
0.00060702341
0.00023550389
0.00088719444
0.00085785202
0.0012657108
0.00137409
0.0016665075
0.0018227409
0.0020526221
0.0022157589
0.0024034341
0.0025532829
0.0027049137
0.002830008
0.002945472
0.0030379268
0.0031142088
0.0031675258
0.0032001955
0.0032083382
0.0031922171
0.003149244
0.003078738
0.0029786947
0.0028480068
0.0026849643
0.0024883003
0.0022564918
0.0019882486
0.001682226
0.0013371856
0.00095197781
0.0005254974
5.6790436e-05
-0.00045500161
-0.0010105421
-0.001610341
-0.0022546711
-0.0029435864
-0.0036768689
-0.0044539709
-0.0052740321
-0.006135743
-0.0070373788
-0.0079766699
-0.0089507955
-0.0099562826
-0.010988962
-0.012043897
-0.013115317
-0.014196566
-0.015280041
-0.016357164
-0.017418336
-0.018452951
-0.019449378
-0.02039504
-0.021276425
-0.022079255
-0.022788524
-0.023388779
-0.023864169
-0.024198848
-0.024377008
-0.024383415
-0.024203366
-0.02382337
-0.023230956
-0.022415526
-0.021367892
-0.020081371
-0.018550917
-0.016774551
-0.014751923
-0.012486242
-0.0099820327
-0.0072479438
-0.0042927587
-0.001130817
0.0022258407
0.0057579129
0.0094496543
0.013279748
0.017229979
0.021277024
0.025402161
0.02958148
0.033797105
0.038026327
0.042253368
0.04645859
0.050630034
0.054752636
0.05881752
0.062813973
0.06674159
0.070594444
0.074368338
0.078066211
0.081699497
0.085271607
0.088792534
0.092275012
0.09573049
0.099176959
0.10262748
0.10610515
0.10962033
0.113202
0.11684914
0.12059778
0.12441965
0.12835991
0.13233834
0.13641116
0.14041894
0.14441965
0.14817787
0.15168932
0.15477121
0.15713213
0.15907776
0.15950426
-0.00058513946
0.00061534452
0.00025004678
0.00090776283
0.00088405476
0.0012987938
0.0014134782
0.0017130473
0.0018763368
0.0021137273
0.0022846034
0.0024803036
0.0026385526
0.0027988424
0.0029330201
0.003057855
0.0031601146
0.003246526
0.0033103997
0.003353976
0.0033734365
0.0033689892
0.0033380749
0.0032799687
0.0031926665
0.0030750136
0.0029252617
0.0027420606
0.0025237997
0.0022690598
0.0019763609
0.0016442939
0.0012715392
0.00085681168
0.00039896014
-0.00010309003
-0.00065025786
-0.0012433388
-0.0018829247
-0.0025694072
-0.0033029244
-0.0040832989
-0.0049100507
-0.00578226
-0.0066985926
-0.007657167
-0.0086555369
-0.0096905829
-0.010758456
-0.011854492
-0.012973139
-0.014107881
-0.015251171
-0.016394381
-0.017527744
-0.018640358
-0.019720148
-0.020753945
-0.021727482
-0.022625574
-0.02343214
-0.024130522
-0.024703509
-0.02513381
-0.025404052
-0.025497421
-0.025397561
-0.025089407
-0.024558885
-0.023793987
-0.022784118
-0.021521512
-0.020000045
-0.018217128
-0.016171772
-0.013867183
-0.011307735
-0.0085028362
-0.005461425
-0.0021994929
0.0012689082
0.0049239597
0.0087481533
0.012717431
0.016812333
0.021006263
0.025279252
0.029604192
0.033962283
0.03832808
0.042685434
0.047012489
0.051296743
0.055521302
0.059678904
0.063758808
0.067757106
0.071669055
0.075499961
0.0792444
0.082907165
0.086500077
0.090032887
0.093515174
0.096960639
0.10038366
0.10379738
0.10722111
0.11066415
0.11414976
0.11767652
0.1212711
0.12490884
0.12861969
0.13233745
0.13609395
0.13976481
0.14337115
0.14674423
0.14983634
0.15255242
0.15459265
0.15628832
0.15667476
-0.00057431727
0.00062281442
0.0002681584
0.00092967535
0.00091379884
0.0013347363
0.0014569233
0.0017636821
0.0019348046
0.0021800408
0.0023592635
0.002563443
0.0027306425
0.0029001015
0.0030439115
0.0031786706
0.0032913132
0.0033884543
0.0034635083
0.00351864
0.0035500845
0.0035579901
0.0035398087
0.0034947542
0.0034207968
0.0033167087
0.0031806856
0.0030112941
0.0028068435
0.0025658107
0.0022866009
0.0019676624
0.0016075047
0.0012046373
0.00075767756
0.0002652894
-0.0002737236
-0.00086045392
-0.0014958118
-0.0021805284
-0.0029151066
-0.0036997517
-0.0045343836
-0.005418492
-0.0063511573
-0.0073309093
-0.0083557009
-0.0094227909
-0.010528673
-0.011668982
-0.012838399
-0.01403057
-0.015238011
-0.016452054
-0.017662758
-0.018858917
-0.020027986
-0.021156173
-0.022228404
-0.023228532
-0.02413932
-0.024942821
-0.025620361
-0.026153099
-0.026521973
-0.026708478
-0.026694467
-0.026463198
-0.025998862
-0.025287961
-0.02431838
-0.023081224
-0.021569205
-0.019779125
-0.017709309
-0.01536297
-0.012744457
-0.0098633909
-0.0067313554
-0.0033636795
0.00022416417
0.0040097406
0.0079744682
0.012091143
0.01633892
0.020687704
0.02511632
0.029594062
0.034101296
0.038609235
0.043101402
0.047553258
0.051952791
0.056281289
0.060531505
0.064691188
0.06875901
0.072729215
0.076603159
0.080384962
0.084078461
0.087685847
0.091220114
0.094696089
0.098122291
0.10151516
0.10488592
0.10825213
0.11162244
0.11501581
0.11843132
0.12188853
0.12536655
0.12888407
0.13238678
0.13588877
0.13929282
0.14259389
0.1456708
0.14844662
0.15088218
0.15267605
0.15416576
0.15448476
-0.00055990991
0.00062956518
0.00028934616
0.00095270503
0.00094655147
0.0013729625
0.0015036195
0.0018174403
0.0019969785
0.0022502238
0.0024382473
0.0026512178
0.0028277971
0.0030068156
0.0031606947
0.003305809
0.003429282
0.0035376015
0.0036242883
0.0036914304
0.0037353167
0.0037560419
0.0037510744
0.0037195792
0.0036595106
0.0035695802
0.0034479303
0.0032930378
0.0031031162
0.0028765152
0.0026115014
0.0023063574
0.0019594137
0.0015689805
0.0011334531
0.00065124783
0.00012088868
-0.00045902571
-0.001089745
-0.0017723646
-0.0025077751
-0.00329659
-0.0041391537
-0.0050353939
-0.0059848347
-0.0069864505
-0.0080386284
-0.0091390426
-0.010284569
-0.011471178
-0.012693826
-0.013946353
-0.015221371
-0.0165102
-0.017802743
-0.019087498
-0.020351445
-0.021580155
-0.022757712
-0.023866955
-0.024889425
-0.025805801
-0.026595836
-0.027239027
-0.027714477
-0.028001856
-0.028081063
-0.027933534
-0.027541556
-0.026890015
-0.02596511
-0.024756737
-0.023256291
-0.02145995
-0.019365215
-0.016975404
-0.014294599
-0.01133366
-0.0081044206
-0.0046242786
-0.0009091656
0.0030158186
0.0071309166
0.011405302
0.015817008
0.020331705
0.02492729
0.029568725
0.034235882
0.038896028
0.043532737
0.048118209
0.052640835
0.057079555
0.061428267
0.065673439
0.069813941
0.073843542
0.077766855
0.081582725
0.085299826
0.088925282
0.092463452
0.095925601
0.099329927
0.10268599
0.10600684
0.10930703
0.11259449
0.11588471
0.11917647
0.12248382
0.12578863
0.12910111
0.13237661
0.13561693
0.13874666
0.14174485
0.14452723
0.14700384
0.14917539
0.15075588
0.15207436
0.15236715
-0.00054240303
0.00063583271
0.00031343233
0.00097704362
0.00098242651
0.0014138123
0.0015539901
0.0018749192
0.0020635842
0.0023251381
0.0025225353
0.0027447143
0.0029312027
0.0031202623
0.003284743
0.0034407415
0.003575604
0.0036956745
0.0037945888
0.0038743522
0.0039313047
0.0039654812
0.0039743569
0.0039570382
0.0039114509
0.0038362366
0.003729478
0.0035895637
0.0034146159
0.0032028671
0.0029524522
0.0026614944
0.00232814
0.0019504849
0.0015266835
0.0010548823
0.0005333108
-3.975362e-05
-0.00066590878
-0.001346625
-0.0020831954
-0.0028766593
-0.0037278083
-0.0046370336
-0.0056043324
-0.0066291548
-0.0077103561
-0.0088460615
-0.010033565
-0.011269212
-0.012548264
-0.013864796
-0.015211542
-0.016579832
-0.01795943
-0.019338542
-0.020703667
-0.022039717
-0.023329889
-0.02455596
-0.02569816
-0.026735709
-0.027646659
-0.028408726
-0.028999019
-0.029395238
-0.02957515
-0.02951823
-0.029204672