/*--------------------------------*- C++ -*----------------------------------*\
| =========                 |                                                 |
| \\      /  F ield         | foam-extend: Open Source CFD                    |
|  \\    /   O peration     | Version:     4.1                                |
|   \\  /    A nd           | Web:         http://www.foam-extend.org         |
|    \\/     M anipulation  |                                                 |
\*---------------------------------------------------------------------------*/
FoamFile
{
    version     2.0;
    format      ascii;
    class       surfaceScalarField;
    location    "1.3";
    object      phi;
}
// * * * * * * * * * * * * * * * * * * * * * * * * * * * * * * * * * * * * * //

dimensions      [0 3 -1 0 0 0 0];

internalField   nonuniform List<scalar> 
31929
(
-4.3541513e-05
1.332644e-08
-4.3536856e-05
-4.6562777e-09
-4.3536081e-05
-7.7560106e-10
-4.352981e-05
-6.2707586e-09
-4.3521765e-05
-8.045416e-09
-4.3511281e-05
-1.0483431e-08
-4.3497832e-05
-1.3449479e-08
-4.3482571e-05
-1.5261077e-08
-4.3464287e-05
-1.8283983e-08
-4.3444113e-05
-2.0173771e-08
-4.3421057e-05
-2.3056185e-08
-4.3395884e-05
-2.5173051e-08
-4.3367934e-05
-2.7949861e-08
-4.3337659e-05
-3.0274505e-08
-4.3304659e-05
-3.299968e-08
-4.3269188e-05
-3.5471792e-08
-4.323102e-05
-3.8167778e-08
-4.3190305e-05
-4.0714403e-08
-4.3146943e-05
-4.3362309e-08
-4.3101047e-05
-4.5896226e-08
-4.3052612e-05
-4.8434989e-08
-4.3001765e-05
-5.0846612e-08
-4.2948592e-05
-5.3172807e-08
-4.2893273e-05
-5.5319428e-08
-4.2835994e-05
-5.7278789e-08
-4.2777042e-05
-5.8951852e-08
-4.2716758e-05
-6.0284223e-08
-4.2655558e-05
-6.1200632e-08
-4.2593924e-05
-6.1633094e-08
-4.2532445e-05
-6.1479879e-08
-4.2471791e-05
-6.0653579e-08
-4.2412769e-05
-5.9021529e-08
-4.2356222e-05
-5.6547477e-08
-4.2302893e-05
-5.3328468e-08
-4.2253706e-05
-4.9187771e-08
-4.2210274e-05
-4.3431181e-08
-4.2174189e-05
-3.6085747e-08
-4.2146459e-05
-2.7729988e-08
-4.212854e-05
-1.791884e-08
-4.212347e-05
-5.0702017e-09
-4.2133776e-05
1.0306833e-08
-4.2159501e-05
2.5724766e-08
-4.2200822e-05
4.132098e-08
-4.2258934e-05
5.8111581e-08
-4.2335058e-05
7.6124707e-08
-4.2430456e-05
9.5398101e-08
-4.2546311e-05
1.1585417e-07
-4.2683715e-05
1.3740416e-07
-4.2843642e-05
1.5992699e-07
-4.3026924e-05
1.8328268e-07
-4.3234232e-05
2.073075e-07
-4.3466049e-05
2.3181742e-07
-4.3722656e-05
2.5660688e-07
-4.4004107e-05
2.8145054e-07
-4.4310209e-05
3.0610204e-07
-4.4640505e-05
3.3029649e-07
-4.4994255e-05
3.5374965e-07
-4.5370414e-05
3.7615954e-07
-4.5767622e-05
3.9720769e-07
-4.6184184e-05
4.1656169e-07
-4.661806e-05
4.3387684e-07
-4.7066863e-05
4.4880262e-07
-4.752785e-05
4.6098734e-07
-4.7997937e-05
4.7008676e-07
-4.8473711e-05
4.7577384e-07
-4.8951462e-05
4.7775146e-07
-4.9427229e-05
4.7576688e-07
-4.9896855e-05
4.6962625e-07
-5.0356069e-05
4.592136e-07
-5.0800575e-05
4.4450649e-07
-5.1226167e-05
4.2559172e-07
-5.1628846e-05
4.0267908e-07
-5.2004957e-05
3.7611055e-07
-5.2351321e-05
3.4636391e-07
-5.2665374e-05
3.1405302e-07
-5.2945294e-05
2.7992042e-07
-5.3190118e-05
2.4482425e-07
-5.3399839e-05
2.0972099e-07
-5.3575481e-05
1.756413e-07
-5.3719141e-05
1.4366087e-07
-5.3834014e-05
1.1487247e-07
-5.3924382e-05
9.0367824e-08
-5.3995632e-05
7.1250707e-08
-5.4054277e-05
5.864428e-08
-5.4107842e-05
5.3565273e-08
-5.4164523e-05
5.6680821e-08
-5.4232808e-05
6.8285485e-08
-5.4320846e-05
8.8037979e-08
-5.4435566e-05
1.1471989e-07
-5.4582319e-05
1.4675365e-07
-5.4765096e-05
1.8277692e-07
-5.4987135e-05
2.2203897e-07
-5.5251561e-05
2.6442549e-07
-5.5561928e-05
3.1036695e-07
-5.5922522e-05
3.6059412e-07
-5.6338571e-05
4.1604881e-07
-5.6816286e-05
4.7771579e-07
-5.7363022e-05
5.4673576e-07
-5.7987301e-05
6.2427872e-07
-5.8699192e-05
7.1189142e-07
-5.9510486e-05
8.1129341e-07
-6.0435611e-05
9.251253e-07
-6.149212e-05
1.0565088e-06
-6.2702733e-05
1.2106139e-06
-6.4096348e-05
1.393615e-06
-6.5712263e-05
1.6159145e-06
-6.7601813e-05
1.8895502e-06
-6.9836463e-05
2.2346499e-06
-7.2509277e-05
2.6728142e-06
-7.5749096e-05
3.2398192e-06
-7.9718002e-05
3.9689055e-06
-8.4634011e-05
4.9160091e-06
-9.0753484e-05
6.1194727e-06
-9.8406385e-05
7.6529013e-06
-0.00010793945
9.5330638e-06
-0.00011977957
1.1840126e-05
-0.00013429002
1.4510448e-05
-0.0001519234
1.7633377e-05
-0.00017286434
2.0940936e-05
-0.00019751089
2.4646556e-05
-0.00022529454
2.7783651e-05
-0.00025683687
3.1542331e-05
-0.0002872992
3.0462324e-05
3.5281403e-05
-0.00012549205
2.6781063e-08
-0.00012548964
-7.0652961e-09
-0.00012548824
-2.1767481e-09
-0.00012547958
-1.4934053e-08
-0.00012546792
-1.9705093e-08
-0.00012545164
-2.6762346e-08
-0.0001254315
-3.3588148e-08
-0.00012540751
-3.9255923e-08
-0.00012537948
-4.6308233e-08
-0.00012534774
-5.1914112e-08
-0.00012531199
-5.8812174e-08
-0.00012527249
-6.4667717e-08
-0.00012522903
-7.1411476e-08
-0.0001251818
-7.7505375e-08
-0.00012513067
-8.4123432e-08
-0.00012507581
-9.0332704e-08
-0.0001250172
-9.6783879e-08
-0.00012495499
-1.0292053e-07
-0.00012488929
-1.0906509e-07
-0.00012482032
-1.1486966e-07
-0.0001247483
-1.2045495e-07
-0.00012467357
-1.2557414e-07
-0.00012459652
-1.3021951e-07
-0.00012451766
-1.3417849e-07
-0.00012443759
-1.3735504e-07
-0.00012435701
-1.3952703e-07
-0.00012427678
-1.4051832e-07
-0.00012419786
-1.4011485e-07
-0.00012412139
-1.3810459e-07
-0.00012404864
-1.3423355e-07
-0.00012398107
-1.2822081e-07
-0.00012392068
-1.1940933e-07
-0.00012386985
-1.0737527e-07
-0.00012383109
-9.2091458e-08
-0.0001238071
-7.3175294e-08
-0.00012380081
-4.9719821e-08
-0.00012381596
-2.0942535e-08
-0.00012385625
1.2565477e-08
-0.00012392238
4.8206996e-08
-0.00012401379
8.6336988e-08
-0.0001241322
1.2871934e-07
-0.00012428124
1.7476948e-07
-0.00012446436
2.2443745e-07
-0.00012468409
2.7784218e-07
-0.00012494287
3.3490394e-07
-0.0001252429
3.9543061e-07
-0.00012558619
4.5914347e-07
-0.00012597448
5.256881e-07
-0.00012640919
5.9463809e-07
-0.00012689141
6.6550178e-07
-0.00012742182
7.3772236e-07
-0.00012800069
8.1068349e-07
-0.00012862779
8.8371139e-07
-0.00012930242
9.5608138e-07
-0.00013002334
1.0270177e-06
-0.00013078874
1.0957026e-06
-0.00013159627
1.1612771e-06
-0.00013244296
1.2228477e-06
-0.00013332524
1.2794901e-06
-0.00013423894
1.3302592e-06
-0.00013517925
1.374192e-06
-0.00013614078
1.4103261e-06
-0.0001371175
1.4377123e-06
-0.00013810285
1.4554373e-06
-0.00013908973
1.4626508e-06
-0.00014007058
1.4585998e-06
-0.00014103748
1.4426713e-06
-0.00014198229
1.4144327e-06
-0.00014289676
1.3736867e-06
-0.00014377277
1.3205184e-06
-0.00014460252
1.2553417e-06
-0.00014537878
1.1789396e-06
-0.00014609517
1.0924931e-06
-0.00014674639
9.9759167e-07
-0.00014732858
8.9623441e-07
-0.00014783946
7.9080915e-07
-0.0001482787
6.8405562e-07
-0.00014864799
5.790199e-07
-0.00014895135
4.7899646e-07
-0.00014919516
3.8746877e-07
-0.00014938834
3.0805346e-07
-0.00014954242
2.4444823e-07
-0.00014967154
2.0036882e-07
-0.00014979229
1.7939804e-07
-0.00014992332
1.8459645e-07
-0.00015008445
2.1780613e-07
-0.00015029518
2.7901428e-07
-0.00015057336
3.6622042e-07
-0.00015093476
4.7612477e-07
-0.00015139335
6.0533791e-07
-0.00015196167
7.5109655e-07
-0.00015265133
9.1170329e-07
-0.00015347349
1.0865814e-06
-0.00015443938
1.2762559e-06
-0.00015556087
1.4820865e-06
-0.00015685098
1.7061567e-06
-0.00015832426
1.9509988e-06
-0.00015999722
2.2196932e-06
-0.00016188859
2.5156487e-06
-0.00016401973
2.8430398e-06
-0.00016641496
3.2065194e-06
-0.000169102
3.6121689e-06
-0.00017211237
4.0668734e-06
-0.00017548199
4.5802303e-06
-0.00017925137
5.1630001e-06
-0.00018346632
5.8308692e-06
-0.00018817744
6.6006637e-06
-0.00019344049
7.4976989e-06
-0.00019931424
8.5465654e-06
-0.00020586001
9.7855891e-06
-0.00021313589
1.1244784e-05
-0.00022119491
1.297503e-05
-0.00023007251
1.4997079e-05
-0.00023978371
1.7364099e-05
-0.00025029751
2.0046857e-05
-0.00026153725
2.3079867e-05
-0.0002733258
2.6299001e-05
-0.00028540828
2.9715856e-05
-0.00029731711
3.2849763e-05
-0.00030849472
3.5824175e-05
-0.00031794511
3.7234038e-05
-0.00032461313
3.821035e-05
-0.00032737761
3.3226802e-05
3.0484394e-05
-0.00019509034
4.3477855e-08
-0.00019509371
-3.7011562e-09
-0.00019509685
9.668106e-10
-0.00019509356
-1.8227119e-08
-0.0001950882
-2.5060291e-08
-0.00019507841
-3.6550372e-08
-0.00019506563
-4.637427e-08
-0.00019504915
-5.5731605e-08
-0.00019502959
-6.5871009e-08
-0.00019500677
-7.473536e-08
-0.00019498095
-8.4632109e-08
-0.00019495214
-9.3473805e-08
-0.00019492052
-1.0303474e-07
-0.00019488619
-1.1183368e-07
-0.00019484934
-1.2097454e-07
-0.00019481016
-1.2950888e-07
-0.00019476891
-1.3803464e-07
-0.00019472589
-1.4594632e-07
-0.00019468145
-1.5350535e-07
-0.00019463602
-1.6029223e-07
-0.00019459013
-1.6634855e-07
-0.00019454437
-1.7133583e-07
-0.00019449944
-1.7514411e-07
-0.00019445617
-1.7744688e-07
-0.00019441551
-1.7801681e-07
-0.00019437862
-1.7642096e-07
-0.00019434687
-1.7226982e-07
-0.00019432181
-1.651771e-07
-0.00019430519
-1.547225e-07
-0.00019429903
-1.4039228e-07
-0.00019430558
-1.2166879e-07
-0.00019432719
-9.7797044e-08
-0.00019436655
-6.8022685e-08
-0.00019442676
-3.1871973e-08
-0.00019451068
1.0737749e-08
-0.00019461874
5.8338009e-08
-0.0001947507
1.1101721e-07
-0.00019490817
1.7004259e-07
-0.0001950952
2.3523218e-07
-0.00019531586
3.069949e-07
-0.00019557301
3.8587507e-07
-0.00019586997
4.7172371e-07
-0.00019620966
5.6413457e-07
-0.00019659465
6.6282785e-07
-0.00019702723
7.6748378e-07
-0.00019750945
8.7765669e-07
-0.00019804308
9.9276546e-07
-0.0001986295
1.1121093e-06
-0.00019926972
1.2348649e-06
-0.00019996432
1.3601017e-06
-0.00020071339
1.486784e-06
-0.00020151648
1.6137818e-06
-0.00020237265
1.739877e-06
-0.00020328034
1.863776e-06
-0.00020423744
1.9841105e-06
-0.00020524119
2.0994531e-06
-0.00020628823
2.2083197e-06
-0.00020737456
2.3091788e-06
-0.00020849553
2.4004585e-06
-0.00020964583
2.4805619e-06
-0.00021081951
2.5478715e-06
-0.00021200997
2.6007807e-06
-0.00021320997
2.6377167e-06
-0.00021441171
2.6571816e-06
-0.00021560687
2.6578023e-06
-0.00021678666
2.6383941e-06
-0.00021794203
2.5980394e-06
-0.00021906376
2.536162e-06
-0.0002201427
2.4526268e-06
-0.00022117
2.3478239e-06
-0.00022213741
2.2227497e-06
-0.00022303755
2.0790759e-06
-0.00022386425
1.9191969e-06
-0.0002246129
1.7462449e-06
-0.00022528076
1.5640869e-06
-0.00022586723
1.3772861e-06
-0.00022637421
1.1910316e-06
-0.00022680624
1.0110494e-06
-0.00022717072
8.4347679e-07
-0.00022747796
6.9470845e-07
-0.00022774111
5.7120317e-07
-0.00022797591
4.7925026e-07
-0.00022820022
4.2467507e-07
-0.0002284333
4.1247874e-07
-0.00022869504
4.4633845e-07
-0.00022900527
5.280419e-07
-0.0002293834
6.5713755e-07
-0.00022984825
8.3106949e-07
-0.00023041787
1.0457485e-06
-0.00023110909
1.2965576e-06
-0.00023193716
1.5791693e-06
-0.00023291574
1.8902775e-06
-0.00023405706
2.2279015e-06
-0.00023537234
2.5915364e-06
-0.00023687217
2.9819202e-06
-0.00023856691
3.4008951e-06
-0.00024046696
3.8510462e-06
-0.00024258298
4.3357203e-06
-0.00024492604
4.8587077e-06
-0.0002475076
5.4245995e-06
-0.00025033952
6.0384336e-06
-0.00025343389
6.7065458e-06
-0.00025680291
7.4358862e-06
-0.00026045843
8.235755e-06
-0.00026441159
9.1161569e-06
-0.0002686719
1.0091182e-05
-0.00027324632
1.1175086e-05
-0.00027813743
1.238881e-05
-0.00028334152
1.3750653e-05
-0.00028884508
1.5289143e-05
-0.00029462151
1.7021222e-05
-0.00030062513
1.8978652e-05
-0.00030678656
2.1158507e-05
-0.00031300392
2.3581456e-05
-0.00031913789
2.6180828e-05
-0.00032500188
2.8943859e-05
-0.00033035722
3.1654339e-05
-0.00033490933
3.4267972e-05
-0.00033829928
3.6239712e-05
-0.00034012046
3.7645356e-05
-0.00033993971
3.7053284e-05
-0.00033718485
3.5455489e-05
-0.00033227442
2.8316376e-05
2.0790771e-05
-0.00024855604
6.8755132e-08
-0.00024857175
1.2007068e-08
-0.00024858683
1.6051301e-08
-0.00024859769
-7.3732384e-09
-0.00024860814
-1.4604532e-08
-0.00024861601
-2.8680416e-08
-0.00024862292
-3.9465869e-08
-0.00024862802
-5.06352e-08
-0.00024863211
-6.1782859e-08
-0.0002486349
-7.1935771e-08
-0.00024863694
-8.2595225e-08
-0.00024863824
-9.2176836e-08
-0.00024863922
-1.020553e-07
-0.00024864008
-1.1096946e-07
-0.00024864125
-1.1980505e-07
-0.00024864307
-1.2768926e-07
-0.00024864603
-1.3507915e-07
-0.00024865061
-1.4136598e-07
-0.00024865742
-1.4669746e-07
-0.00024866711
-1.5060183e-07
-0.00024868045
-1.5300862e-07
-0.00024869829
-1.5349021e-07
-0.00024872162
-1.5181349e-07
-0.00024875154
-1.4753115e-07
-0.00024878927
-1.4027996e-07
-0.00024883616
-1.2953583e-07
-0.00024889367
-1.1475658e-07
-0.0002489635
-9.5349225e-08
-0.00024904753
-7.0697613e-08
-0.00024914766
-4.025795e-08
-0.00024926604
-3.2872848e-09
-0.00024940357
3.9728909e-08
-0.00024956047
8.8877798e-08
-0.0002497377
1.4535962e-07
-0.00024993647
2.0951144e-07
-0.00025015992
2.8178365e-07
-0.00025041144
3.6253994e-07
-0.00025069368
4.5227826e-07
-0.00025100987
5.5142932e-07
-0.00025136293
6.6005324e-07
-0.00025175511
7.7805314e-07
-0.00025218853
9.0514361e-07
-0.00025266531
1.040919e-06
-0.00025318742
1.184932e-06
-0.00025375655
1.3366105e-06
-0.00025437411
1.4952263e-06
-0.00025504124
1.6598892e-06
-0.00025575868
1.8295549e-06
-0.00025652684
2.0030249e-06
-0.00025734571
2.1789641e-06
-0.00025821483
2.3559055e-06
-0.00025913331
2.5322638e-06
-0.00026009978
2.7063431e-06
-0.00026111235
2.8763535e-06
-0.00026216865
3.0404077e-06
-0.00026326574
3.1965402e-06
-0.00026440013
3.3427077e-06
-0.00026556774
3.4767976e-06
-0.00026676392
3.5966354e-06
-0.00026798337
3.7000066e-06
-0.00026922016
3.7846628e-06
-0.00027046775
3.8483705e-06
-0.00027171898
3.8889496e-06
-0.00027296614
3.9043405e-06
-0.00027420102
3.8926843e-06
-0.00027541505
3.8524235e-06
-0.00027659943
3.782424e-06
-0.00027774536
3.6820862e-06
-0.00027884422
3.5514897e-06
-0.00027988791
3.3915109e-06
-0.00028086909
3.2039299e-06
-0.00028178153
2.991515e-06
-0.0002826204
2.7580715e-06
-0.0002833826
2.5084391e-06
-0.00028406697
2.2484581e-06
-0.00028467456
1.9848801e-06
-0.00028520876
1.7252253e-06
-0.00028567531
1.4776078e-06
-0.00028608234
1.2505005e-06
-0.0002864401
1.0524669e-06
-0.00028676074
8.918463e-07
-0.00028705791
7.7642255e-07
-0.0002873463
7.1306891e-07
-0.00028764125
7.0742119e-07
-0.00028795841
7.6350533e-07
-0.00028831372
8.8334689e-07
-0.00028872316
1.0665764e-06
-0.00028920247
1.3103832e-06
-0.00028976664
1.6099146e-06
-0.0002904294
1.9593224e-06
-0.00029120298
2.3527512e-06
-0.00029209795
2.7852406e-06
-0.00029312317
3.2531258e-06
-0.00029428592
3.754285e-06
-0.00029559197
4.287973e-06
-0.0002970458
4.8547257e-06
-0.00029865075
5.4559915e-06
-0.00030040912
6.0940942e-06
-0.00030232227
6.7718586e-06
-0.00030439054
7.4928662e-06
-0.00030661317
8.2610671e-06
-0.00030898809
9.0814661e-06
-0.00031151166
9.9594552e-06
-0.00031417816
1.0902256e-05
-0.00031697937
1.1917362e-05
-0.00031990351
1.3015324e-05
-0.00032293452
1.42061e-05
-0.00032605007
1.5504356e-05
-0.0003292203
1.6920884e-05
-0.0003324043
1.8473143e-05
-0.00033554855
2.0165468e-05
-0.00033858121
2.2011313e-05
-0.00034141171
2.3989003e-05
-0.00034392314
2.6092895e-05
-0.00034597694
2.8234624e-05
-0.00034740519
3.0372113e-05
-0.00034802854
3.227768e-05
-0.00034764976
3.38892e-05
-0.00034610747
3.4697415e-05
-0.0003432466
3.478449e-05
-0.00033915022
3.2956901e-05
-0.00033377576
3.0081035e-05
-0.00032844671
2.2987319e-05
1.4924665e-05
-0.00028582806
1.0781706e-07
-0.00028586373
4.7678041e-08
-0.0002858994
5.1724634e-08
-0.00028593301
2.6237755e-08
-0.00028596697
1.9356012e-08
-0.00028600062
4.9652691e-09
-0.00028603564
-4.437586e-09
-0.00028607144
-1.4841369e-08
-0.0002861088
-2.44195e-08
-0.00028614753
-3.3203695e-08
-0.00028618827
-4.1859445e-08
-0.00028623113
-4.9317852e-08
-0.00028627668
-5.6504771e-08
-0.00028632524
-6.2405644e-08
-0.0002863774
-6.7652624e-08
-0.00028643361
-7.1470441e-08
-0.00028649454
-7.4156248e-08
-0.00028656079
-7.5115345e-08
-0.00028663311
-7.4376803e-08
-0.00028671228
-7.1433993e-08
-0.00028679917
-6.6112479e-08
-0.00028689474
-5.7921857e-08
-0.00028700003
-4.6527878e-08
-0.00028711613
-3.1430121e-08
-0.00028724425
-1.2157001e-08
-0.00028738542
1.1633968e-08
-0.00028754045
4.0272333e-08
-0.00028771024
7.4440741e-08
-0.00028789569
1.1475644e-07
-0.00028809778
1.6182989e-07
-0.00028831728
2.1621089e-07
-0.00028855605
2.7850466e-07
-0.0002888165
3.4931941e-07
-0.00028910032
4.2918483e-07
-0.00028940953
5.1872021e-07
-0.00028974646
6.1871644e-07
-0.00029011344
7.2952055e-07
-0.00029051233
8.5116132e-07
-0.00029094467
9.8377374e-07
-0.00029141199
1.1273733e-06
-0.00029191588
1.2819432e-06
-0.00029245789
1.4471475e-06
-0.00029303942
1.6224547e-06
-0.0002936617
1.8072095e-06
-0.00029432571
2.0006171e-06
-0.00029503219
2.2017142e-06
-0.00029578166
2.4093583e-06
-0.00029657435
2.6222385e-06
-0.00029741019
2.8388701e-06
-0.00029828884
3.0576158e-06
-0.00029920963
3.2766894e-06
-0.00030017153
3.4941674e-06
-0.00030117318
3.7079944e-06
-0.00030221282
3.9159972e-06
-0.00030328829
4.1158731e-06
-0.00030439696
4.3052077e-06
-0.00030553572
4.4814688e-06
-0.00030670093
4.6420133e-06
-0.00030788839
4.7840946e-06
-0.00030909328
4.9048927e-06
-0.00031031014
5.0015279e-06
-0.00031153291
5.0711322e-06
-0.00031275487
5.1109133e-06
-0.00031396878
5.1182534e-06
-0.00031516693
5.0908301e-06
-0.00031634126
5.0267571e-06
-0.00031748359
4.924751e-06
-0.00031858578
4.7842766e-06
-0.00031964002
4.6057273e-06
-0.00032063907
4.3905618e-06
-0.00032157656
4.1414178e-06
-0.00032244723
3.8621885e-06
-0.00032324721
3.5580476e-06
-0.00032397417
3.2354026e-06
-0.00032462752
2.9018068e-06
-0.00032520844
2.5658029e-06
-0.00032571992
2.2367026e-06
-0.00032616665
1.9243397e-06
-0.00032655492
1.6387669e-06
-0.0003268924
1.3899463e-06
-0.00032718796
1.1874111e-06
-0.00032745148
1.0399431e-06
-0.00032769361
9.5520289e-07
-0.00032792557
9.3937867e-07
-0.0003281588
9.9673715e-07
-0.00032840468
1.1292201e-06
-0.00032867423
1.3361252e-06
-0.00032897805
1.6142105e-06
-0.00032932625
1.9581142e-06
-0.00032972823
2.3613033e-06
-0.00033019244
2.8169608e-06
-0.0003307261
3.3188988e-06
-0.00033133498
3.8620001e-06
-0.00033202328
4.4425927e-06
-0.00033279367
5.0583635e-06
-0.00033364727
5.7083195e-06
-0.00033458372
6.3924443e-06
-0.00033560129
7.1116594e-06
-0.00033669686
7.8674382e-06
-0.00033786598
8.6619802e-06
-0.00033910273
9.4978199e-06
-0.00034039962
1.0378353e-05
-0.00034174737
1.1307203e-05
-0.00034313448
1.2289365e-05
-0.00034454688
1.332977e-05
-0.00034596704
1.4435485e-05
-0.00034737338
1.5612433e-05
-0.00034873859
1.6869567e-05
-0.000350029
1.82113e-05
-0.00035120187
1.9646012e-05
-0.00035220529
2.1168886e-05
-0.00035297456
2.278058e-05
-0.00035343481
2.4449259e-05
-0.00035349717
2.6155249e-05
-0.00035306848
2.7805934e-05
-0.00035204758
2.9351211e-05
-0.00035035012
3.0580223e-05
-0.00034789808
3.1437166e-05
-0.00034468198
3.1481311e-05
-0.00034069456
3.0797068e-05
-0.00033616078
2.8423119e-05
-0.00033112072
2.5040984e-05
-0.00032664714
1.8513734e-05
1.0858125e-05
-0.00030949353
1.6217712e-07
-0.00030955131
1.0546192e-07
-0.00030961065
1.1106095e-07
-0.0003096713
8.6882357e-08
-0.00030973406
8.2118881e-08
-0.00030979853
6.9431938e-08
-0.00030986569
6.2722804e-08
-0.00030993541
5.4878618e-08
-0.00031000874
4.8916077e-08
-0.00031008579
4.384474e-08
-0.00031016733
3.9677571e-08
-0.00031025362
3.6978512e-08
-0.00031034534
3.5215906e-08
-0.00031044291
3.5157776e-08
-0.00031054696
3.6397709e-08
-0.00031065803
3.9601453e-08
-0.00031077679
4.4604724e-08
-0.00031090387
5.1962697e-08
-0.00031103997
6.172727e-08
-0.0003111858
7.4397605e-08
-0.00031134211
9.01958e-08
-0.00031150965
1.0961568e-07
-0.00031168919
1.3301127e-07
-0.00031188152
1.6090339e-07
-0.00031208742
1.9374224e-07
-0.00031230788
2.3209198e-07
-0.00031254412
2.7651458e-07
-0.00031279731
3.2762617e-07
-0.00031306857
3.8602301e-07
-0.00031335908
4.5234048e-07
-0.00031367007
5.2720143e-07
-0.00031400306
6.1148603e-07
-0.0003143596
7.058616e-07
-0.00031474112
8.1070966e-07
-0.00031514894
9.265385e-07
-0.00031558404
1.0538153e-06
-0.0003160474
1.1928823e-06
-0.0003165402
1.3439634e-06
-0.00031706366
1.5072324e-06
-0.00031761887
1.6825842e-06
-0.00031820673
1.8697974e-06
-0.00031882798
2.0684005e-06
-0.00031948331
2.2777815e-06
-0.00032017325
2.4971563e-06
-0.00032089821
2.7255772e-06
-0.00032165842
2.9619176e-06
-0.00032245392
3.2048652e-06
-0.00032328462
3.4529343e-06
-0.00032415021
3.7044564e-06
-0.00032505019
3.957601e-06
-0.00032598388
4.2103735e-06
-0.00032695033
4.4606206e-06
-0.00032794836
4.7060279e-06
-0.00032897649
4.9441272e-06
-0.00033003289
5.1722714e-06
-0.00033111533
5.3876487e-06
-0.00033222113
5.5872687e-06
-0.00033334709
5.7679675e-06
-0.00033448941
5.9264187e-06
-0.00033564369
6.0591769e-06
-0.00033680487
6.1627044e-06
-0.00033796721
6.2334753e-06
-0.00033912437
6.2680691e-06
-0.00034026943
6.2633117e-06
-0.00034139503
6.2164371e-06
-0.00034249355
6.1252714e-06
-0.00034355724
5.9884388e-06
-0.00034457849
5.8055336e-06
-0.00034555009
5.5773226e-06
-0.00034646541
5.3058848e-06
-0.00034731871
4.9947138e-06
-0.00034810529
4.6487686e-06
-0.0003488217
4.2744585e-06
-0.00034946584
3.8795444e-06
-0.00035003703
3.4729951e-06
-0.000350536
3.0647748e-06
-0.00035096486
2.6655656e-06
-0.000351327
2.2864809e-06
-0.00035162696
1.9387201e-06
-0.00035187025
1.633234e-06
-0.00035206319
1.3803514e-06
-0.00035221268
1.1894348e-06
-0.00035232596
1.0684821e-06
-0.00035241035
1.0237769e-06
-0.0003524731
1.0594823e-06
-0.00035252124
1.1773643e-06
-0.00035256164
1.3765207e-06
-0.00035260099
1.6535576e-06
-0.00035264583
2.0029547e-06
-0.00035270245
2.4179215e-06
-0.00035277665
2.8911673e-06
-0.00035287357
3.4158162e-06
-0.00035299739
3.9858227e-06
-0.00035315118
4.5963792e-06
-0.00035333669
5.2438714e-06
-0.00035355431
5.9259401e-06
-0.00035380306
6.6411952e-06
-0.00035408058
7.389187e-06
-0.00035438318
8.1700376e-06
-0.00035470578
8.9845752e-06
-0.00035504191
9.8339556e-06
-0.00035538362
1.0720057e-05
-0.00035572132
1.16449e-05
-0.00035604348
1.2611528e-05
-0.00035633643
1.3622727e-05
-0.00035658368
1.4682733e-05
-0.00035676561
1.5794359e-05
-0.0003568583
1.6962255e-05
-0.00035683338
1.8186386e-05
-0.00035665626
1.9468893e-05
-0.00035628685
2.0799472e-05
-0.00035567735
2.2171076e-05
-0.00035477583
2.3547741e-05
-0.00035352397
2.4903393e-05
-0.0003518673
2.6149265e-05
-0.00034975179
2.7235693e-05
-0.00034714845
2.7976883e-05
-0.00034403854
2.8327263e-05
-0.00034047789
2.7920657e-05
-0.00033651759
2.6836771e-05
-0.00033242993
2.4335453e-05
-0.00032832054
2.09316e-05
-0.00032501567
1.5208857e-05
8.42306e-06
-0.00032324226
2.3036298e-07
-0.00032331856
1.8175765e-07
-0.00032339732
1.8981923e-07
-0.00032348026
1.6982215e-07
-0.00032356701
1.6887247e-07
-0.00032365767
1.600944e-07
-0.00032375289
1.5793575e-07
-0.00032385273
1.5472019e-07
-0.00032395801
1.5420177e-07
-0.00032406895
1.5478123e-07
-0.00032418626
1.5698355e-07
-0.00032431027
1.609948e-07
-0.00032444167
1.6660815e-07
-0.0003245809
1.7438852e-07
-0.00032472862
1.8412424e-07
-0.00032488541
1.9638473e-07
-0.00032505192
2.1112322e-07
-0.00032522882
2.2885893e-07
-0.00032541681
2.49718e-07
-0.00032561661
2.7419584e-07
-0.00032582898
3.025644e-07
-0.00032605469
3.3532941e-07
-0.00032629456
3.728813e-07
-0.00032654942
4.1576083e-07
-0.00032682013
4.6445418e-07
-0.00032710765
5.1960724e-07
-0.00032741295
5.8182205e-07
-0.00032773703
6.5170409e-07
-0.00032808086
7.2985532e-07
-0.00032844546
8.1694032e-07
-0.00032883183
9.1356663e-07
-0.00032924075
1.0204033e-06
-0.00032967293
1.138049e-06
-0.00033012923
1.2670041e-06
-0.00033061048
1.4077914e-06
-0.00033111754
1.5608693e-06
-0.00033165117
1.7265172e-06
-0.00033221199
1.9047872e-06
-0.00033280047
2.0957064e-06
-0.00033341697
2.2990832e-06
-0.00033406183
2.5146593e-06
-0.00033473531
2.7418864e-06
-0.00033543761
2.9800805e-06
-0.00033616881
3.2283531e-06
-0.00033692889
3.4856543e-06
-0.00033771772
3.7507547e-06
-0.0003385351
4.0222415e-06
-0.0003393807
4.2985292e-06
-0.00034025408
4.5778426e-06
-0.00034115472
4.858235e-06
-0.00034208192
5.1375759e-06
-0.00034303484
5.413547e-06
-0.00034401244
5.6836278e-06
-0.00034501341
5.9450943e-06
-0.00034603612
6.1949785e-06
-0.00034707855
6.4300786e-06
-0.00034813822
6.6469385e-06
-0.00034921211
6.8418553e-06
-0.00035029659
7.010898e-06
-0.00035138738
7.1499695e-06
-0.00035247953
7.2548547e-06
-0.00035356741
7.3213612e-06
-0.00035464479
7.3454496e-06
-0.0003557049
7.3234179e-06
-0.00035674057
7.2521051e-06
-0.00035774441
7.1291145e-06
-0.00035870903
6.9530525e-06
-0.00035962721
6.7237181e-06
-0.0003604922
6.4423146e-06
-0.0003612979
6.1115813e-06
-0.00036203906
5.7358715e-06
-0.00036271146
5.3211695e-06
-0.00036331203
4.8750279e-06
-0.0003638389
4.4064176e-06
-0.00036429143
3.9255281e-06
-0.00036467016
3.4435061e-06
-0.00036497672
2.9721251e-06
-0.00036521371
2.5234648e-06
-0.00036538451
2.1095271e-06
-0.00036549317
1.7418869e-06
-0.00036554411
1.4312974e-06
-0.00036554204
1.1873624e-06
-0.00036549169
1.0181332e-06
-0.00036539774
9.298281e-07
-0.00036526471
9.264473e-07
-0.00036509689
1.0095494e-06
-0.00036489846
1.1780864e-06
-0.00036467357
1.4286743e-06
-0.00036442653
1.7559129e-06
-0.00036416176
2.1531532e-06
-0.00036388371
2.6131146e-06
-0.00036359661
3.1287169e-06
-0.00036330418
3.6933857e-06
-0.00036300937
4.3015785e-06
-0.00036271429
4.9487878e-06
-0.00036241998
5.6316304e-06
-0.00036212638
6.3475897e-06
-0.00036183225
7.0950641e-06
-0.00036153525
7.873034e-06
-0.00036123183
8.6811579e-06
-0.00036091731
9.5194288e-06
-0.00036058572
1.0388476e-05
-0.00036022985
1.1289024e-05
-0.0003598409
1.2222575e-05
-0.00035940843
1.319026e-05
-0.00035891985
1.4194155e-05
-0.00035836027
1.5234777e-05
-0.00035771166
1.6313647e-05
-0.00035695298
1.7427704e-05
-0.00035605899
1.8574908e-05
-0.00035500138
1.9741863e-05
-0.00035374743
2.091712e-05
-0.00035226367
2.2063987e-05
-0.0003505144
2.315412e-05
-0.00034847086
2.4105721e-05
-0.0003461071
2.4871938e-05
-0.00034342132
2.5291105e-05
-0.00034041719
2.5323126e-05
-0.00033716084
2.4664305e-05
-0.00033370049
2.3376424e-05
-0.0003302606
2.089556e-05
-0.00032692729
1.7598291e-05
-0.0003243124
1.259397e-05
6.6914605e-06
-0.00033058844
3.1001947e-07
-0.00033067897
2.7228415e-07
-0.00033077237
2.8322253e-07
-0.00033087186
2.693035e-07
-0.00033097619
2.7320387e-07
-0.00033108613
2.7004207e-07
-0.00033120205
2.738477e-07
-0.0003313242
2.7687176e-07
-0.0003314532
2.832024e-07
-0.00033158935
2.9093668e-07
-0.00033173334
3.0096658e-07
-0.00033188556
3.1322111e-07
-0.0003320467
3.2774359e-07
-0.00033221725
3.4494444e-07
-0.0003323979
3.6476755e-07
-0.00033258922
3.8770456e-07
-0.0003327919
4.1380353e-07
-0.00033300659
4.4355247e-07
-0.00033323401
4.7713633e-07
-0.00033347486
5.1504508e-07
-0.00033372988
5.575884e-07
-0.00033399983
6.0528013e-07
-0.00033428549
6.585343e-07
-0.00033458763
7.179053e-07
-0.00033490707
7.8388873e-07
-0.00033524455
8.5708718e-07
-0.00033560079
9.38069e-07
-0.00033597655
1.027459e-06
-0.00033637254
1.1258453e-06
-0.00033678947
1.2338717e-06
-0.00033722803
1.3521235e-06
-0.00033768889
1.4812696e-06
-0.0003381727
1.6218596e-06
-0.00033868
1.7743021e-06
-0.00033921123
1.9390195e-06
-0.00033976667
2.1163066e-06
-0.00034034654
2.3063942e-06
-0.00034095108
2.5093204e-06
-0.00034158044
2.7250699e-06
-0.00034223472
2.9533588e-06
-0.00034291388
3.1938281e-06
-0.00034361784
3.4458395e-06
-0.00034434641
3.7086536e-06
-0.00034509937
3.9813161e-06
-0.00034587643
4.2627149e-06
-0.00034667724
4.5515603e-06
-0.00034750138
4.8463808e-06
-0.00034834838
5.1455317e-06
-0.00034921771
5.4471693e-06
-0.00035010874
5.7492635e-06
-0.00035102073
6.049574e-06
-0.00035195282
6.3456351e-06
-0.00035290392
6.6347292e-06
-0.0003538727
6.9138753e-06
-0.0003548575
7.1797754e-06
-0.00035585625
7.4288228e-06
-0.00035686639
7.6570784e-06
-0.00035788481
7.8602848e-06
-0.00035890781
8.0338977e-06
-0.00035993102
8.1731721e-06
-0.0003609494
8.2732349e-06
-0.0003619573
8.3292657e-06
-0.00036294852
8.3366655e-06
-0.00036391638
8.2912818e-06
-0.00036485393
8.1896516e-06
-0.00036575407
8.0292569e-06
-0.00036660981
7.8087882e-06
-0.00036741443
7.5283421e-06
-0.00036816175
7.1896324e-06
-0.00036884627
6.7961047e-06
-0.00036946338
6.352982e-06
-0.00037000946
5.8672439e-06
-0.00037048194
5.347513e-06
-0.00037087938
4.803855e-06
-0.00037120138
4.2475252e-06
-0.00037144853
3.6906639e-06
-0.00037162233
3.1459179e-06
-0.00037172496
2.6260959e-06
-0.00037175918
2.1437497e-06
-0.00037172812
1.7108257e-06
-0.00037163507
1.3382536e-06
-0.00037148336
1.0356507e-06
-0.00037127619
8.109608e-07
-0.00037101657
6.7020354e-07
-0.00037070729
6.17172e-07
-0.00037035113
6.5338646e-07
-0.0003699509
7.7786345e-07
-0.00036950969
9.8746361e-07
-0.00036903091
1.2771312e-06
-0.0003685183
1.6405415e-06
-0.00036797575
2.0705621e-06
-0.0003674072
2.5601679e-06
-0.00036681648
3.1026698e-06
-0.00036620707
3.6921695e-06
-0.00036558178
4.3234994e-06
-0.00036494263
4.9924805e-06
-0.00036429078
5.6957327e-06
-0.00036362643
6.430717e-06
-0.00036294882
7.1954222e-06
-0.00036225616
7.9884978e-06
-0.00036154565
8.8089254e-06
-0.00036081343
9.656247e-06
-0.00036005448
1.0530076e-05
-0.00035926252
1.1430615e-05
-0.00035842989
1.2357629e-05
-0.00035754719
1.331146e-05
-0.00035660326
1.4290842e-05
-0.00035558452
1.5294912e-05
-0.00035447525
1.6318436e-05
-0.00035325674
1.7356396e-05
-0.00035190838
1.83935e-05
-0.00035040672
1.941546e-05
-0.00034872876
2.0386032e-05
-0.0003468506
2.1275952e-05
-0.00034475552
2.2010649e-05
-0.00034242984
2.254625e-05
-0.00033988236
2.2743634e-05
-0.00033712649
2.2567248e-05
-0.00033423294
2.177076e-05
-0.00033125799
2.0401477e-05
-0.00032840369
1.8041261e-05
-0.00032576758
1.4962176e-05
-0.00032377883
1.0605224e-05
5.4932278e-06
-0.00033421661
3.983712e-07
-0.00033431701
3.7268119e-07
-0.00033442057
3.8678591e-07
-0.00033453151
3.8024613e-07
-0.00033464798
3.8967418e-07
-0.00033477116
3.932196e-07
-0.00033490107
4.0376061e-07
-0.00033503824
4.1403876e-07
-0.00033518318
4.2814574e-07
-0.00033533633
4.4408546e-07
-0.00033549831
4.6294725e-07
-0.0003356696
4.845081e-07
-0.00033585084
5.0898373e-07
-0.00033604257
5.3667836e-07
-0.00033624546
5.676522e-07
-0.00033646009
6.0233846e-07
-0.00033668715
6.408566e-07
-0.00033692726
6.8366735e-07
-0.00033718112
7.3099643e-07