/*--------------------------------*- C++ -*----------------------------------*\
| =========                 |                                                 |
| \\      /  F ield         | foam-extend: Open Source CFD                    |
|  \\    /   O peration     | Version:     4.1                                |
|   \\  /    A nd           | Web:         http://www.foam-extend.org         |
|    \\/     M anipulation  |                                                 |
\*---------------------------------------------------------------------------*/
FoamFile
{
    version     2.0;
    format      ascii;
    class       volScalarField;
    location    "1.3";
    object      rAU;
}
// * * * * * * * * * * * * * * * * * * * * * * * * * * * * * * * * * * * * * //

dimensions      [0 0 1 0 0 0 0];

internalField   nonuniform List<scalar> 
16126
(
0.0004953387
0.00049491987
0.00049492001
0.00049492004
0.00049492023
0.00049492049
0.00049492081
0.00049492124
0.00049492171
0.00049492229
0.00049492292
0.00049492365
0.00049492443
0.00049492531
0.00049492625
0.0004949273
0.0004949284
0.00049492961
0.00049493088
0.00049493224
0.00049493367
0.0004949352
0.00049493679
0.00049493846
0.00049494019
0.00049494199
0.00049494383
0.00049494573
0.00049494764
0.00049494959
0.0004949515
0.00049495341
0.00049495527
0.00049495703
0.00049495872
0.00049496025
0.00049496162
0.00049496275
0.00049496363
0.00049496418
0.00049496403
0.00049496321
0.00049496192
0.0004949601
0.00049495771
0.00049495472
0.00049495109
0.00049494678
0.00049494176
0.00049493601
0.00049492951
0.00049492224
0.00049491419
0.00049490536
0.00049489576
0.0004948854
0.00049487431
0.00049486251
0.00049485005
0.00049483699
0.00049482338
0.00049480931
0.00049479485
0.00049478011
0.00049476519
0.00049475021
0.00049473529
0.00049472056
0.00049470616
0.00049469222
0.00049467888
0.00049466625
0.00049465446
0.0004946436
0.00049463375
0.00049462498
0.0004946173
0.00049461072
0.00049460522
0.00049460072
0.00049459712
0.00049459429
0.00049459207
0.00049459024
0.00049458857
0.00049458681
0.00049458468
0.00049458194
0.00049457836
0.00049457377
0.00049456806
0.00049456111
0.00049455283
0.00049454311
0.00049453182
0.00049451879
0.00049450382
0.00049448669
0.00049446714
0.00049444484
0.00049441943
0.00049439046
0.00049435737
0.00049431947
0.00049427584
0.00049422526
0.00049416613
0.00049409622
0.00049401262
0.00049391134
0.00049378731
0.00049363377
0.00049344278
0.00049320413
0.00049290718
0.00049253886
0.00049208822
0.00049154171
0.00049089426
0.00049013442
0.00048928068
0.00048831505
0.00048738608
0.00048591085
0.00049370994
0.00049329415
0.00049329433
0.00049329422
0.00049329441
0.00049329472
0.00049329511
0.0004932957
0.00049329634
0.00049329717
0.00049329805
0.00049329912
0.00049330024
0.00049330154
0.00049330291
0.00049330444
0.00049330604
0.00049330781
0.00049330965
0.00049331163
0.00049331368
0.00049331587
0.0004933181
0.00049332046
0.00049332283
0.00049332529
0.00049332774
0.00049333023
0.00049333265
0.00049333506
0.00049333733
0.00049333949
0.00049334147
0.00049334313
0.00049334448
0.00049334539
0.00049334584
0.00049334521
0.00049334317
0.00049334031
0.00049333632
0.00049333118
0.00049332499
0.00049331762
0.00049330899
0.00049329905
0.00049328771
0.00049327494
0.0004932607
0.00049324495
0.00049322767
0.00049320888
0.00049318857
0.00049316678
0.00049314356
0.00049311897
0.0004930931
0.00049306603
0.00049303791
0.00049300886
0.00049297905
0.00049294866
0.00049291788
0.00049288694
0.00049285605
0.00049282547
0.00049279545
0.00049276625
0.00049273813
0.00049271134
0.00049268612
0.00049266268
0.00049264123
0.00049262191
0.00049260481
0.00049258998
0.00049257742
0.00049256702
0.00049255866
0.00049255208
0.00049254698
0.00049254297
0.00049253957
0.00049253623
0.00049253234
0.00049252727
0.00049252039
0.00049251117
0.00049249914
0.00049248392
0.00049246517
0.00049244254
0.0004924157
0.00049238429
0.00049234791
0.00049230614
0.00049225848
0.00049220442
0.00049214332
0.00049207448
0.0004919971
0.00049191025
0.00049181286
0.00049170368
0.00049158127
0.00049144392
0.00049128971
0.00049111633
0.00049092134
0.0004907018
0.00049045494
0.00049017752
0.00048986735
0.00048952184
0.00048914158
0.00048872663
0.00048828451
0.00048782043
0.0004873569
0.00048690437
0.00048652229
0.00048620626
0.00048615524
0.00048575113
0.00049154511
0.0004911333
0.00049113329
0.00049113286
0.00049113278
0.00049113276
0.00049113282
0.00049113307
0.00049113333
0.00049113379
0.00049113425
0.00049113489
0.00049113555
0.00049113636
0.00049113719
0.00049113816
0.00049113914
0.00049114025
0.00049114136
0.00049114258
0.00049114378
0.00049114506
0.0004911463
0.00049114759
0.0004911488
0.00049115002
0.00049115109
0.00049115211
0.00049115292
0.00049115358
0.00049115392
0.00049115399
0.00049115372
0.00049115295
0.00049115136
0.00049114799
0.00049114395
0.00049113866
0.00049113182
0.00049112379
0.00049111457
0.00049110396
0.00049109194
0.0004910784
0.00049106328
0.00049104652
0.00049102807
0.00049100792
0.00049098602
0.00049096239
0.00049093704
0.00049091
0.00049088133
0.00049085109
0.00049081937
0.00049078629
0.00049075197
0.00049071656
0.00049068025
0.00049064322
0.00049060568
0.00049056787
0.00049053004
0.00049049246
0.00049045541
0.00049041918
0.00049038408
0.0004903504
0.00049031842
0.00049028842
0.00049026063
0.00049023526
0.00049021247
0.00049019234
0.0004901749
0.00049016009
0.00049014777
0.0004901377
0.00049012958
0.00049012295
0.00049011731
0.00049011207
0.00049010655
0.00049010005
0.00049009187
0.00049008134
0.00049006786
0.00049005091
0.00049003003
0.00049000482
0.0004899749
0.00048993988
0.00048989943
0.00048985318
0.00048980076
0.0004897418
0.0004896759
0.00048960266
0.00048952163
0.00048943234
0.00048933429
0.00048922694
0.0004891097
0.00048898196
0.00048884303
0.00048869218
0.0004885287
0.00048835177
0.00048816076
0.00048795497
0.00048773433
0.0004874987
0.00048724963
0.00048698863
0.00048672085
0.00048645095
0.0004861911
0.00048594985
0.00048575253
0.00048560759
0.00048557045
0.00048562419
0.00048592335
0.0004858962
0.00048989489
0.0004894861
0.00048948557
0.00048948508
0.0004894845
0.00048948386
0.00048948328
0.00048948282
0.00048948231
0.00048948195
0.00048948152
0.00048948122
0.00048948085
0.00048948058
0.00048948024
0.00048947998
0.00048947962
0.00048947932
0.00048947891
0.00048947853
0.000489478
0.00048947747
0.00048947677
0.00048947602
0.00048947504
0.00048947397
0.00048947262
0.0004894711
0.00048946924
0.00048946714
0.0004894646
0.00048946047
0.00048945569
0.00048945022
0.00048944382
0.00048943547
0.00048942617
0.00048941567
0.000489404
0.00048939094
0.00048937653
0.00048936057
0.00048934313
0.00048932409
0.00048930343
0.00048928112
0.00048925713
0.00048923149
0.00048920418
0.00048917525
0.00048914474
0.0004891127
0.00048907923
0.00048904442
0.00048900839
0.00048897126
0.0004889332
0.00048889437
0.00048885496
0.0004888152
0.00048877529
0.00048873551
0.0004886961
0.00048865736
0.00048861957
0.00048858304
0.00048854806
0.00048851492
0.00048848388
0.00048845518
0.000488429
0.0004884055
0.00048838475
0.00048836674
0.00048835139
0.00048833854
0.00048832791
0.00048831916
0.00048831186
0.00048830548
0.00048829948
0.00048829324
0.00048828612
0.00048827751
0.00048826682
0.0004882535
0.00048823709
0.00048821717
0.00048819341
0.00048816553
0.00048813331
0.00048809651
0.00048805493
0.00048800837
0.00048795662
0.00048789951
0.00048783684
0.00048776846
0.00048769422
0.00048761396
0.00048752756
0.00048743491
0.0004873359
0.00048723044
0.00048711849
0.00048699997
0.00048687495
0.00048674349
0.00048660595
0.00048646271
0.0004863149
0.00048616373
0.00048601203
0.00048586274
0.00048572202
0.00048559536
0.00048549465
0.00048542716
0.0004854142
0.00048545814
0.00048559975
0.00048581051
0.00048618786
0.00048618962
0.00048875078
0.00048834369
0.00048834244
0.00048834194
0.00048834087
0.00048833988
0.00048833863
0.00048833726
0.00048833579
0.00048833438
0.00048833283
0.00048833133
0.00048832968
0.00048832805
0.00048832626
0.00048832446
0.00048832248
0.00048832046
0.00048831823
0.00048831594
0.00048831341
0.00048831078
0.00048830787
0.00048830482
0.00048830145
0.00048829754
0.00048829276
0.00048828762
0.00048828191
0.00048827578
0.00048826903
0.00048826052
0.00048825111
0.00048824068
0.00048822932
0.00048821679
0.00048820316
0.0004881882
0.00048817202
0.0004881544
0.00048813546
0.00048811502
0.00048809314
0.00048806976
0.00048804488
0.00048801849
0.0004879906
0.00048796126
0.00048793049
0.00048789834
0.00048786487
0.00048783018
0.00048779435
0.0004877575
0.00048771974
0.00048768122
0.00048764209
0.00048760252
0.00048756272
0.0004875229
0.00048748329
0.00048744414
0.00048740572
0.00048736832
0.00048733223
0.00048729772
0.00048726511
0.00048723464
0.00048720654
0.00048718102
0.00048715821
0.00048713819
0.00048712096
0.00048710645
0.00048709448
0.00048708483
0.00048707718
0.00048707113
0.00048706624
0.00048706201
0.00048705793
0.00048705344
0.00048704803
0.00048704117
0.0004870324
0.00048702131
0.00048700757
0.00048699095
0.00048697129
0.00048694847
0.00048692243
0.00048689309
0.00048686039
0.00048682427
0.00048678468
0.00048674157
0.00048669489
0.00048664465
0.00048659085
0.00048653351
0.00048647271
0.00048640852
0.00048634105
0.00048627045
0.00048619691
0.00048612065
0.00048604203
0.00048596142
0.00048587951
0.0004857971
0.00048571559
0.00048563655
0.00048556289
0.00048549746
0.00048544572
0.00048541201
0.00048540573
0.0004854311
0.00048550382
0.00048562165
0.00048581394
0.00048605345
0.00048640386
0.00048636736
0.00048802653
0.00048762008
0.00048761811
0.00048761708
0.00048761534
0.00048761385
0.00048761192
0.00048760984
0.00048760756
0.00048760526
0.00048760273
0.00048760014
0.00048759731
0.00048759438
0.00048759116
0.00048758782
0.00048758416
0.00048758033
0.00048757615
0.00048757175
0.00048756694
0.00048756188
0.00048755637
0.00048755056
0.00048754424
0.00048753721
0.0004875291
0.00048752039
0.00048751086
0.00048750063
0.00048748946
0.00048747743
0.00048746447
0.00048745038
0.00048743529
0.00048741896
0.00048740153
0.0004873828
0.00048736288
0.00048734158
0.00048731904
0.00048729509
0.00048726984
0.00048724324
0.00048721532
0.0004871861
0.0004871556
0.00048712389
0.00048709101
0.00048705702
0.000487022
0.00048698604
0.00048694924
0.00048691171
0.00048687358
0.00048683498
0.00048679607
0.00048675704
0.00048671807
0.00048667939
0.00048664125
0.00048660388
0.00048656759
0.00048653265
0.00048649935
0.00048646798
0.00048643883
0.00048641212
0.00048638807
0.00048636684
0.00048634852
0.00048633313
0.00048632063
0.00048631088
0.00048630367
0.00048629872
0.0004862957
0.00048629418
0.00048629375
0.00048629393
0.00048629423
0.00048629418
0.00048629332
0.00048629126
0.00048628764
0.00048628218
0.00048627469
0.00048626509
0.00048625331
0.00048623938
0.00048622333
0.00048620519
0.00048618499
0.00048616274
0.00048613848
0.0004861122
0.00048608395
0.00048605378
0.00048602174
0.00048598792
0.00048595245
0.00048591547
0.00048587715
0.0004858377
0.00048579737
0.00048575646
0.00048571538
0.00048567458
0.00048563478
0.00048559678
0.00048556193
0.00048553165
0.00048550848
0.00048549476
0.00048549494
0.00048551217
0.00048555368
0.00048562175
0.00048572803
0.00048586848
0.00048606401
0.0004862909
0.00048658901
0.00048649065
0.00048760589
0.00048719947
0.00048719686
0.00048719512
0.00048719258
0.00048719026
0.00048718752
0.00048718477
0.0004871817
0.00048717853
0.00048717504
0.0004871714
0.00048716741
0.00048716323
0.00048715865
0.00048715383
0.00048714857
0.00048714302
0.00048713696
0.00048713055
0.00048712357
0.00048711616
0.00048710811
0.00048709956
0.00048709029
0.00048708043
0.00048706976
0.0004870584
0.00048704614
0.00048703309
0.00048701903
0.00048700405
0.0004869881
0.00048697101
0.00048695292
0.00048693361
0.00048691323
0.00048689156
0.00048686878
0.0004868447
0.00048681949
0.00048679299
0.00048676533
0.00048673648
0.00048670649
0.00048667539
0.00048664323
0.00048661007
0.00048657596
0.00048654098
0.00048650521
0.00048646875
0.00048643168
0.00048639415
0.00048635626
0.00048631817
0.00048628003
0.00048624205
0.00048620441
0.00048616738
0.00048613119
0.00048609613
0.00048606247
0.00048603053
0.00048600061
0.00048597298
0.00048594793
0.00048592568
0.0004859064
0.00048589022
0.0004858772
0.0004858673
0.00048586044
0.00048585643
0.00048585503
0.00048585591
0.0004858587
0.00048586299
0.00048586835
0.0004858743
0.00048588041
0.00048588626
0.00048589144
0.00048589564
0.0004858986
0.00048590011
0.00048590009
0.00048589851
0.00048589541
0.00048589086
0.00048588495
0.00048587775
0.00048586935
0.00048585978
0.00048584911
0.00048583737
0.00048582461
0.00048581088
0.00048579624
0.00048578078
0.0004857646
0.00048574783
0.00048573062
0.00048571315
0.00048569566
0.00048567838
0.00048566169
0.000485646
0.00048563193
0.00048562019
0.00048561194
0.00048560838
0.00048561162
0.00048562351
0.00048564761
0.00048568622
0.000485745
0.00048582524
0.00048593605
0.00048607358
0.0004862535
0.0004864577
0.00048671065
0.00048656451
0.00048738028
0.00048697356
0.00048697043
0.00048696806
0.00048696488
0.00048696185
0.00048695835
0.00048695478
0.00048695084
0.00048694673
0.00048694224
0.00048693754
0.00048693243
0.00048692706
0.00048692124
0.0004869151
0.00048690845
0.00048690144
0.00048689385
0.00048688584
0.00048687719
0.00048686805
0.00048685819
0.00048684776
0.00048683654
0.00048682466
0.00048681191
0.00048679843
0.000486784
0.00048676875
0.00048675246
0.00048673523
0.00048671703
0.00048669768
0.00048667733
0.0004866558
0.00048663323
0.00048660944
0.00048658461
0.00048655856
0.00048653148
0.00048650321
0.00048647392
0.00048644357
0.00048641223
0.00048637993
0.00048634674
0.00048631272
0.00048627793
0.00048624246
0.00048620639
0.00048616983
0.00048613287
0.00048609564
0.00048605829
0.00048602097
0.00048598386
0.00048594716
0.00048591111
0.00048587598
0.00048584202
0.00048580953
0.00048577884
0.00048575024
0.00048572405
0.00048570054
0.00048567999
0.00048566259
0.00048564848
0.00048563777
0.00048563045
0.00048562645
0.00048562564
0.00048562777
0.00048563255
0.00048563963
0.00048564862
0.00048565906
0.00048567054
0.00048568258
0.00048569478
0.00048570674
0.00048571812
0.00048572864
0.00048573809
0.00048574635
0.00048575335
0.00048575911
0.00048576368
0.00048576715
0.00048576964
0.00048577122
0.000485772
0.00048577202
0.00048577134
0.00048577
0.00048576805
0.00048576553
0.00048576248
0.00048575898
0.00048575511
0.00048575097
0.00048574668
0.00048574239
0.00048573831
0.00048573464
0.00048573171
0.00048572989
0.00048572974
0.0004857319
0.00048573738
0.00048574725
0.0004857633
0.00048578713
0.0004858217
0.00048586887
0.00048593326
0.00048601568
0.00048612323
0.00048625234
0.00048641402
0.00048659397
0.00048680622
0.00048661704
0.00048726756
0.0004868604
0.00048685688
0.00048685398
0.00048685028
0.00048684669
0.00048684258
0.00048683837
0.00048683373
0.0004868289
0.00048682363
0.0004868181
0.00048681212
0.00048680582
0.00048679902
0.00048679185
0.00048678412
0.00048677598
0.00048676721
0.00048675796
0.00048674803
0.00048673755
0.00048672631
0.00048671445
0.00048670176
0.00048668839
0.0004866741
0.00048665905
0.00048664302
0.00048662615
0.00048660823
0.00048658937
0.00048656953
0.00048654857
0.00048652664
0.00048650354
0.00048647946
0.0004864542
0.00048642796
0.00048640057
0.00048637222
0.00048634278
0.00048631241
0.00048628108
0.00048624887
0.00048621582
0.000486182
0.00048614748
0.00048611233
0.00048607664
0.0004860405
0.00048600402
0.00048596732
0.00048593055
0.00048589384
0.00048585739
0.0004858214
0.00048578609
0.00048575172
0.00048571858
0.00048568696
0.00048565717
0.00048562955
0.00048560442
0.00048558207
0.00048556278
0.0004855468
0.00048553429
0.00048552539
0.00048552012
0.00048551845
0.00048552026
0.00048552537
0.00048553347
0.00048554426
0.00048555733
0.00048557226
0.00048558861
0.00048560593
0.00048562376
0.00048564171
0.00048565941
0.00048567653
0.00048569282
0.00048570809
0.00048572224
0.00048573522
0.00048574704
0.00048575777
0.00048576749
0.0004857763
0.00048578427
0.0004857915
0.00048579803
0.00048580393
0.00048580923
0.00048581397
0.00048581819
0.00048582193
0.00048582525
0.00048582821
0.0004858309
0.00048583342
0.00048583592
0.00048583855
0.00048584154
0.00048584518
0.00048584983
0.000485856
0.00048586432
0.00048587572
0.00048589116
0.00048591226
0.00048594042
0.00048597817
0.00048602708
0.00048609096
0.00048617042
0.00048627101
0.00048638978
0.00048653441
0.00048669391
0.00048687538
0.0004866534
0.00048721434
0.00048680673
0.00048680293
0.0004867996
0.00048679551
0.00048679148
0.00048678692
0.00048678221
0.00048677705
0.00048677166
0.0004867658
0.00048675964
0.00048675299
0.000486746
0.00048673846
0.00048673052
0.00048672198
0.00048671299
0.00048670334
0.00048669318
0.00048668229
0.00048667083
0.00048665857
0.00048664566
0.0004866319
0.00048661742
0.00048660201
0.00048658583
0.00048656864
0.00048655062
0.00048653154
0.00048651152
0.00048649054
0.00048646844
0.00048644539
0.0004864212
0.00048639606
0.00048636978
0.00048634257
0.00048631425
0.00048628504
0.0004862548
0.00048622369
0.0004861917
0.0004861589
0.00048612535
0.00048609112
0.00048605628
0.00048602092
0.00048598513
0.00048594902
0.0004859127
0.00048587631
0.00048584003
0.000485804
0.00048576844
0.00048573358
0.00048569967
0.00048566699
0.00048563586
0.00048560657
0.00048557947
0.0004855549
0.00048553316
0.00048551456
0.00048549936
0.00048548778
0.00048547996
0.00048547598
0.00048547584
0.00048547946
0.00048548666
0.00048549723
0.00048551083
0.0004855271
0.00048554563
0.00048556597
0.00048558766
0.00048561026
0.0004856333
0.0004856564
0.00048567918
0.00048570134
0.0004857155
0.0004857308
0.00048574775
0.00048576629
0.00048578634
0.00048580783
0.00048582597
0.00048583929
0.00048585166
0.00048586315
0.00048587382
0.00048588373
0.0004858929
0.0004859014
0.00048590926
0.00048591654
0.00048592329
0.00048592958
0.00048593552
0.00048594121
0.00048594681
0.0004859525
0.00048595849
0.0004859651
0.0004859727
0.00048598181
0.00048599304
0.00048600727
0.00048602542
0.00048604895
0.0004860791
0.00048611807
0.00048616716
0.00048622946
0.00048630534
0.00048639891
0.00048650755
0.00048663619
0.00048677627
0.00048693086
0.00048668101
0.00048718993
0.0004867819
0.0004867779
0.00048677423
0.00048676986
0.00048676547
0.00048676057
0.00048675549
0.00048674993
0.00048674411
0.0004867378
0.00048673118
0.00048672403
0.00048671651
0.00048670841
0.0004866999
0.00048669075
0.00048668113
0.00048667082
0.00048665997
0.00048664837
0.00048663617
0.00048662316
0.00048660948
0.00048659493
0.00048657965
0.00048656342
0.0004865464
0.00048652838
0.00048650951
0.00048648959
0.00048646873
0.00048644691
0.00048642399
0.00048640014
0.00048637516
0.00048634926
0.00048632225
0.00048629433
0.00048626534
0.0004862355
0.00048620466
0.000486173
0.00048614052
0.00048610728
0.00048607335
0.00048603879
0.00048600371
0.00048596819
0.00048593233
0.00048589625
0.00048586009
0.000485824
0.00048578818
0.00048575279
0.00048571808
0.00048568429
0.00048565172
0.00048562064
0.00048559141
0.00048556433
0.00048553977
0.00048551805
0.00048549949
0.00048548437
0.00048547295
0.00048546541
0.00048546186
0.00048546234
0.00048546683
0.00048547519
0.00048548723
0.00048550268
0.00048552117
0.00048554233
0.00048556572
0.00048559087
0.00048561731
0.0004856446
0.00048567227
0.00048569994
0.00048572381
0.0004857382
0.00048574726
0.00048576023
0.00048577768
0.0004857995
0.00048582551
0.00048585551
0.00048588451
0.00048591085
0.00048593818
0.00048595254
0.00048596587
0.00048597822
0.00048598965
0.0004860002
0.00048600995
0.00048601895
0.00048602728
0.00048603504
0.00048604233
0.00048604929
0.0004860561
0.00048606293
0.00048607006
0.00048607779
0.00048608652
0.00048609677
0.00048610915
0.00048612448
0.00048614364
0.00048616793
0.00048619847
0.00048623712
0.00048628498
0.00048634454
0.00048641602
0.00048650248
0.00048660168
0.00048671668
0.00048684079
0.00048697441
0.00048670235
0.00048717844
0.00048677005
0.00048676591
0.00048676195
0.00048675736
0.00048675271
0.00048674753
0.00048674216
0.00048673629
0.00048673014
0.00048672348
0.00048671648
0.00048670894
0.00048670101
0.00048669248
0.00048668351
0.00048667389
0.00048666378
0.00048665295
0.00048664157
0.00048662942
0.00048661666
0.00048660306
0.00048658878
0.00048657361
0.00048655771
0.00048654084
0.00048652318
0.00048650451
0.000486485
0.00048646442
0.00048644291
0.00048642045
0.00048639689
0.00048637241
0.00048634682
0.00048632031
0.00048629271
0.00048626423
0.0004862347
0.00048620433
0.00048617301
0.00048614089
0.00048610798
0.00048607434
0.00048604006
0.00048600521
0.0004859699
0.0004859342
0.00048589825
0.00048586218
0.00048582614
0.0004857903
0.00048575487
0.00048572005
0.0004856861
0.00048565329
0.00048562193
0.00048559232
0.00048556482
0.00048553976
0.0004855175
0.00048549837
0.00048548268
0.0004854707
0.00048546266
0.00048545872
0.00048545898
0.00048546343
0.00048547202
0.00048548459
0.0004855009
0.00048552066
0.00048554349
0.00048556898
0.00048559668
0.00048562611
0.0004856568
0.00048568828
0.00048572009
0.00048574859
0.00048575979
0.00048576409
0.00048577294
0.00048578637
0.00048580434
0.00048582672
0.00048585335
0.00048588399
0.00048591835
0.00048595614
0.00048599697
0.00048602668
0.00048605704
0.00048607214
0.00048608495
0.00048609668
0.00048610742
0.00048611727
0.00048612631
0.00048613468
0.00048614251
0.00048614996
0.00048615723
0.00048616454
0.00048617218
0.00048618047
0.00048618983
0.00048620077
0.00048621389
0.00048622997
0.00048624982
0.00048627459
0.00048630525
0.00048634338
0.00048638985
0.00048644659
0.00048651368
0.00048659324
0.00048668331
0.00048678556
0.00048689478
0.00048701011
0.00048671937
0.00048717236
0.00048676367
0.00048675942
0.00048675522
0.00048675046
0.00048674557
0.00048674017
0.00048673455
0.00048672843
0.000486722
0.00048671505
0.00048670775
0.00048669988
0.00048669161
0.00048668273
0.00048667338
0.00048666337
0.00048665284
0.0004866416
0.00048662978
0.00048661717
0.00048660394
0.00048658986
0.00048657509
0.00048655942
0.00048654299
0.00048652561
0.00048650742
0.00048648821
0.00048646815
0.00048644704
0.00048642498
0.00048640198
0.00048637788
0.00048635287
0.00048632675
0.00048629973
0.00048627162
0.00048624263
0.00048621261
0.00048618178
0.00048615
0.00048611744
0.00048608412
0.0004860501
0.00048601547
0.00048598031
0.00048594473
0.00048590883
0.00048587275
0.00048583663
0.00048580064
0.00048576497
0.00048572984
0.00048569549
0.00048566218
0.00048563021
0.00048559989
0.00048557156
0.00048554559
0.0004855223
0.00048550207
0.00048548521
0.00048547204
0.00048546282
0.00048545775
0.00048545698
0.00048546058
0.00048546852
0.00048548073
0.00048549701
0.00048551711
0.00048554072
0.00048556744
0.00048559684
0.00048562845
0.0004856618
0.00048569638
0.00048573173
0.00048576737
0.00048577999
0.00048577974
0.00048578407
0.00048579305
0.0004858067
0.00048582497
0.00048584772
0.00048587478
0.00048590589
0.00048594078
0.00048597913
0.00048602059
0.00048606483
0.00048611149
0.00048614447
0.00048617455
0.00048618706
0.00048619842
0.00048620873
0.00048621811
0.00048622673
0.00048623473
0.0004862423
0.00048624969
0.00048625711
0.00048626488
0.00048627335
0.00048628292
0.00048629411
0.00048630749
0.00048632377
0.00048634372
0.00048636834
0.00048639847
0.00048643543
0.00048647994
0.00048653348
0.00048659605
0.0004866691
0.00048675095
0.00048684234
0.00048693912
0.00048703963
0.00048673341
0.00048716843
0.0004867595
0.00048675516
0.00048675075
0.00048674583
0.00048674074
0.00048673516
0.00048672932
0.00048672297
0.00048671631
0.0004867091
0.00048670153
0.00048669338
0.00048668481
0.00048667561
0.00048666594
0.00048665558
0.0004866447
0.00048663308
0.00048662087
0.00048660787
0.00048659422
0.00048657972
0.00048656452
0.0004865484
0.00048653152
0.00048651367
0.00048649501
0.00048647533
0.00048645479
0.00048643319
0.00048641065
0.00048638716
0.00048636257
0.00048633706
0.00048631046
0.00048628295
0.00048625436
0.0004862249
0.00048619441
0.00048616311
0.00048613088
0.00048609788
0.00048606413
0.00048602971
0.0004859947
0.0004859592
0.00048592331
0.00048588716
0.00048585088
0.00048581465
0.00048577864
0.00048574305
0.00048570813
0.00048567413
0.00048564133
0.00048561004
0.00048558061
0.00048555336
0.00048552868
0.00048550692
0.00048548843
0.00048547355
0.00048546256
0.00048545574
0.00048545326
0.00048545528
0.00048546181
0.00048547285
0.00048548828
0.00048550789
0.00048553142
0.00048555853
0.00048558881
0.00048562183
0.00048565709
0.00048569411
0.00048573237
0.0004857714
0.00048579612
0.00048579247
0.00048579196
0.00048579614
0.00048580511
0.00048581886
0.00048583733
0.00048586039
0.00048588783
0.00048591941
0.00048595482
0.00048599374
0.00048603582
0.0004860807
0.00048612803
0.00048617745
0.00048622663
0.00048625956
0.00048628245
0.00048629306
0.00048630264
0.00048631137
0.00048631943
0.00048632703
0.00048633444
0.0004863419
0.00048634974
0.00048635832
0.00048636805
0.00048637942
0.00048639297
0.00048640937
0.0004864293
0.00048645363
0.00048648309
0.00048651874
0.00048656115
0.00048661142
0.00048666946
0.00048673618
0.00048681011
0.00048689139
0.00048697676
0.0004870643
0.000486745
0.00048716535
0.00048675621
0.00048675179
0.0004867472
0.00048674215
0.00048673687
0.00048673112
0.00048672508
0.00048671853
0.00048671164
0.00048670421
0.00048669639
0.00048668798
0.00048667914
0.00048666965
0.00048665968
0.00048664901
0.0004866378
0.00048662584
0.00048661328
0.00048659991
0.00048658589
0.000486571
0.0004865554
0.00048653887
0.00048652157
0.00048650329
0.0004864842
0.00048646407
0.00048644309
0.00048642103
0.00048639803
0.00048637408
0.00048634903
0.00048632305
0.00048629598
0.000486268
0.00048623893
0.000486209
0.00048617804
0.00048614628
0.00048611358
0.00048608012
0.00048604593
0.00048601107
0.00048597565
0.00048593975
0.00048590351
0.00048586704
0.00048583051
0.00048579409
0.00048575796
0.00048572236
0.00048568754
0.00048565376
0.00048562132
0.00048559056
0.00048556182
0.00048553545
0.00048551185
0.00048549136
0.00048547434
0.00048546113
0.00048545203
0.00048544728
0.00048544707
0.00048545153
0.00048546068
0.00048547449
0.00048549282
0.00048551548
0.00048554217
0.00048557255
0.00048560619
0.00048564265
0.00048568142
0.000485722
0.00048576385
0.00048580203
0.00048580274
0.00048579713
0.00048579623
0.0004858002
0.0004858091
0.00048582292
0.00048584161
0.000485865
0.00048589289
0.00048592501
0.00048596105
0.00048600067
0.00048604349
0.00048608915
0.00048613728
0.0004861875
0.00048623949
0.00048629291
0.00048633749
0.00048637077
0.00048638124
0.00048638998
0.00048639798
0.00048640549
0.00048641278
0.00048642013
0.00048642786
0.00048643634
0.00048644597
0.00048645722
0.00048647062
0.00048648678
0.00048650628
0.0004865299
0.00048655827
0.00048659224
0.00048663225
0.00048667914
0.00048673276
0.00048679364
0.00048686051
0.00048693308
0.00048700873
0.00048708539
0.00048675494
0.00048716264
0.00048675332
0.00048674882
0.00048674406
0.00048673889
0.00048673344
0.00048672753
0.00048672131
0.00048671457
0.00048670748
0.00048669983
0.00048669179
0.00048668314
0.00048667404
0.00048666429
0.00048665403
0.00048664307
0.00048663155
0.00048661927
0.00048660638
0.00048659267
0.00048657829
0.00048656303
0.00048654705
0.00048653013
0.00048651244
0.00048649375
0.00048647424
0.0004864537
0.00048643228
0.00048640979
0.00048638634
0.00048636194
0.00048633643
0.00048631
0.00048628246
0.000486254
0.00048622447
0.00048619405
0.00048616261
0.00048613036
0.00048609718
0.00048606324
0.00048602856
0.00048599324
0.00048595735
0.00048592102
0.00048588437
0.00048584753
0.00048581066
0.00048577397
0.00048573764
0.00048570192
0.00048566708
0.00048563339
0.00048560117
0.00048557077
0.00048554255
0.00048551686
0.00048549411
0.00048547465
0.00048545887
0.00048544708
0.00048543959
0.00048543664
0.00048543842
0.00048544505
0.00048545656
0.00048547289
0.00048549391
0.0004855194
0.00048554908
0.00048558257
0.00048561946
0.00048565926
0.00048570148
0.00048574558
0.00048579102
0.0004858117
0.00048580074
0.00048579446
0.00048579309
0.00048579676
0.00048580556
0.00048581947
0.0004858384
0.00048586219
0.00048589061
0.00048592338
0.00048596017
0.00048600062
0.00048604435
0.00048609094
0.00048614002
0.00048619121
0.00048624414
0.00048629846
0.0004863539
0.00048641015
0.00048644439
0.00048646356
0.00048647145
0.0004864788
0.00048648592
0.00048649309
0.00048650064
0.00048650894
0.0004865184
0.00048652945
0.00048654259
0.00048655836
0.0004865773
0.00048660007
0.00048662719
0.00048665934
0.00048669686
0.00048674033
0.00048678956
0.00048684479
0.00048690493
0.00048696945
0.00048703625
0.00048710334
0.00048676335
0.00048716011
0.00048675064
0.00048674608
0.00048674116
0.00048673587
0.00048673027
0.00048672421
0.00048671782
0.0004867109
0.00048670362
0.00048669577
0.00048668751
0.00048667863
0.0004866693
0.00048665929
0.00048664877
0.00048663753
0.00048662572
0.00048661314
0.00048659993
0.00048658589
0.00048657117
0.00048655556
0.00048653922
0.00048652193
0.00048650386
0.00048648478
0.00048646487
0.00048644392
0.00048642208
0.00048639916
0.00048637528
0.00048635044
0.00048632448
0.00048629759
0.00048626958
0.00048624065
0.00048621063
0.00048617973
0.00048614779
0.00048611504
0.00048608134
0.00048604689
0.0004860117
0.00048597586
0.00048593948
0.00048590265
0.00048586552
0.00048582824
0.00048579097
0.00048575391
0.00048571728
0.00048568133
0.00048564634
0.00048561261
0.00048558046
0.00048555025
0.00048552235
0.00048549715
0.00048547504
0.0004854564
0.00048544161
0.000485431
0.00048542488
0.0004854235
0.00048542704
0.00048543562
0.00048544927
0.00048546793
0.00048549147
0.00048551967
0.00048555222
0.00048558875
0.00048562883
0.00048567197
0.00048571764
0.00048576529
0.00048580979
0.00048580414
0.00048579221
0.00048578516
0.00048578325
0.00048578661
0.00048579531
0.00048580933
0.00048582856
0.00048585284
0.00048588191
0.00048591547
0.00048595317
0.00048599462
0.00048603942
0.00048608713
0.00048613735
0.00048618966
0.0004862437
0.00048629907
0.00048635548
0.00048641261
0.00048647021
0.00048651411
0.00048654077
0.00048654784
0.00048655464
0.00048656146
0.00048656865
0.00048657658
0.00048658563
0.00048659622
0.00048660883
0.00048662393
0.00048664201
0.00048666363
0.00048668923