/*--------------------------------*- C++ -*----------------------------------*\
| =========                 |                                                 |
| \\      /  F ield         | foam-extend: Open Source CFD                    |
|  \\    /   O peration     | Version:     4.1                                |
|   \\  /    A nd           | Web:         http://www.foam-extend.org         |
|    \\/     M anipulation  |                                                 |
\*---------------------------------------------------------------------------*/
FoamFile
{
    version     2.0;
    format      ascii;
    class       volVectorField;
    location    "1.3";
    object      U;
}
// * * * * * * * * * * * * * * * * * * * * * * * * * * * * * * * * * * * * * //

dimensions      [0 1 -1 0 0 0 0];

internalField   nonuniform List<vector> 
16126
(
(0.13494287 -1.4597432e-05 0)
(0.13500426 5.48123e-06 0)
(0.13493308 -4.6034603e-07 0)
(0.13498334 4.193812e-06 0)
(0.13490733 5.228944e-06 0)
(0.13492309 6.1644204e-06 0)
(0.13485035 8.2434926e-06 0)
(0.1348336 8.4071595e-06 0)
(0.13476033 1.0438227e-05 0)
(0.1347168 1.0856139e-05 0)
(0.1346378 1.2716247e-05 0)
(0.13457199 1.3517391e-05 0)
(0.13448309 1.5241832e-05 0)
(0.1343977 1.6339665e-05 0)
(0.13429612 1.7981162e-05 0)
(0.13419257 1.9268299e-05 0)
(0.13407658 2.0853734e-05 0)
(0.13395565 2.2232362e-05 0)
(0.13382435 2.3751636e-05 0)
(0.13368666 2.5129636e-05 0)
(0.13353989 2.6545329e-05 0)
(0.13338629 2.7848209e-05 0)
(0.1332247 2.9142184e-05 0)
(0.13305658 3.0384597e-05 0)
(0.13288174 3.167609e-05 0)
(0.13270144 3.3100156e-05 0)
(0.13251626 3.475757e-05 0)
(0.13232767 3.6608938e-05 0)
(0.13213682 3.8635188e-05 0)
(0.13194554 4.0555302e-05 0)
(0.13175565 4.2059066e-05 0)
(0.13156949 4.195792e-05 0)
(0.13138972 3.9794567e-05 0)
(0.1312189 3.6271522e-05 0)
(0.13105907 3.241726e-05 0)
(0.13091395 3.1417806e-05 0)
(0.13078983 3.5473457e-05 0)
(0.13069018 4.3253808e-05 0)
(0.13061794 4.6802051e-05 0)
(0.13057909 4.065452e-05 0)
(0.13058647 2.9832249e-05 0)
(0.13064302 2.1659788e-05 0)
(0.13074597 1.631871e-05 0)
(0.13089921 1.0785614e-05 0)
(0.13110627 5.0000709e-06 0)
(0.13137119 -1.3276396e-06 0)
(0.13169774 -8.1633615e-06 0)
(0.13208949 -1.5525117e-05 0)
(0.13254965 -2.338665e-05 0)
(0.13308104 -3.1727263e-05 0)
(0.13368601 -4.0513022e-05 0)
(0.13436635 -4.9705521e-05 0)
(0.13512328 -5.9256911e-05 0)
(0.13595732 -6.911075e-05 0)
(0.13686827 -7.9199442e-05 0)
(0.13785515 -8.9444265e-05 0)
(0.13891611 -9.9752605e-05 0)
(0.1400484 -0.00011001753 0)
(0.1412483 -0.00012011712 0)
(0.14251108 -0.00012991369 0)
(0.14383097 -0.00013925477 0)
(0.14520111 -0.00014797567 0)
(0.14661354 -0.00015590149 0)
(0.14805922 -0.00016285244 0)
(0.14952807 -0.00016864898 0)
(0.15100901 -0.00017311979 0)
(0.15249011 -0.00017610847 0)
(0.15395875 -0.00017748265 0)
(0.15540178 -0.0001771427 0)
(0.15680586 -0.00017502894 0)
(0.15815771 -0.00017112817 0)
(0.15944452 -0.00016547936 0)
(0.16065431 -0.000158175 0)
(0.1617764 -0.00014936267 0)
(0.16280176 -0.00013924388 0)
(0.16372352 -0.00012807236 0)
(0.16453727 -0.00011615341 0)
(0.16524144 -0.00010384653 0)
(0.16583754 -9.1570469e-05 0)
(0.16633042 -7.9804631e-05 0)
(0.16672825 -6.9080399e-05 0)
(0.16704264 -5.9926749e-05 0)
(0.16728854 -5.2758367e-05 0)
(0.16748441 -4.7606982e-05 0)
(0.16765214 -4.3611442e-05 0)
(0.16781652 -3.9083159e-05 0)
(0.16800355 -3.3460723e-05 0)
(0.16823987 -2.7979667e-05 0)
(0.16854936 -2.3582212e-05 0)
(0.16895111 -1.9855607e-05 0)
(0.16945921 -1.5558516e-05 0)
(0.17008431 -9.6542152e-06 0)
(0.17083586 -1.7627271e-06 0)
(0.17172375 7.9012084e-06 0)
(0.17276015 1.8959002e-05 0)
(0.17395943 3.1076785e-05 0)
(0.17533969 4.4237125e-05 0)
(0.17692125 5.858379e-05 0)
(0.17872951 7.4621566e-05 0)
(0.18079172 9.2726624e-05 0)
(0.18314335 0.00011351297 0)
(0.18582161 0.00013674605 0)
(0.18887937 0.00016205957 0)
(0.19237166 0.00018651661 0)
(0.19638571 0.00020611877 0)
(0.20101143 0.00021047466 0)
(0.20640558 0.00018639848 0)
(0.21272521 0.00010679196 0)
(0.22026308 -5.9944764e-05 0)
(0.22929341 -0.00037218044 0)
(0.24035594 -0.0008900186 0)
(0.25389289 -0.0017193928 0)
(0.27084871 -0.0029486202 0)
(0.29181454 -0.0047390369 0)
(0.31832832 -0.0071755601 0)
(0.35087089 -0.010467568 0)
(0.39181644 -0.014612061 0)
(0.44070566 -0.019873801 0)
(0.5013642 -0.025972029 0)
(0.57015602 -0.033383956 0)
(0.65489676 -0.04070296 0)
(0.74101147 -0.049854838 0)
(0.85366516 -0.051318798 0)
(0.92415148 -0.062804112 0)
(0.38898935 -4.0720956e-05 0)
(0.38905091 1.3786646e-05 0)
(0.38899396 3.6088562e-06 0)
(0.38902588 2.17565e-05 0)
(0.38895342 2.8052823e-05 0)
(0.38894326 3.7247036e-05 0)
(0.38886045 4.7466695e-05 0)
(0.38881236 5.482993e-05 0)
(0.38871621 6.5331043e-05 0)
(0.38863523 7.2754277e-05 0)
(0.38852192 8.2842508e-05 0)
(0.38841171 9.0818808e-05 0)
(0.38827839 0.00010060461 0)
(0.38814127 0.00010914347 0)
(0.38798627 0.0001187985 0)
(0.38782379 0.00012775899 0)
(0.3876465 0.00013735024 0)
(0.3874601 0.00014652929 0)
(0.38726102 0.00015599003 0)
(0.38705261 0.00016512036 0)
(0.38683348 0.00017423759 0)
(0.38660601 0.00018294277 0)
(0.38637023 0.00019131041 0)
(0.38612828 0.0001989883 0)
(0.38588133 0.00020585125 0)
(0.38563179 0.0002113938 0)
(0.38538178 0.00021527941 0)
(0.38513433 0.00021723173 0)
(0.38489251 0.00021698191 0)
(0.38466022 0.0002143977 0)
(0.38444143 0.00020939996 0)
(0.38424131 0.00020269621 0)
(0.38406704 0.00019465822 0)
(0.38392617 0.0001849623 0)
(0.38382674 0.00017190276 0)
(0.38377745 0.00014920335 0)
(0.38378775 0.00011457964 0)
(0.38387125 7.1789818e-05 0)
(0.38403762 2.7288187e-05 0)
(0.38428133 -1.9757285e-05 0)
(0.38460431 -7.2519354e-05 0)
(0.38501547 -0.00012819883 0)
(0.38552839 -0.00018750884 0)
(0.3861508 -0.000251582 0)
(0.38689073 -0.00032047805 0)
(0.38775524 -0.00039405838 0)
(0.38875093 -0.00047203712 0)
(0.38988363 -0.00055402713 0)
(0.3911583 -0.00063955371 0)
(0.39257885 -0.00072805695 0)
(0.39414806 -0.00081889218 0)
(0.39586742 -0.00091133476 0)
(0.39773703 -0.0010045808 0)
(0.39975547 -0.001097751 0)
(0.40191974 -0.001189893 0)
(0.40422515 -0.0012799864 0)
(0.40666526 -0.0013669455 0)
(0.40923182 -0.0014496249 0)
(0.41191472 -0.0015268267 0)
(0.41470197 -0.0015973081 0)
(0.41757964 -0.0016597942 0)
(0.42053192 -0.0017129957 0)
(0.42354108 -0.0017556289 0)
(0.4265876 -0.0017864461 0)
(0.42965024 -0.0018042706 0)
(0.43270623 -0.001808042 0)
(0.43573149 -0.0017968659 0)
(0.43870102 -0.0017700728 0)
(0.44158928 -0.0017272798 0)
(0.44437074 -0.0016684526 0)
(0.44702054 -0.0015939633 0)
(0.44951518 -0.0015046425 0)
(0.45183335 -0.0014018123 0)
(0.45395675 -0.0012873071 0)
(0.45587095 -0.0011634685 0)
(0.45756627 -0.00103312 0)
(0.45903846 -0.00089951246 0)
(0.46028951 -0.00076624984 0)
(0.46132812 -0.00063718222 0)
(0.46217032 -0.00051628823 0)
(0.46283974 -0.00040756475 0)
(0.46336805 -0.00031501239 0)
(0.46379505 -0.00024280353 0)
(0.4641686 -0.00019558171 0)
(0.46454373 -0.00017844208 0)
(0.46498099 -0.00019583446 0)
(0.46554269 -0.00024951688 0)
(0.46628749 -0.00033682894 0)
(0.4672674 -0.00045179124 0)
(0.46852817 -0.00058829474 0)
(0.4701106 -0.00074194086 0)
(0.47205174 -0.0009106525 0)
(0.47438652 -0.0010943286 0)
(0.47714911 -0.0012945348 0)
(0.48037505 -0.0015139228 0)
(0.48410237 -0.0017560695 0)
(0.48837376 -0.0020250508 0)
(0.49323671 -0.0023257501 0)
(0.49874616 -0.0026635407 0)
(0.50496315 -0.0030452262 0)
(0.51195939 -0.0034785653 0)
(0.51981343 -0.0039742814 0)
(0.52861929 -0.0045449548 0)
(0.53847742 -0.0052090575 0)
(0.54951142 -0.0059881494 0)
(0.561847 -0.0069148572 0)
(0.57564527 -0.008025734 0)
(0.59105456 -0.0093768299 0)
(0.60827868 -0.011025708 0)
(0.62746877 -0.013061688 0)
(0.64886806 -0.015561822 0)
(0.67257199 -0.018651116 0)
(0.69884662 -0.022399528 0)
(0.72759538 -0.026949896 0)
(0.7590855 -0.03228697 0)
(0.79273576 -0.038533247 0)
(0.82884504 -0.045430146 0)
(0.86570554 -0.053082678 0)
(0.90395332 -0.060666865 0)
(0.93920752 -0.068574017 0)
(0.97381584 -0.074245846 0)
(0.99685921 -0.08042978 0)
(1.0165882 -0.074782057 0)
(1.0120294 -0.080173633 0)
(0.60473448 -6.9967547e-05 0)
(0.60481318 1.5405852e-05 0)
(0.60477688 5.337381e-06 0)
(0.60481533 3.9924961e-05 0)
(0.60477006 5.3333102e-05 0)
(0.60477169 7.3293037e-05 0)
(0.60471727 9.1219676e-05 0)
(0.60468649 0.0001072587 0)
(0.60461953 0.0001258611 0)
(0.60456195 0.00014159091 0)
(0.60448042 0.00015998205 0)
(0.60440012 0.00017619191 0)
(0.6043031 0.00019425496 0)
(0.60420313 0.00021088656 0)
(0.60409093 0.00022856467 0)
(0.60397417 0.00024525016 0)
(0.60384839 0.00026230382 0)
(0.60371816 0.00027846853 0)
(0.60358181 0.00029438445 0)
(0.6034425 0.00030922115 0)
(0.60330029 0.00032316359 0)
(0.60315789 0.00033558351 0)
(0.60301661 0.00034637668 0)
(0.60287933 0.00035501125 0)
(0.60274837 0.00036121374 0)
(0.60262721 0.0003645797 0)
(0.60251965 0.00036476116 0)
(0.60243034 0.00036114145 0)
(0.60236427 0.00035314599 0)
(0.6023273 0.00033982663 0)
(0.60232611 0.00032021507 0)
(0.60236793 0.00029070964 0)
(0.6024601 0.00024901148 0)
(0.60261194 0.0001953826 0)
(0.60283336 0.0001297448 0)
(0.60313222 5.5165566e-05 0)
(0.60350342 -2.8901406e-05 0)
(0.60395038 -0.00012392658 0)
(0.60447976 -0.00022617714 0)
(0.60510989 -0.0003366144 0)
(0.60584786 -0.00045897386 0)
(0.60670426 -0.00059350646 0)
(0.60768899 -0.00073930088 0)
(0.60881038 -0.00089576531 0)
(0.61007591 -0.001062504 0)
(0.61149238 -0.0012388692 0)
(0.61306571 -0.001423995 0)
(0.61480084 -0.001616804 0)
(0.61670152 -0.0018160122 0)
(0.61877025 -0.0020201488 0)
(0.62100805 -0.0022275592 0)
(0.62341443 -0.0024364229 0)
(0.62598726 -0.0026447632 0)
(0.62872266 -0.0028504622 0)
(0.63161496 -0.0030512736 0)
(0.63465663 -0.0032448387 0)
(0.63783821 -0.0034286974 0)
(0.64114829 -0.0036003041 0)
(0.64457346 -0.0037570431 0)
(0.64809829 -0.0038962468 0)
(0.65170532 -0.0040152207 0)
(0.65537509 -0.0041112774 0)
(0.65908613 -0.0041817803 0)
(0.6628151 -0.004224205 0)
(0.66653693 -0.0042362165 0)
(0.67022502 -0.0042157675 0)
(0.67385164 -0.0041612121 0)
(0.67738829 -0.0040714392 0)
(0.68080634 -0.0039460133 0)
(0.6840777 -0.0037853181 0)
(0.68717562 -0.0035906885 0)
(0.69007561 -0.0033645274 0)
(0.69275645 -0.0031103813 0)
(0.69520117 -0.002832984 0)
(0.69739809 -0.0025382453 0)
(0.69934185 -0.0022332015 0)
(0.70103425 -0.0019259162 0)
(0.7024851 -0.0016253674 0)
(0.70371284 -0.0013413108 0)
(0.70474489 -0.0010841627 0)
(0.70561773 -0.00086486427 0)
(0.70637643 -0.00069468454 0)
(0.70707351 -0.0005847855 0)
(0.70776714 -0.00054529957 0)
(0.70851862 -0.00058375472 0)
(0.70938994 -0.00070332969 0)
(0.71044207 -0.00090226329 0)
(0.71173428 -0.0011749861 0)
(0.7133241 -0.0015138449 0)
(0.71526592 -0.0019109329 0)
(0.71760964 -0.0023592169 0)
(0.72039996 -0.0028537588 0)
(0.7236768 -0.0033922725 0)
(0.72747614 -0.0039753532 0)
(0.73183155 -0.0046059531 0)
(0.73677511 -0.0052890837 0)
(0.74233896 -0.0060311119 0)
(0.74855539 -0.0068398444 0)
(0.75545837 -0.0077239722 0)
(0.76308231 -0.0086939009 0)
(0.77146414 -0.0097610613 0)
(0.78064006 -0.010939814 0)
(0.79064948 -0.012246004 0)
(0.8015277 -0.013700757 0)
(0.81331418 -0.015327007 0)
(0.82603675 -0.017156949 0)
(0.83972913 -0.019223685 0)
(0.85439702 -0.021575908 0)
(0.87005623 -0.024258054 0)
(0.88665972 -0.02733944 0)
(0.90418313 -0.030867789 0)
(0.92246729 -0.034928631 0)
(0.94141646 -0.039538645 0)
(0.96065251 -0.044774232 0)
(0.97998932 -0.050530478 0)
(0.99864388 -0.056824679 0)
(1.0164083 -0.063237929 0)
(1.0317461 -0.069706505 0)
(1.0447941 -0.075073656 0)
(1.0524989 -0.07944919 0)
(1.0565126 -0.079608743 0)
(1.0507176 -0.077543568 0)
(1.0403371 -0.062597901 0)
(1.0190165 -0.047411598 0)
(0.77045342 -0.00010977529 0)
(0.77058004 -1.2276042e-07 0)
(0.77057597 -9.2821431e-06 0)
(0.77065432 3.5475987e-05 0)
(0.77065771 5.0250671e-05 0)
(0.77070839 7.7825219e-05 0)
(0.77071448 0.0001005596 0)
(0.77074535 0.00012324989 0)
(0.77075038 0.00014658758 0)
(0.77076755 0.00016752503 0)
(0.77077002 0.00019006094 0)
(0.77077852 0.00021041401 0)
(0.77077927 0.00023188613 0)
(0.77078372 0.00025163635 0)
(0.77078525 0.00027175581 0)
(0.77079052 0.00029035695 0)
(0.77079686 0.00030855899 0)
(0.77080861 0.00032510825 0)
(0.77082542 0.00034045579 0)
(0.7708507 0.00035368944 0)
(0.77088559 0.00036480957 0)
(0.77093335 0.00037303642 0)
(0.77099628 0.0003780399 0)
(0.77107797 0.00037898905 0)
(0.77118178 0.0003752561 0)
(0.77131192 0.00036542021 0)
(0.77147248 0.00034816296 0)
(0.7716685 0.0003224892 0)
(0.7719054 0.00028721301 0)
(0.7721895 0.00024117782 0)
(0.77252616 0.00018296954 0)
(0.77292346 0.00011338462 0)
(0.7733789 3.1961531e-05 0)
(0.77389619 -6.3647569e-05 0)
(0.77447785 -0.00017341653 0)
(0.77512855 -0.00029507321 0)
(0.77586315 -0.00042889911 0)
(0.776688 -0.00057837252 0)
(0.77761302 -0.00074602022 0)
(0.77864847 -0.0009323223 0)
(0.77980197 -0.0011360639 0)
(0.78107996 -0.0013564672 0)
(0.78248918 -0.001592767 0)
(0.78403603 -0.0018443792 0)
(0.78572623 -0.002110382 0)
(0.78756463 -0.0023895744 0)
(0.78955517 -0.0026804229 0)
(0.7917008 -0.0029811012 0)
(0.79400334 -0.0032894943 0)
(0.79646339 -0.0036032238 0)
(0.79908029 -0.0039196618 0)
(0.80185195 -0.0042359562 0)
(0.80477488 -0.0045490498 0)
(0.80784405 -0.0048557029 0)
(0.81105286 -0.0051525124 0)
(0.81439309 -0.0054359308 0)
(0.8178548 -0.005702282 0)
(0.82142629 -0.0059477783 0)
(0.82509404 -0.0061685391 0)
(0.82884259 -0.0063606154 0)
(0.83265459 -0.0065200259 0)
(0.83651069 -0.0066428098 0)
(0.84038964 -0.0067250996 0)
(0.84426833 -0.0067632249 0)
(0.84812201 -0.0067538429 0)
(0.85192458 -0.0066941054 0)
(0.85564898 -0.0065818497 0)
(0.85926775 -0.0064158172 0)
(0.8627537 -0.0061958793 0)
(0.86608069 -0.0059232642 0)
(0.86922455 -0.0056007563 0)
(0.872164 -0.0052328671 0)
(0.87488166 -0.0048259401 0)
(0.87736501 -0.004388202 0)
(0.87960726 -0.0039297283 0)
(0.88160811 -0.0034623492 0)
(0.88337434 -0.0029994554 0)
(0.88492012 -0.0025557442 0)
(0.88626701 -0.0021468251 0)
(0.88744367 -0.0017887252 0)
(0.88848512 -0.0014972022 0)
(0.88943168 -0.0012869975 0)
(0.8903276 -0.001171053 0)
(0.89121973 -0.0011599439 0)
(0.89215625 -0.0012613761 0)
(0.89318616 -0.0014795575 0)
(0.89435912 -0.001814348 0)
(0.89572466 -0.0022607176 0)
(0.89733084 -0.0028094106 0)
(0.89922247 -0.0034492611 0)
(0.90143996 -0.0041694216 0)
(0.90401867 -0.0049611784 0)
(0.90698874 -0.0058186301 0)
(0.91037507 -0.0067390992 0)
(0.9141978 -0.0077226964 0)
(0.9184726 -0.008772041 0)
(0.92321158 -0.0098914804 0)
(0.92842326 -0.011087048 0)
(0.93411355 -0.012365774 0)
(0.94028477 -0.013736259 0)
(0.9469369 -0.015207943 0)
(0.95406502 -0.016792701 0)
(0.9616616 -0.018503482 0)
(0.96971096 -0.020357609 0)
(0.97819431 -0.022373581 0)
(0.98707801 -0.024577437 0)
(0.99632487 -0.026994977 0)
(1.0058693 -0.029663959 0)
(1.0156432 -0.032615449 0)
(1.0255225 -0.035897676 0)
(1.0353881 -0.039532662 0)
(1.0450114 -0.043565656 0)
(1.0541998 -0.047967477 0)
(1.0625471 -0.052746755 0)
(1.0697921 -0.057732801 0)
(1.0752474 -0.06285542 0)
(1.0786989 -0.067640467 0)
(1.0790291 -0.071967764 0)
(1.0764782 -0.074741353 0)
(1.0692654 -0.076153975 0)
(1.0590342 -0.073514588 0)
(1.0434569 -0.068861491 0)
(1.0261502 -0.054157896 0)
(1.0099676 -0.037796482 0)
(0.88595613 -0.00017424268 0)
(0.88616047 -4.9519463e-05 0)
(0.88620764 -5.7042229e-05 0)
(0.88635966 -5.0043956e-06 0)
(0.8864319 1.0206976e-05 0)
(0.88655877 4.0770701e-05 0)
(0.88664872 6.2525712e-05 0)
(0.88677004 8.5942112e-05 0)
(0.88687491 0.00010864601 0)
(0.88699862 0.00012965275 0)
(0.88711725 0.00015115965 0)
(0.8872496 0.00017040199 0)
(0.88738411 0.00018975364 0)
(0.8875312 0.00020684453 0)
(0.88768578 0.00022324338 0)
(0.88785413 0.00023722779 0)
(0.88803464 0.00024957082 0)
(0.88823164 0.00025900361 0)
(0.88844554 0.00026569113 0)
(0.88867992 0.00026858586 0)
(0.88893646 0.00026740108 0)
(0.88921862 0.00026113659 0)
(0.88952902 0.00024915515 0)
(0.88987137 0.00023042889 0)
(0.89024886 0.00020403658 0)
(0.89066571 0.00016924871 0)
(0.89112414 0.00012527875 0)
(0.89162689 7.0671379e-05 0)
(0.89217684 4.0988563e-06 0)
(0.89277667 -7.55687e-05 0)
(0.89342986 -0.00016963938 0)
(0.89413756 -0.00027731761 0)
(0.89491021 -0.0003989504 0)
(0.89575233 -0.00053692654 0)
(0.8966699 -0.00069288427 0)
(0.89766944 -0.00087035787 0)
(0.89875891 -0.0010702319 0)
(0.89994473 -0.0012913642 0)
(0.90123199 -0.0015332268 0)
(0.90262525 -0.0017957945 0)
(0.90412939 -0.0020796868 0)
(0.90574936 -0.0023845143 0)
(0.90748982 -0.0027093059 0)
(0.90935489 -0.0030528278 0)
(0.91134795 -0.0034136292 0)
(0.91347173 -0.0037899065 0)
(0.91572818 -0.0041795148 0)
(0.91811845 -0.004579958 0)
(0.92064282 -0.0049884063 0)
(0.92330069 -0.0054017179 0)
(0.92609047 -0.0058164586 0)
(0.92900956 -0.0062289289 0)
(0.93205427 -0.006635183 0)
(0.9352198 -0.0070310501 0)
(0.93850007 -0.0074121485 0)
(0.94188769 -0.007773899 0)
(0.94537381 -0.0081115343 0)
(0.948948 -0.0084201123 0)
(0.95259814 -0.0086945349 0)
(0.95631025 -0.0089295809 0)
(0.96006843 -0.0091199599 0)
(0.96385481 -0.0092603971 0)
(0.96764955 -0.0093457518 0)
(0.97143097 -0.0093711824 0)
(0.9751758 -0.0093323513 0)
(0.97885947 -0.0092256772 0)
(0.98245666 -0.009048616 0)
(0.98594188 -0.0087999688 0)
(0.98929022 -0.0084801871 0)
(0.99247814 -0.0080916644 0)
(0.99548433 -0.0076389733 0)
(0.99829056 -0.0071290469 0)
(1.0008825 -0.0065712532 0)
(1.0032504 -0.0059773805 0)
(1.0053897 -0.0053614842 0)
(1.0073012 -0.004739636 0)
(1.0089914 -0.0041295246 0)
(1.0104723 -0.0035499897 0)
(1.0117611 -0.0030204332 0)
(1.0128796 -0.0025602324 0)
(1.0138535 -0.0021880925 0)
(1.0147121 -0.0019214379 0)
(1.0154873 -0.0017757214 0)
(1.0162133 -0.0017636349 0)
(1.0169255 -0.0018940805 0)
(1.0176594 -0.0021712185 0)
(1.0184499 -0.0025936782 0)
(1.0193306 -0.0031548972 0)
(1.0203336 -0.003844084 0)
(1.0214894 -0.0046482343 0)
(1.0228258 -0.0055539762 0)
(1.0243675 -0.0065495267 0)
(1.0261345 -0.0076256396 0)
(1.0281425 -0.0087762234 0)
(1.0304021 -0.0099980786 0)
(1.0329189 -0.011290787 0)
(1.0356944 -0.012655983 0)
(1.0387249 -0.01409719 0)
(1.0420033 -0.015619057 0)
(1.0455175 -0.017227748 0)
(1.0492519 -0.018930126 0)
(1.0531853 -0.02073497 0)
(1.0572928 -0.02265161 0)
(1.0615412 -0.0246925 0)
(1.0658932 -0.026870162 0)
(1.0702978 -0.029202165 0)
(1.0746989 -0.031703929 0)
(1.0790163 -0.034398404 0)
(1.0831649 -0.037299324 0)
(1.087015 -0.040430712 0)
(1.0904401 -0.043788827 0)
(1.0932316 -0.04738418 0)
(1.0952172 -0.051156633 0)
(1.0960739 -0.055074185 0)
(1.0956214 -0.058942498 0)
(1.0933886 -0.062657275 0)
(1.0893336 -0.065752297 0)
(1.0827982 -0.068090955 0)
(1.0742298 -0.068667255 0)
(1.0627081 -0.067634105 0)
(1.0497148 -0.062752106 0)
(1.0343258 -0.055610593 0)
(1.0187135 -0.04107258 0)
(1.0063652 -0.024413991 0)
(0.95927424 -0.00027124389 0)
(0.95956439 -0.00014756676 0)
(0.95966893 -0.00015671398 0)
(0.95990702 -0.00010347014 0)
(0.96006249 -9.0276715e-05 0)
(0.96028387 -6.1326852e-05 0)
(0.96047082 -4.4105005e-05 0)
(0.96069418 -2.4451384e-05 0)
(0.96090736 -7.534671e-06 0)
(0.96114583 7.7864008e-06 0)
(0.96138721 2.2066043e-05 0)
(0.96164984 3.3654586e-05 0)
(0.96192333 4.400918e-05 0)
(0.96221774 5.1303358e-05 0)
(0.96252877 5.6586794e-05 0)
(0.96286246 5.8372655e-05 0)
(0.96321769 5.7122219e-05 0)
(0.96359858 5.164146e-05 0)
(0.96400571 4.1892513e-05 0)
(0.96444233 2.6825282e-05 0)
(0.96490994 6.014808e-06 0)
(0.96541139 -2.1566946e-05 0)
(0.96594871 -5.6644186e-05 0)
(0.96652451 -0.00010025982 0)
(0.9671412 -0.00015336316 0)
(0.96780109 -0.00021666746 0)
(0.96850803 -0.00029091002 0)
(0.96926578 -0.00037746729 0)
(0.97007778 -0.00047757128 0)
(0.97094765 -0.00059258095 0)
(0.97187893 -0.00072372648 0)
(0.97287579 -0.00087395942 0)
(0.97394344 -0.0010451028 0)
(0.97508634 -0.0012371766 0)
(0.97630893 -0.0014509666 0)
(0.9776148 -0.0016866105 0)
(0.97900654 -0.0019447816 0)
(0.98048764 -0.0022266567 0)
(0.98206192 -0.0025331293 0)
(0.98373309 -0.0028642478 0)
(0.98550423 -0.0032193278 0)
(0.98737779 -0.0035974586 0)
(0.98935601 -0.0039973768 0)
(0.99144082 -0.004417625 0)
(0.99363368 -0.0048563685 0)
(0.99593558 -0.0053114256 0)
(0.99834695 -0.0057802235 0)
(1.0008677 -0.0062598255 0)
(1.0034973 -0.0067469356 0)
(1.0062344 -0.0072379237 0)
(1.0090772 -0.0077288391 0)
(1.0120232 -0.0082154297 0)
(1.0150692 -0.0086931499 0)
(1.018211 -0.009157168 0)
(1.0214436 -0.0096023648 0)
(1.0247607 -0.010023332 0)
(1.0281547 -0.010414368 0)
(1.0316167 -0.010769489 0)
(1.0351357 -0.011082447 0)
(1.0386991 -0.011346779 0)
(1.0422922 -0.011555897 0)
(1.0458984 -0.01170321 0)
(1.0494987 -0.011782316 0)
(1.0530727 -0.011787234 0)
(1.0565981 -0.011712702 0)
(1.0600515 -0.011554511 0)
(1.0634089 -0.011309875 0)
(1.0666463 -0.010977805 0)
(1.0697406 -0.01055947 0)
(1.0726702 -0.010058505 0)
(1.0754156 -0.0094812442 0)
(1.0779606 -0.0088368551 0)
(1.0802924 -0.0081373386 0)
(1.0824024 -0.0073974154 0)
(1.0842861 -0.0066342502 0)
(1.0859437 -0.0058670869 0)
(1.0873797 -0.0051167308 0)
(1.0886027 -0.0044049979 0)
(1.089625 -0.0037540309 0)
(1.0904624 -0.0031856449 0)
(1.0911334 -0.0027205329 0)
(1.0916586 -0.0023775776 0)
(1.0920602 -0.0021729974 0)
(1.092361 -0.002119693 0)
(1.0925835 -0.0022264239 0)
(1.09275 -0.0024970488 0)
(1.092882 -0.0029300221 0)
(1.0930004 -0.0035184813 0)
(1.0931259 -0.0042510448 0)
(1.0932784 -0.0051137158 0)
(1.0934769 -0.0060916882 0)
(1.0937385 -0.0071711919 0)
(1.0940778 -0.008340317 0)
(1.0945062 -0.0095899761 0)
(1.0950313 -0.010913821 0)
(1.0956564 -0.012308181 0)
(1.0963806 -0.013771379 0)
(1.0971986 -0.015303684 0)
(1.0981013 -0.016906592 0)
(1.0990747 -0.018583037 0)
(1.1001015 -0.020336657 0)
(1.1011587 -0.022172729 0)
(1.1022202 -0.024096938 0)
(1.1032524 -0.026117422 0)
(1.1042179 -0.028242095 0)
(1.1050684 -0.030482549 0)
(1.1057514 -0.032847782 0)
(1.1061957 -0.035351743 0)
(1.1063274 -0.037998813 0)
(1.1060397 -0.040799321 0)
(1.1052321 -0.043736945 0)
(1.1037454 -0.046803632 0)
(1.1014595 -0.049927691 0)
(1.0981466 -0.053059678 0)
(1.0937124 -0.056011015 0)
(1.0878528 -0.058678714 0)
(1.0806294 -0.060657248 0)
(1.0716601 -0.061851631 0)
(1.061422 -0.061444469 0)
(1.049475 -0.059627181 0)
(1.0370065 -0.054662516 0)
(1.0239648 -0.047766568 0)
(1.0116525 -0.03525089 0)
(1.0034071 -0.020198372 0)
(1.0018544 -0.00039896429 0)
(1.0022211 -0.00028834828 0)
(1.0023701 -0.00030227579 0)
(1.0026807 -0.00025560658 0)
(1.0029038 -0.000249073 0)
(1.0032053 -0.00022563373 0)
(1.0034751 -0.00021520597 0)
(1.0037893 -0.00020249928 0)
(1.0040985 -0.00019479544 0)
(1.004439 -0.00018917279 0)
(1.0047884 -0.0001862349 0)
(1.0051648 -0.00018666805 0)
(1.0055583 -0.00018973514 0)
(1.0059787 -0.00019678184 0)
(1.0064221 -0.00020718263 0)
(1.0068942 -0.00022219889 0)
(1.0073944 -0.00024161767 0)
(1.0079265 -0.00026653639 0)
(1.0084913 -0.00029713747 0)
(1.0090919 -0.00033443129 0)
(1.0097301 -0.00037892011 0)
(1.0104086 -0.0004316146 0)
(1.0111295 -0.00049327459 0)
(1.0118958 -0.00056500231 0)
(1.0127097 -0.00064777768 0)
(1.0135742 -0.00074317815 0)
(1.0144923 -0.00085267817 0)
(1.0154671 -0.00097742327 0)
(1.0165016 -0.0011186651 0)
(1.0175988 -0.0012776674 0)
(1.0187621 -0.0014556855 0)
(1.0199943 -0.0016535858 0)
(1.0212974 -0.0018724785 0)
(1.0226738 -0.002113847 0)
(1.0241264 -0.002379001 0)
(1.0256576 -0.0026695782 0)
(1.0272701 -0.0029861718 0)
(1.0289662 -0.0033286707 0)
(1.0307473 -0.0036968893 0)
(1.0326147 -0.0040905033 0)
(1.0345696 -0.0045091356 0)
(1.0366128 -0.0049518539 0)
(1.0387452 -0.0054172944 0)
(1.0409671 -0.0059037137 0)
(1.0432786 -0.0064090194 0)
(1.0456796 -0.0069307381 0)
(1.0481694 -0.0074660238 0)
(1.0507473 -0.0080116569 0)
(1.0534121 -0.0085640534 0)
(1.0561623 -0.0091192733 0)
(1.058996 -0.0096730233 0)
(1.0619109 -0.010220657 0)
(1.0649042 -0.010757161 0)
(1.0679721 -0.011277145 0)
(1.0711102 -0.011774811 0)
(1.0743128 -0.012243938 0)
(1.0775732 -0.012677869 0)
(1.0808828 -0.013069513 0)
(1.0842313 -0.013411381 0)
(1.0876066 -0.013695664 0)
(1.0909942 -0.013914363 0)
(1.0943779 -0.014059483 0)
(1.0977391 -0.014123292 0)
(1.1010576 -0.014098651 0)
(1.1043118 -0.013979393 0)
(1.1074788 -0.013760752 0)
(1.1105356 -0.013439798 0)
(1.1134593 -0.013015874 0)
(1.1162283 -0.012490973 0)
(1.1188223 -0.011870051 0)
(1.1212236 -0.011161217 0)
(1.1234174 -0.010375806 0)
(1.1253925 -0.0095282852 0)
(1.127141 -0.0086360338 0)
(1.1286591 -0.0077189484 0)
(1.1299467 -0.0067989674 0)
(1.1310072 -0.0058994358 0)
(1.1318473 -0.0050444733 0)
(1.1324765 -0.0042582131 0)
(1.1329063 -0.0035641138 0)
(1.1331501 -0.0029841666 0)
(1.1332222 -0.0025381779 0)
(1.1331373 -0.0022429828 0)
(1.1329101 -0.0021116401 0)
(1.1325548 -0.0021525624 0)
(1.1320852 -0.0023691992 0)
(1.1315143 -0.0027593683 0)
(1.1308549 -0.0033159218 0)
(1.13012 -0.0040274312 0)
(1.1293233 -0.0048798332 0)
(1.1284785 -0.0058577685 0)
(1.1275993 -0.0069465825 0)
(1.1266985 -0.0081332033 0)
(1.1257862 -0.0094068606 0)
(1.1248707 -0.01075895 0)
(1.1239567 -0.012183376 0)
(1.123046 -0.013676073 0)
(1.1221364 -0.015234871 0)
(1.1212225 -0.016858796 0)
(1.120295 -0.01854831 0)
(1.1193414 -0.02030454 0)
(1.1183449 -0.022129958 0)
(1.1172857 -0.024027239 0)
(1.1161384 -0.026000768 0)
(1.1148744 -0.028054217 0)
(1.1134569 -0.030193511 0)
(1.1118458 -0.032421325 0)
(1.1099869 -0.034743012 0)
(1.1078255 -0.037154176 0)
(1.1052818 -0.039653384 0)
(1.1022851 -0.04221461 0)
(1.0987214 -0.044816899 0)
(1.0945158 -0.047383449 0)
(1.0895144 -0.049856062 0)
(1.0836819 -0.052056637 0)
(1.0768263 -0.053882969 0)
(1.0690527 -0.054973244 0)
(1.0601344 -0.055235029 0)
(1.0504821 -0.053973392 0)
(1.0398667 -0.051330434 0)
(1.0291208 -0.04598296 0)
(1.0184347 -0.038857004 0)
(1.008513 -0.027762793 0)
(1.0022178 -0.014822864 0)
(1.024595 -0.00055314074 0)
(1.0250244 -0.00046293412 0)
(1.0252048 -0.00048228947 0)
(1.0255714 -0.00044633795 0)
(1.0258429 -0.00044894112 0)
(1.0262039 -0.00043607894 0)
(1.0265343 -0.00043752822 0)
(1.026916 -0.0004369046 0)
(1.0272962 -0.00044244498 0)
(1.0277127 -0.00045044714 0)
(1.0281424 -0.00046248401 0)
(1.0286039 -0.0004786275 0)
(1.0290873 -0.00049876717 0)
(1.0296022 -0.00052388249 0)
(1.0301452 -0.0005537331 0)
(1.0307219 -0.00058939995 0)
(1.0313316 -0.00063091376 0)
(1.0319783 -0.00067930928 0)
(1.0326629 -0.00073493848 0)
(1.0333883 -0.00079882091 0)
(1.0341562 -0.00087159275 0)
(1.0349694 -0.00095431098 0)
(1.0358299 -0.0010478418 0)
(1.0367404 -0.0011532943 0)
(1.0377032 -0.0012716962 0)
(1.0387209 -0.0014041385 0)
(1.0397956 -0.0015517375 0)
(1.0409296 -0.0017158143 0)
(1.0421253 -0.0018976569 0)
(1.0433848 -0.0020986844 0)
(1.0447102 -0.002320254 0)
(1.0461038 -0.0025641044 0)
(1.0475676 -0.0028315034 0)
(1.0491034 -0.0031231509 0)
(1.0507129 -0.0034397984 0)
(1.052397 -0.0037819199 0)
(1.0541566 -0.0041500145 0)
(1.0559923 -0.0045444903 0)
(1.0579047 -0.0049654772 0)
(1.0598943 -0.0054126097 0)
(1.0619612 -0.0058850633 0)
(1.0641052 -0.0063816567 0)
(1.0663257 -0.006900822 0)
(1.0686223 -0.0074406786 0)
(1.0709941 -0.0079989717 0)
(1.0734401 -0.0085730923 0)
(1.0759591 -0.0091600531 0)
(1.0785498 -0.0097564988 0)
(1.0812105 -0.010358696 0)
(1.0839396 -0.010962532 0)
(1.0867349 -0.011563491 0)
(1.089594 -0.012156637 0)
(1.0925139 -0.012736573 0)
(1.0954908 -0.013297402 0)
(1.0985203 -0.013832681 0)
(1.1015966 -0.014335384 0)
(1.1047125 -0.014797885 0)
(1.1078595 -0.015211966 0)
(1.1110268 -0.015568879 0)
(1.1142021 -0.015859462 0)
(1.1173707 -0.016074325 0)
(1.120516 -0.016204122 0)
(1.1236197 -0.016239887 0)
(1.1266615 -0.016173456 0)
(1.1296204 -0.015997931 0)
(1.1324743 -0.015708184 0)
(1.1352013 -0.015301348 0)
(1.1377799 -0.014777285 0)
(1.1401899 -0.014138966 0)
(1.1424132 -0.013392759 0)
(1.144434 -0.01254855 0)
(1.1462393 -0.01161975 0)
(1.1478196 -0.010623086 0)
(1.1491687 -0.009578288 0)
(1.1502837 -0.0085075712 0)
(1.1511651 -0.0074350732 0)
(1.1518161 -0.0063861165 0)
(1.1522426 -0.0053865188 0)
(1.1524524 -0.0044617417 0)
(1.1524548 -0.0036361921 0)
(1.1522598 -0.0029323127 0)
(1.1518779 -0.0023700062 0)
(1.1513192 -0.0019657091 0)
(1.1505934 -0.0017320666 0)
(1.1497095 -0.0016772487 0)
(1.1486759 -0.0018042224 0)
(1.1475013 -0.0021108381 0)
(1.1461946 -0.0025902331 0)
(1.1447658 -0.003231504 0)
(1.1432261 -0.0040212251 0)
(1.1415876 -0.0049446809 0)
(1.1398623 -0.0059873048 0)
(1.1380625 -0.0071349698 0)
(1.1361999 -0.0083755052 0)
(1.1342842 -0.0096989066 0)
(1.1323231 -0.011097312 0)
(1.1303215 -0.012564396 0)
(1.1282816 -0.014095677 0)
(1.1262026 -0.015687968 0)
(1.1240804 -0.017339392 0)
(1.1219082 -0.0190488 0)
(1.1196753 -0.020816328 0)
(1.1173685 -0.022642317 0)
(1.1149697 -0.024528526 0)
(1.1124585 -0.026475992 0)
(1.1098072 -0.028487316 0)
(1.1069862 -0.03056191 0)
(1.1039544 -0.032700624 0)
(1.100671 -0.03489513 0)
(1.0970758 -0.037138226 0)
(1.0931181 -0.039400519 0)
(1.0887133 -0.041655479 0)
(1.083812 -0.043828111 0)
(1.0783036 -0.04585935 0)
(1.0721766 -0.047589061 0)
(1.0652997 -0.048925507 0)
(1.0577775 -0.049561957 0)
(1.0494748 -0.049424523 0)
(1.040731 -0.047951681 0)
(1.0314799 -0.045255754 0)
(1.0223469 -0.04032733 0)
(1.0137219 -0.03379924 0)
(1.0060276 -0.02417952 0)
(1.0014105 -0.012717186 0)
(1.0358173 -0.00072825201 0)
(1.0362935 -0.00066251352 0)
(1.0364934 -0.00068834288 0)
(1.0369005 -0.00066677506 0)
(1.0372044 -0.00068028582 0)
(1.0376072 -0.00068010404 0)
(1.0379784 -0.00069441923 0)
(1.0384058 -0.00070757138 0)
(1.0388335 -0.00072821889 0)
(1.0393013 -0.00075219557 0)
(1.0397851 -0.00078162699 0)
(1.0403041 -0.00081613458 0)
(1.0408481 -0.00085602695 0)
(1.0414271 -0.00090200138 0)
(1.0420374 -0.00095408936 0)
(1.0426846 -0.0010132187 0)
(1.0433683 -0.0010795837 0)
(1.0440922 -0.0011541402 0)
(1.0448571 -0.0012373314 0)
(1.0456661 -0.0013301331 0)
(1.0465205 -0.0014332257 0)
(1.047423 -0.0015476416 0)
(1.0483755 -0.0016742718 0)
(1.0493801 -0.0018142543 0)
(1.0504391 -0.0019686693 0)
(1.0515544 -0.0021388424 0)
(1.0527282 -0.002326026 0)
(1.0539625 -0.0025314195 0)
(1.0552592 -0.0027562246 0)
(1.0566201 -0.0030016223 0)
(1.0580468 -0.003268738 0)
(1.0595406 -0.0035586035 0)
(1.0611026 -0.0038722631 0)
(1.0627338 -0.0042107576 0)
(1.0644349 -0.0045749691 0)
(1.0662066 -0.0049656974 0)
(1.0680493 -0.0053832391 0)