/*--------------------------------*- C++ -*----------------------------------*\
| =========                 |                                                 |
| \\      /  F ield         | foam-extend: Open Source CFD                    |
|  \\    /   O peration     | Version:     4.1                                |
|   \\  /    A nd           | Web:         http://www.foam-extend.org         |
|    \\/     M anipulation  |                                                 |
\*---------------------------------------------------------------------------*/
FoamFile
{
    version     2.0;
    format      ascii;
    class       surfaceScalarField;
    location    "0.15";
    object      phi;
}
// * * * * * * * * * * * * * * * * * * * * * * * * * * * * * * * * * * * * * //

dimensions      [0 3 -1 0 0 0 0];

internalField   nonuniform List<scalar> 
8438
(
-0.60295073
0.0013443408
-0.60435621
0.0014054781
-0.60579193
0.0014357229
-0.60726645
0.0014745172
-0.6087894
0.0015229546
-0.61037128
0.0015818823
-0.61202177
0.0016504899
-0.61374901
0.0017272388
-0.61555894
0.0018099246
-0.61745463
0.0018956884
-0.61943564
0.0019810093
-0.62149737
0.0020617317
-0.62363052
0.0021331522
-0.62582071
0.0021901887
-0.62804833
0.0022276267
-0.63028878
0.0022404457
-0.63251287
0.0022240907
-0.63468761
0.0021747399
-0.63677703
0.0020894201
-0.63874303
0.0019659989
-0.64054615
0.0018031213
-0.64214629
0.0016001416
-0.64350343
0.0013571352
-0.64457848
0.0010750548
-0.64533456
0.00075607508
-0.64573869
0.00040413014
-0.645764
2.5310673e-05
-0.64539134
-0.00037265546
-0.64461353
-0.00077781749
-0.64343932
-0.0011742031
-0.64189435
-0.001544977
-0.64002099
-0.0018733528
-0.63787642
-0.0021445706
-0.63552864
-0.0023477772
-0.63305142
-0.002477225
-0.6305189
-0.002532518
-0.62800093
-0.0025179759
-0.6255595
-0.0024414247
-0.62324673
-0.0023127687
-0.62110408
-0.0021426516
-0.61916269
-0.0019413889
-0.61744445
-0.0017182373
-0.61596348
-0.0014809728
-0.61472767
-0.0012358062
-0.61373982
-0.0009878523
-0.61299803
-0.00074179096
-0.61249859
-0.00049943881
-0.61224707
-0.00025152077
-2.1215864e-06
-0.61673667
0.0024842698
-0.61786416
0.0025329714
-0.61901358
0.0025851472
-0.62019818
0.0026591136
-0.6214303
0.0027550746
-0.6227212
0.0028727819
-0.62408098
0.0030102717
-0.62551811
0.003164371
-0.62703885
0.0033306599
-0.62864658
0.0035034219
-0.63034118
0.0036756047
-0.63211831
0.0038388595
-0.63396886
0.0039837092
-0.63587856
0.0040998834
-0.63782775
0.0041768231
-0.63979166
0.0042043514
-0.64174082
0.0041732473
-0.64364187
0.0040757992
-0.64545849
0.0039060388
-0.64715221
0.0036597109
-0.6486832
0.0033341175
-0.65001101
0.0029279494
-0.65109516
0.0024412886
-0.65189602
0.0018759149
-0.65237594
0.0012359865
-0.6525009
0.00052909494
-0.65224308
-0.00023250926
-0.65158488
-0.0010308566
-0.65052073
-0.0018419695
-0.64905859
-0.0026363352
-0.64722328
-0.0033802907
-0.6450569
-0.0040397276
-0.64261699
-0.0045844838
-0.63997239
-0.0049923769
-0.63719789
-0.0052517264
-0.63436857
-0.0053618407
-0.63155489
-0.0053316543
-0.62881913
-0.0051771859
-0.62621332
-0.0049185805
-0.6237786
-0.0045773659
-0.6215457
-0.0041742916
-0.61953607
-0.0037278685
-0.61776347
-0.0032535646
-0.61623561
-0.0027636751
-0.61495549
-0.0022679635
-0.61392329
-0.0017739918
-0.61313848
-0.0012842519
-0.6125932
-0.00079680589
-0.00035051766
-0.6176444
0.0035783842
-0.61873278
0.0036213545
-0.6198411
0.0036934654
-0.62098402
0.0038020341
-0.62217465
0.0039457058
-0.62342479
0.0041229152
-0.62474495
0.0043304378
-0.62614406
0.0045634762
-0.62762885
0.0048154509
-0.62920327
0.0050778465
-0.63086778
0.0053401108
-0.63261861
0.0055896861
-0.63444714
0.0058122402
-0.63633942
0.0059921649
-0.63827595
0.0061133542
-0.64023186
0.0061602603
-0.64217744
0.0061188239
-0.64407899
0.0059773509
-0.64589982
0.0057268704
-0.64760115
0.0053610456
-0.6491429
0.0048758627
-0.65048425
0.0042692968
-0.65158421
0.0035412523
-0.65240229
0.0026939957
-0.6528995
0.0017331946
-0.65303999
0.00066958327
-0.65279349
-0.00047900395
-0.65213819
-0.0016861598
-0.65106432
-0.0029158431
-0.64957799
-0.004122656
-0.64770382
-0.0052544627
-0.64548554
-0.0062580072
-0.64298398
-0.0070860444
-0.6402724
-0.0077039608
-0.63743026
-0.0080938629
-0.63453684
-0.008255262
-0.63166576
-0.0082027349
-0.62888121
-0.0079617354
-0.62623595
-0.0075638357
-0.62377091
-0.0070424076
-0.62151591
-0.006429296
-0.61949114
-0.0057526341
-0.61770898
-0.0050357218
-0.61617577
-0.0042968871
-0.61489365
-0.0035500835
-0.61386272
-0.0028049241
-0.61308126
-0.002065711
-0.61254119
-0.0013368726
-0.00064676174
-0.61798229
0.004644474
-0.61905145
0.0046905132
-0.62014109
0.0047831009
-0.62126577
0.0049267233
-0.62243904
0.0051189676
-0.62367331
0.0053571854
-0.62497983
0.0056369604
-0.6263683
0.0059519431
-0.62784631
0.0062934628
-0.62941871
0.0066502451
-0.63108682
0.0070082202
-0.63284765
0.0073505166
-0.63469314
0.0076577337
-0.63660957
0.0079085962
-0.63857725
0.0080810357
-0.6405707
0.008153705
-0.64255923
0.0081073603
-0.64450802
0.0079261381
-0.6463792
0.0075980479
-0.64813292
0.0071147659
-0.64972812
0.006471062
-0.65112301
0.0056641863
-0.65227542
0.0046936607
-0.65314321
0.0035617915
-0.65368511
0.0022750899
-0.65386217
0.00084664264
-0.65364026
-0.00070090701
-0.65299346
-0.0023329584
-0.65190824
-0.0040010704
-0.65038806
-0.0056428342
-0.64845711
-0.0071854117
-0.6461616
-0.0085535147
-0.64356757
-0.0096800722
-0.64075529
-0.010516248
-0.63781164
-0.011037511
-0.63482247
-0.011244429
-0.6318663
-0.01115891
-0.62901019
-0.010817842
-0.62630793
-0.010266093
-0.62379998
-0.0095503614
-0.62151469
-0.008714581
-0.61947028
-0.0077970473
-0.61767694
-0.0068290651
-0.61613897
-0.0058348543
-0.6148569
-0.0048321584
-0.61382928
-0.003832538
-0.6130526
-0.0028423941
-0.61252192
-0.0018675544
-0.00092372839
-0.61840506
0.0056836931
-0.61945088
0.0057363363
-0.62051799
0.0058502071
-0.62162106
0.0060297957
-0.62277404
0.0062719486
-0.62399008
0.0065732218
-0.62528129
0.0069281737
-0.62665839
0.0073290449
-0.62813012
0.0077651924
-0.62970253
0.0082226524
-0.63137814
0.0086838248
-0.63315501
0.0091273907
-0.63502587
0.0095285914
-0.6369773
0.0098600247
-0.63898932
0.010093065
-0.64103556
0.010199945
-0.64308394
0.010155738
-0.64509797
0.0099401627
-0.64703815
0.0095382323
-0.64886322
0.0089398361
-0.6505309
0.0081387421
-0.65199825
0.0071315306
-0.65322169
0.0059171041
-0.65415711
0.004497211
-0.65476029
0.0028782669
-0.65498819
0.0010745485
-0.65480148
-0.00088762264
-0.65416835
-0.0029660827
-0.6530696
-0.0050998189
-0.65150457
-0.0072078669
-0.64949649
-0.0091934958
-0.64709489
-0.010955106
-0.6443733
-0.012401671
-0.64142208
-0.013467466
-0.63833882
-0.014120772
-0.63521866
-0.014364583
-0.63214686
-0.014230709
-0.62919429
-0.013770411
-0.62641586
-0.013044528
-0.62385109
-0.012115128
-0.62152612
-0.011039557
-0.61945622
-0.0098669386
-0.61764857
-0.008636723
-0.61610466
-0.0073787606
-0.61482268
-0.0061141354
-0.61379912
-0.0048560965
-0.61302918
-0.003612334
-0.61250946
-0.0023872792
-0.0011883887
-0.61894208
0.006690628
-0.61995805
0.0067523059
-0.62099647
0.0068886306
-0.62207208
0.0071054069
-0.62319931
0.0073991781
-0.62439212
0.0077660278
-0.62566368
0.0081997307
-0.62702597
0.0086913341
-0.62848918
0.0092284058
-0.63006094
0.0097944142
-0.63174536
0.010368242
-0.63354195
0.010923978
-0.6354445
0.011431148
-0.63744009
0.011855619
-0.63950842
0.012161395
-0.64162189
0.012313413
-0.64374652
0.012280365
-0.64584358
0.01203722
-0.64787143
0.01156608
-0.649787
0.01085541
-0.65154662
0.0098983635
-0.6531061
0.0086910113
-0.65442038
0.0072313807
-0.65544305
0.0055198856
-0.65612635
0.0035615604
-0.65642202
0.0013702262
-0.65628388
-0.0010257697
-0.65567216
-0.0035778013
-0.65455959
-0.0062123881
-0.6529393
-0.0088281562
-0.65083262
-0.01130017
-0.64829334
-0.013494393
-0.6454052
-0.015289805
-0.64227271
-0.016599958
-0.63900818
-0.017385302
-0.63571935
-0.017653411
-0.63250027
-0.01744979
-0.62942644
-0.016844241
-0.62655375
-0.015917219
-0.62392003
-0.014748846
-0.62154806
-0.013411529
-0.61944902
-0.011965975
-0.61762588
-0.010459864
-0.61607633
-0.0089283158
-0.61479524
-0.0073952241
-0.61377636
-0.0058749722
-0.61301332
-0.0043753764
-0.6125024
-0.0028982037
-0.0014458355
-0.61959548
0.0076619973
-0.62057577
0.0077325983
-0.62157906
0.0078919175
-0.62262075
0.0081471003
-0.62371599
0.0084944132
-0.62487969
0.0089297282
-0.62612628
0.0094463196
-0.62746927
0.010034327
-0.62892066
0.010679792
-0.63049005
0.011363804
-0.6321836
0.012061791
-0.63400273
0.012743109
-0.63594273
0.013371153
-0.63799141
0.013904298
-0.6401281
0.014298087
-0.64232364
0.014508948
-0.64454148
0.014498207
-0.64673991
0.014235652
-0.6488745
0.013700672
-0.65090002
0.012880926
-0.65277128
0.01176962
-0.65444294
0.010362671
-0.65586856
0.008657
-0.6569994
0.0066507263
-0.65778364
0.0043458006
-0.65816673
0.0017533169
-0.65809372
-0.0010987746
-0.65751429
-0.0041572311
-0.65638993
-0.0073367501
-0.65470454
-0.010513541
-0.65247591
-0.013528806
-0.64976289
-0.016207408
-0.64666312
-0.018389574
-0.64330042
-0.019962658
-0.63980711
-0.020878616
-0.63630754
-0.021152985
-0.63290685
-0.020850479
-0.62968586
-0.020065226
-0.62670095
-0.018902126
-0.62398708
-0.017462722
-0.62156221
-0.015836395
-0.61943201
-0.014096175
-0.61759398
-0.012297893
-0.61604092
-0.01048138
-0.61476353
-0.0086726117
-0.61375222
-0.0068862856
-0.61299835
-0.0051292499
-0.61249649
-0.0034000613
-0.0016973739
-0.62035835
0.0085884392
-0.6212956
0.0086698445
-0.62225706
0.0088533857
-0.62325832
0.0091483595
-0.62431521
0.0095513022
-0.62544373
0.010058242
-0.62665973
0.010662319
-0.62797854
0.011353138
-0.62941432
0.012115573
-0.63097914
0.012928622
-0.63268174
0.013764393
-0.63452604
0.014587409
-0.63650936
0.015354475
-0.6386206
0.016015535
-0.64083875
0.016516238
-0.64313262
0.016802822
-0.64546227
0.016827853
-0.64778198
0.016555364
-0.65004372
0.015962412
-0.65219967
0.015036872
-0.65420316
0.01377311
-0.65600802
0.012167539
-0.65756686
0.010215832
-0.6588288
0.0079126686
-0.65973772
0.0052547174
-0.66023168
0.0022472764
-0.66024488
-0.0010855663
-0.65971324
-0.0046888695
-0.65858285
-0.0084671421
-0.65682404
-0.012272355
-0.6544482
-0.015904646
-0.65152003
-0.019135577
-0.64815579
-0.021753817
-0.64450575
-0.023612699
-0.64072916
-0.024655201
-0.63697202
-0.024910125
-0.63335308
-0.024469423
-0.6299588
-0.023459504
-0.62684494
-0.022015986
-0.62404174
-0.020265916
-0.62156041
-0.018317732
-0.61939921
-0.016257367
-0.61754869
-0.014148414
-0.61599555
-0.012034524
-0.61472547
-0.0099426862
-0.61372496
-0.0078867961
-0.61298259
-0.005871622
-0.61249062
-0.0038920311
-0.0019431965
-0.62123348
0.0094685794
-0.6221223
0.0095586645
-0.62303515
0.0097662336
-0.62398882
0.010102026
-0.62500011
0.010562591
-0.62608625
0.011144382
-0.62726473
0.011840804
-0.62855299
0.012641401
-0.62996777
0.013530353
-0.63152414
0.014484986
-0.63323408
0.015474339
-0.63510475
0.016458074
-0.63713622
0.017385947
-0.63931905
0.018198362
-0.641632
0.018829195
-0.64404133
0.019212152
-0.64650253
0.019289049
-0.64896453
0.019017362
-0.6513746
0.018372487
-0.65368189
0.017344161
-0.65583845
0.015929662
-0.65779792
0.014127016
-0.65951276
0.011930669
-0.66093063
0.0093305413
-0.66199115
0.0063152321
-0.66262404
0.0028801731
-0.66275034
-0.0009592695
-0.66228823
-0.0051509751
-0.6611629
-0.0095924777
-0.65932477
-0.014110483
-0.65677419
-0.018455227
-0.653582
-0.022327767
-0.64988957
-0.025446245
-0.64588361
-0.027618659
-0.64175974
-0.028779073
-0.63769191
-0.02897795
-0.63381516
-0.028346181
-0.63022134
-0.027053322
-0.62696361
-0.025273719
-0.62406484
-0.023164687
-0.62152678
-0.02085579
-0.61933808
-0.018446066
-0.6174805
-0.016005992
-0.61593336
-0.013581669
-0.61467641
-0.011199628
-0.61369167
-0.008871541
-0.61296442
-0.0065988731
-0.61248432
-0.0043721259
-0.0021825696
-0.62221129
0.010287777
-0.62304244
0.010389809
-0.62389909
0.010622886
-0.62479776
0.011000702
-0.625756
0.011520826
-0.62679228
0.01218066
-0.62792589
0.012974414
-0.62917665
0.013892163
-0.63056433
0.014918034
-0.63210761
0.016028265
-0.63382252
0.017189247
-0.63572033
0.01835589
-0.63780488
0.019470494
-0.64006918
0.020462667
-0.64249207
0.021252082
-0.64503654
0.021756627
-0.64765194
0.021904441
-0.65027988
0.021645303
-0.65286144
0.020954052
-0.65534218
0.019824894
-0.65767327
0.018260759
-0.65980933
0.016263072
-0.66170402
0.013825359
-0.6633048
0.010931325
-0.66454761
0.0075580419
-0.66535319
0.0036857535
-0.66562693
-0.00068553366
-0.66526453
-0.0055133718
-0.66416308
-0.010693927
-0.66224404
-0.016029524
-0.65948895
-0.021210317
-0.65597416
-0.025842558
-0.65187517
-0.029545233
-0.64742951
-0.032064321
-0.64288216
-0.033326421
-0.63844306
-0.033417051
-0.63426606
-0.032523178
-0.63044713
-0.030872262
-0.62703346
-0.028687384
-0.62403673
-0.026161421
-0.62144573
-0.023446782
-0.6192367
-0.020655098
-0.61738061
-0.017862081
-0.61584803
-0.015114257
-0.61461194
-0.012435716
-0.61364933
-0.0098341496
-0.61294188
-0.0073063185
-0.61247655
-0.004837461
-0.0024141696
-0.62329474
0.011050299
-0.62406426
0.011159325
-0.62485782
0.011416444
-0.62569375
0.011836637
-0.62659069
0.012417763
-0.6275685
0.01315847
-0.62864842
0.01405433
-0.62985293
0.015096672
-0.63120528
0.016270388
-0.63272846
0.017551449
-0.63444347
0.018904256
-0.63636687
0.020279287
-0.63850752
0.021611148
-0.64086218
0.022817319
-0.64341029
0.0238002
-0.64611088
0.024457219
-0.64890492
0.024698475
-0.65172394
0.024464327
-0.65450074
0.023730845
-0.65717663
0.022500784
-0.65970279
0.020786924
-0.66203652
0.018596804
-0.66413487
0.015923712
-0.66594715
0.012743602
-0.66740693
0.0090178151
-0.66842566
0.0047044924
-0.66889082
-0.00022037915
-0.66866972
-0.0057344647
-0.66762222
-0.011741431
-0.66562788
-0.018023863
-0.66263672
-0.024201477
-0.65872781
-0.029751464
-0.6541236
-0.034149443
-0.64913379
-0.037054137
-0.64407097
-0.038389241
-0.63919114
-0.038296884
-0.63466897
-0.037045339
-0.63060138
-0.034939854
-0.62702434
-0.032264422
-0.62393287
-0.0292529
-0.62129827
-0.026081372
-0.61908101
-0.02287236
-0.61723903
-0.01970406
-0.61573276
-0.016620531
-0.61452766
-0.013640819
-0.6135953
-0.010766504
-0.6129136
-0.0079880213
-0.6124668
-0.0052842559
-0.0026361733
-0.6244727
0.011732831
-0.62516826
0.011854884
-0.62588977
0.012137957
-0.62665425
0.012601119
-0.6274808
0.013244313
-0.62839053
0.014068204
-0.6294067
0.015070497
-0.6305547
0.016244674
-0.63186176
0.017577447
-0.63335596
0.019045645
-0.63506437
0.020612668
-0.63701029
0.02222521
-0.63920939
0.023810249
-0.641664
0.025271924
-0.64435537
0.026491566
-0.64723769
0.027339546
-0.65024044
0.027701226
-0.65328093
0.02750481
-0.65628047
0.026730388
-0.6591753
0.025395609
-0.66191785
0.023529482
-0.66447068
0.021149634
-0.66679727
0.018250299
-0.66885191
0.014798235
-0.6705683
0.01073421
-0.67184914
0.0059853367
-0.67256122
0.00049169891
-0.67253743
-0.0057582533
-0.67158989
-0.012688977
-0.66953768
-0.02007607
-0.66627841
-0.027460751
-0.66188656
-0.034143312
-0.65664995
-0.039386055
-0.65098319
-0.042720896
-0.64529243
-0.044080002
-0.63989219
-0.043697116
-0.63497839
-0.041959139
-0.6306427
-0.039275547
-0.62690167
-0.036005451
-0.62372615
-0.032428422
-0.62106422
-0.0287433
-0.61885665
-0.025079931
-0.61704599
-0.021514724
-0.61558124
-0.018085276
-0.61441976
-0.014802296
-0.61352755
-0.011658715
-0.61287876
-0.0086368142
-0.61245511
-0.0057079085
-0.0028463318
-0.62574331
0.012349701
-0.62636388
0.012475454
-0.62700692
0.012780992
-0.62769198
0.013286181
-0.62843921
0.013991542
-0.62927105
0.014900039
-0.6302128
0.01601225
-0.63129297
0.017324848
-0.6325432
0.018827676
-0.63399748
0.02049992
-0.63569023
0.022305415
-0.63765317
0.024188159
-0.63991101
0.026068088
-0.64247431
0.027835222
-0.64532815
0.029345401
-0.64842115
0.030432546
-0.65166676
0.030946843
-0.65496183
0.030799873
-0.65821158
0.029980145
-0.66134618
0.028530202
-0.66432167
0.026504979
-0.66710987
0.023937834
-0.66968515
0.020825572
-0.67201136
0.01712445
-0.67402651
0.012749359
-0.67562627
0.0075850954
-0.67665409
0.0015195197
-0.67690271
-0.005509632
-0.67612391
-0.013467773
-0.67405056
-0.022149423
-0.67049389
-0.031017416
-0.66550709
-0.039130115
-0.65947
-0.045423141
-0.65295424
-0.049236657
-0.64649667
-0.050537575
-0.64048529
-0.049708493
-0.63513407
-0.047310362
-0.63051833
-0.043891289
-0.62662286
-0.039900922
-0.62338416
-0.035667115
-0.62072
-0.031407467
-0.61854709
-0.027252843
-0.61679025
-0.023271558
-0.61538608
-0.019489451
-0.61428354
-0.015904837
-0.61344317
-0.012499083
-0.61283565
-0.0092443328
-0.61244049
-0.0061030651
-0.0030420244
-0.62710132
0.012864702
-0.62763047
0.013004608
-0.62818464
0.013335159
-0.62878026
0.013881804
-0.62943729
0.014648571
-0.63017905
0.015641801
-0.63103277
0.01686597
-0.63203012
0.018322197
-0.63320753
0.020005083
-0.63460578
0.02189817
-0.63626815
0.023967791
-0.63823696
0.02615697
-0.64054886
0.028379985
-0.64322666
0.030513021
-0.64626309
0.032381831
-0.64960117
0.033770628
-0.65313212
0.034477797
-0.65672293
0.034390681
-0.66025579
0.033513
-0.66365342
0.031927839
-0.66687911
0.02973066
-0.66991934
0.026978071
-0.67276488
0.023671106
-0.67539494
0.019754514
-0.67775789
0.015112306
-0.67974644
0.0095736468
-0.68118019
0.002953264
-0.68180431
-0.0048855125
-0.68129551
-0.013976568
-0.67926881
-0.024176122
-0.67539508
-0.034891151
-0.66967017
-0.044855021
-0.66260417
-0.052489143
-0.65501204
-0.056828787
-0.64761477
-0.057934849
-0.64089049
-0.056432771
-0.63506081
-0.053140038
-0.63016565
-0.04878645
-0.62613988
-0.043926693
-0.62287228
-0.038934718
-0.62024184
-0.034037902
-0.61813674
-0.029357945
-0.61646208
-0.024946219
-0.6151415
-0.020810027
-0.61411585
-0.016930489
-0.61334073
-0.013274207
-0.61278392
-0.0098011416
-0.61242325
-0.0064637348
-0.0032203253
-0.62852617
0.013307775
-0.62896765
0.013446092
-0.6294276
0.01379511
-0.62992591
0.014380109
-0.63048325
0.015205912
-0.63112389
0.016282438
-0.63187687
0.017618953
-0.63277706
0.019222383
-0.63386597
0.021093993
-0.63519203
0.02322423
-0.63680902
0.025584787
-0.63877229
0.02812024
-0.6411339
0.030741593
-0.64393426
0.033313381
-0.64718004
0.035627608
-0.65080965
0.03740024
-0.65468262
0.038350769
-0.65862086
0.038328919
-0.66247216
0.037364305
-0.66614992
0.035605595
-0.66963068
0.033211418
-0.67292427
0.030271666
-0.67604584
0.026792677
-0.67899858
0.022707248
-0.68175155
0.01786528
-0.684203
0.012025093
-0.68614954
0.0048998021
-0.6872819
-0.0037531463
-0.68718756
-0.014070907
-0.68532416
-0.026039518
-0.68113711
-0.039078201
-0.67448982
-0.051502314
-0.66607444
-0.060904522
-0.65709963
-0.065803604
-0.64854643
-0.066488043
-0.6409989
-0.063980306
-0.63466183
-0.059477109
-0.62950817
-0.053940106
-0.62539689
-0.048037977
-0.62215201
-0.042179597
-0.61960441
-0.036585495
-0.61760952
-0.031352835
-0.61605157
-0.026504176
-0.61484159
-0.022020003
-0.61391324
-0.017858844
-0.61321823
-0.013969209
-0.61272243
-0.010296946
-0.61240271
-0.0067834498
-0.0033780898
-0.63004173
0.013624018
-0.6303737
0.01377806
-0.63072773
0.014149135
-0.63111778
0.014770165
-0.63156316
0.015651286
-0.6320881
0.016807385
-0.63272288
0.018253726
-0.63350507
0.020004577
-0.63448114
0.022070062
-0.63570767
0.024450754
-0.63725061
0.027127736
-0.63918121
0.030050836
-0.64157109
0.033131473
-0.64448566
0.03622795
-0.64795665
0.039098598
-0.65192295
0.041366535
-0.65620001
0.042627833
-0.66054193
0.042670837
-0.66474594
0.041568312
-0.66871511
0.039574765
-0.67245075
0.036947064
-0.67599921
0.033820123
-0.67940923
0.030202693
-0.68271607
0.026014092
-0.68592119
0.021070398
-0.68893941
0.015043317
-0.69154558
0.0075059712
-0.69336863
-0.0019300982
-0.69389476
-0.013544773
-0.69238749
-0.027546794
-0.68794165
-0.043524042
-0.68013628
-0.059307684
-0.66990551
-0.071135289
-0.6591273
-0.076581819
-0.64914774
-0.076467601
-0.64066496
-0.072463086
-0.63381606
-0.066326009
-0.62845637
-0.059299798
-0.62433284
-0.0521615
-0.62118425
-0.045328186
-0.61878394
-0.038985809
-0.61695167
-0.033185108
-0.61555112
-0.027904727
-0.61448236
-0.023088759
-0.61367373
-0.018667473
-0.61307479
-0.014568146
-0.61265082
-0.010720919
-0.61237878
-0.0070554916
-0.0035120686
-0.63156419
0.013865904
-0.63179719
0.014011052
-0.63204123
0.014393183
-0.63231477
0.015043698
-0.63263709
0.015973605
-0.63303245
0.017202748
-0.63353206
0.018753341
-0.63417608
0.020648594
-0.63501596
0.022909937
-0.63611716
0.025551962
-0.63756005
0.028570621
-0.63943549
0.031926284
-0.64183959
0.035535573
-0.64487187
0.039260224
-0.64860698
0.042833709
-0.65299636
0.045755913
-0.65779279
0.047424264
-0.66264313
0.047521183
-0.66726529
0.046190469
-0.67154769
0.043857164
-0.67553281
0.040932184
-0.67932082
0.037608135
-0.68300334
0.033885216
-0.68665572
0.029666467
-0.690331
0.024745683
-0.69398688
0.018699197
-0.69739089
0.010909982
-0.70010778
0.00078678451
-0.70151873
-0.01213382
-0.70067198
-0.028393541
-0.69612696
-0.048069069
-0.68687398
-0.068560657
-0.67412147
-0.083887804
-0.66095099
-0.089752299
-0.64920949
-0.088209102
-0.63969382
-0.081978751
-0.63237381
-0.073646014
-0.62690817
-0.06476544
-0.622884
-0.056185676
-0.61993207
-0.048280114
-0.61776057
-0.041157311
-0.61615344
-0.034792234
-0.61495659
-0.029101578
-0.61406251
-0.023982834
-0.61339732
-0.019332667
-0.61291086
-0.015054612
-0.61256963
-0.011062149
-0.61235193
-0.0072731834
-0.0036190532
-0.63317375
0.01395361
-0.6332792
0.014116509
-0.63340073
0.014514715
-0.6335473
0.015190264
-0.63373524
0.016161544
-0.63398748
0.01745499
-0.63433504
0.019100897
-0.63481933
0.021132886
-0.63549536
0.023585971
-0.63643632
0.026492919
-0.63773737
0.029871669
-0.639512
0.033700917
-0.64188478
0.037908357
-0.64499815
0.042373585
-0.64899685
0.046832413
-0.65387313
0.050632196
-0.65929341
0.052844538
-0.66473385
0.052961631
-0.66979166
0.051248269
-0.67434
0.048405504
-0.67849946
0.04509165
-0.682459
0.041567672
-0.68637035
0.03779657
-0.6903582
0.033654309
-0.69455388
0.028941365
-0.69899547
0.023140786
-0.70345897
0.015373481
-0.70740511
0.0047329269
-0.71010424
-0.0094346868
-0.71041074
-0.02808704
-0.70613415
-0.052345666
-0.6951189
-0.079575902
-0.67872875
-0.10027795
-0.66233226
-0.10614879
-0.64842313
-0.10211823
-0.63782419
-0.092577692
-0.63015229
-0.081317922
-0.62475063
-0.070167099
-0.62098724
-0.059949065
-0.61836361
-0.050903742
-0.61652024
-0.043000684
-0.61520999
-0.036102486
-0.61426732
-0.030044242
-0.61358289
-0.024667264
-0.61308503
-0.019830532
-0.61272708
-0.015412563
-0.61247902
-0.011310211
-0.61232195
-0.0074302515
-0.0036960508
-0.6345869
0.013963737
-0.63458578
0.014115383
-0.63458558
0.014514518
-0.63459948
0.015204167
-0.63464219
0.016204247
-0.63473454
0.017547345
-0.63490604
0.019272397
-0.63519802
0.021424864
-0.63566789
0.02405584
-0.636396
0.027221027
-0.63749428
0.030969956
-0.63910552
0.035312151
-0.64139083
0.04019367
-0.64454526
0.045528018
-0.64882475
0.051111905
-0.65432544
0.056132887
-0.66060033
0.059119428
-0.66684134
0.059202637
-0.67245662
0.056863546
-0.67729569
0.053244578
-0.681617
0.049412962
-0.68574264
0.045693305
-0.68989032
0.041944251
-0.69421325
0.03797724
-0.69893561
0.033663726
-0.70422131
0.028426482
-0.70989709
0.02104926
-0.71530926
0.010145103
-0.71963673
-0.0051072142
-0.72171663
-0.026007139
-0.71845088
-0.055611418
-0.70549683
-0.092529958
-0.68367514
-0.12209965
-0.66287696
-0.12694696
-0.64633479
-0.11866041
-0.63471127
-0.1042012
-0.62693738
-0.089091817
-0.62186873
-0.075235749
-0.61858952
-0.06322827
-0.61645977
-0.053033495
-0.61506025
-0.044400207
-0.61412523
-0.037037502
-0.61348894
-0.030680533
-0.6130486
-0.025107602
-0.61274065
-0.020138484
-0.61252586
-0.01562735
-0.61238022
-0.011455855
-0.61228923
-0.0075212396
-0.0037404828
-0.63568254
0.013798311
-0.63553418
0.01396702
-0.63538781
0.01436815
-0.63524565
0.015062008
-0.63511815
0.016076745
-0.63502335
0.017452542
-0.63498857
0.019237617
-0.63505402
0.02149032
-0.63527781
0.024279632
-0.63574439
0.027687604
-0.6365793
0.031804862
-0.63795609
0.03668894
-0.64007554
0.042313119
-0.64317993
0.048632408
-0.64767614
0.055608118
-0.65388701
0.062343758
-0.66123323
0.066465651
-0.66841078
0.066380183
-0.67454584
0.062998607
-0.67944729
0.058146024
-0.68363501
0.053600683
-0.68764015
0.049698447
-0.69176549
0.046069588
-0.69615868
0.042370426
-0.70119309
0.038698137
-0.70728385
0.034517241
-0.71443875
0.028204167
-0.72194244
0.017648794
-0.72872938
0.0016797174
-0.73387217
-0.020864341
-0.73323503
-0.056248566
-0.71883524
-0.10692974
-0.68869851
-0.15223638
-0.66186985
-0.15377562
-0.64225575
-0.13827451
-0.62990315
-0.1165538
-0.62249149
-0.096503478
-0.61816034
-0.079566904
-0.61566056
-0.065728046
-0.61422268
-0.054471373
-0.61339427
-0.04522862
-0.61291462
-0.037517149
-0.61263475
-0.030960405
-0.6124697
-0.025272658
-0.61237108
-0.020237098
-0.61231149
-0.01568694
-0.61227558
-0.01149177
-0.61225486
-0.0075419571
-0.0037503955
-0.634904
0.013501595
-0.63461658
0.0136796
-0.63431801
0.01406958
-0.6340093
0.014753303
-0.63369654
0.015763975
-0.63339225
0.017148262
-0.63311706
0.018962426
-0.63290387
0.021277121
-0.63280381
0.024179576
-0.63289601
0.027779802
-0.63330965
0.032218508
-0.63424939
0.037628678
-0.63597191
0.044035638
-0.63876589
0.051426393
-0.64323075
0.060072975
-0.65017624
0.069289244
-0.65895691
0.075246321
-0.66733941
0.074762687
-0.67406229
0.069721489
-0.67881468
0.062898407
-0.6826338
0.057419809
-0.68637362
0.053438268
-0.69047095
0.050166912
-0.69495463
0.046854109
-0.70037242
0.044115931
-0.70751088
0.041655701
-0.71659512
0.037288399
-0.72698064
0.028034317
-0.73651217
0.011211243
-0.74532317
-0.012053335
-0.74906851
-0.052503225
-0.73554562
-0.12045264
-0.69248865
-0.19529335
-0.65778111
-0.18848316
-0.63513894
-0.16091669
-0.62283583
-0.1288569
-0.61658106
-0.10275825
-0.61356281
-0.082585155
-0.61221037
-0.067080492
-0.61168511
-0.054996625
-0.61155644
-0.045357297
-0.61160626
-0.037467325
-0.61172541
-0.030841256
-0.61186017
-0.0251379
-0.61198504
-0.02011223
-0.61208877
-0.015583207
-0.61216718
-0.011413358
-0.61221922
-0.0074899196
-0.0037246637
-0.63016757
0.013022324
-0.62968257
0.013194595
-0.6291616
0.013548615
-0.62860428
0.014195982
-0.6280113
0.015170992
-0.62738802
0.016524988
-0.62674599
0.018320389
-0.62610814
0.020639278
-0.62551672
0.023588151
-0.62504391
0.027306991
-0.62481848
0.031993079
-0.62507824
0.037888441
-0.62616382
0.045121215
-0.62839551
0.053658083
-0.63249256
0.064170026
-0.64013177
0.076928461
-0.65090804
0.086022587
-0.66061833
0.084472974
-0.6676625
0.07676566
-0.67136662
0.066602531
-0.6739151
0.059968284
-0.67658803
0.056111201
-0.6800456
0.053624474
-0.68382776
0.050636268
-0.6885394
0.048827577
-0.69572724
0.048843542
-0.70581341
0.047374563
-0.71927399
0.041494893
-0.73090431
0.022841567
-0.7452958
0.0023381539
-0.75767506
-0.040123966
-0.75410074
-0.12402696
-0.69074575
-0.25864835
-0.64818054
-0.23104837
-0.62368059
-0.18541664
-0.61290475
-0.13963274
-0.60904115
-0.10662185
-0.6080999
-0.083526401
-0.60831608
-0.06686431
-0.60892377
-0.054388939
-0.60960747
-0.044673595
-0.61024378
-0.036831018
-0.61079053
-0.030294506
-0.61123917
-0.024689262
-0.61159419
-0.019757208
-0.61186421
-0.01531319
-0.61205812
-0.011219448
-0.6121833
-0.0073647346
-0.0036631662
-0.61346187
0.012159232
-0.61262428
0.012357012
-0.61174557
0.012669901
-0.61080922
0.013259628
-0.60980652
0.014168297
-0.6087314
0.015449861
-0.60757972
0.01716871
-0.60635392
0.019413486
-0.60507104
0.022305269
-0.60377146
0.026007412
-0.60253826
0.030759874
-0.60157159
0.036921771
-0.60125574
0.044805367
-0.60190747
0.054309808
-0.60410466
0.066367219
-0.61092111
0.083744909
-0.62369164
0.098793124
-0.63372117
0.094502501
-0.64000143
0.083045915
-0.64049319
0.067094294
-0.63999631
0.059471405
-0.63996278
0.056077663
-0.64159296
0.055254659
-0.64315877
0.052202081
-0.64522949
0.050898291
-0.65188619
0.055500245
-0.66268266
0.058171036
-0.68120483
0.060017063
-0.69614557
0.037782303
-0.72508981
0.031282395
-0.74684406
-0.018369719
-0.76828256
-0.10258846
-0.6736266
-0.35330431
-0.62879196
-0.27588301
-0.60513898
-0.20906962
-0.59925979
-0.14551193
-0.59982744
-0.1060542
-0.60194136
-0.081412482
-0.60415143
-0.064654238
-0.60606969
-0.05247068
-0.60763694
-0.043106341
-0.60888591
-0.035582054
-0.60986768
-0.029312737
-0.61063012
-0.023926822
-0.6112126
-0.019174729
-0.6116457
-0.014880087
-0.61195233
-0.010912821
-0.61214869
-0.0071683728
-0.0035669051
-0.57881632
0.01112611
-0.57765401
0.011194709
-0.57636755
0.011383437
-0.57497249
0.011864566
-0.57345333
0.012649143
-0.57178496
0.013781489
-0.56993418
0.015317925
-0.56786316
0.017342472
-0.56553627
0.019978375
-0.56292974
0.023400879
-0.56004295
0.027873087
-0.55698178
0.033860607
-0.55419297
0.04201655
-0.5522729
0.05238974
-0.55152243
0.065616754
-0.55640434
0.08862682
-0.57485871
0.11724749
-0.58574413
0.10538792
-0.59213518
0.089436965
-0.58684558
0.061804691
-0.58169421
0.054320035
-0.57734406
0.051727514
-0.5771422
0.055052803
-0.57609118
0.051151057
-0.57220567
0.047012777
-0.58481973
0.032905393
-0.59755956
0.0386051
-0.60829141
0.04164391
-0.60888448
0.020805278
-0.6399789
0.041081044
-0.71492377
0.020342257
-0.66722166
-0.054274601
-0.60401127
-0.22016711
-0.57354081
-0.30635347
-0.57138787
-0.21122256
-0.58101198
-0.13588782
-0.58934983
-0.097716347
-0.59553729
-0.075225021
-0.60002321
-0.060168323
-0.60331201
-0.049181875
-0.60575897
-0.040659389
-0.60760144
-0.033739577
-0.60899827
-0.027915908
-0.6100576
-0.022867495
-0.61085427
-0.018378054
-0.61144057
-0.014293788
-0.61185295
-0.010500447
-0.61211605
-0.006905272
-0.0034380485
-0.49998937
0.0092466288
-0.49799852
0.0092038551
-0.49589322
0.009278142
-0.49362932
0.0096006607
-0.49115386
0.010173683
-0.48839971
0.011027338
-0.48528307
0.01220128
-0.48170262
0.013762024
-0.4775417
0.015817453
-0.47268198
0.018541163
-0.46701568
0.022206786
-0.4604671
0.02731203
-0.45328602
0.034835465
-0.44631283
0.045416557
-0.43906024
0.058364161
-0.43268964
0.082256223
-0.45596482
0.14052267
-0.4522252
0.10164829
-0.44539343
0.082605196
-0.413261
0.029672256
-0.38834495
0.02940399
-0.36434048
0.02772304
-0.30753256
0.019388223
-0.17994044
0.014417656