/*--------------------------------*- C++ -*----------------------------------*\
| =========                 |                                                 |
| \\      /  F ield         | foam-extend: Open Source CFD                    |
|  \\    /   O peration     | Version:     4.1                                |
|   \\  /    A nd           | Web:         http://www.foam-extend.org         |
|    \\/     M anipulation  |                                                 |
\*---------------------------------------------------------------------------*/
FoamFile
{
    version     2.0;
    format      ascii;
    class       volScalarField;
    location    "0.15";
    object      rAU;
}
// * * * * * * * * * * * * * * * * * * * * * * * * * * * * * * * * * * * * * //

dimensions      [0 0 1 0 0 0 0];

internalField   nonuniform List<scalar> 
4393
(
0.0002264767
0.00022617429
0.00022588025
0.0002255792
0.00022526907
0.00022494841
0.00022461479
0.00022426687
0.00022390362
0.00022352458
0.00022313
0.00022272097
0.00022229948
0.00022186852
0.00022143185
0.00022099495
0.00022056296
0.00022014221
0.00021973974
0.00021936258
0.00021901803
0.00021871342
0.00021845602
0.00021825291
0.00021811075
0.0002180356
0.00021803234
0.00021803234
0.00021810459
0.00021825388
0.00021847883
0.00021877501
0.00021913485
0.00021954797
0.00022000182
0.0002204826
0.00022097615
0.00022146896
0.00022194882
0.00022240525
0.00022282973
0.00022321569
0.00022355837
0.00022385454
0.00022410225
0.00022430063
0.00022444979
0.00022455031
0.00022458747
0.0002234426
0.00022319155
0.00022295625
0.0002227129
0.00022245872
0.000222192
0.00022191041
0.0002216129
0.00022129882
0.00022096821
0.00022062193
0.00022026178
0.00021989056
0.00021951213
0.00021913112
0.00021875389
0.00021838633
0.0002180354
0.0002177086
0.00021741329
0.00021715695
0.00021694699
0.00021679072
0.0002166951
0.0002166666
0.00021671084
0.0002167851
0.00021676371
0.00021681283
0.00021693984
0.00021714665
0.00021743223
0.00021779197
0.00021821776
0.00021869828
0.00021922
0.00021976815
0.00022032793
0.00022088544
0.00022142836
0.00022194632
0.00022243106
0.00022287634
0.0002232777
0.00022363211
0.00022393757
0.00022419329
0.00022440093
0.00022454751
0.00022303333
0.00022279357
0.00022256305
0.00022232201
0.00022206769
0.00022179854
0.00022151238
0.00022120843
0.00022088638
0.00022054674
0.00022019096
0.00021982152
0.00021944206
0.00021905732
0.00021867292
0.00021829614
0.00021793374
0.00021759341
0.00021728321
0.00021701087
0.00021678411
0.0002166105
0.00021649742
0.00021645189
0.00021648028
0.000216588
0.00021663721
0.00021653557
0.00021650811
0.00021656211
0.00021670283
0.00021693241
0.00021724881
0.00021764552
0.00021811167
0.00021863314
0.00021919376
0.00021977682
0.00022036629
0.00022094778
0.00022150905
0.00022204026
0.0002225339
0.00022298457
0.00022338853
0.00022374333
0.00022404795
0.00022430281
0.00022448782
0.00022274765
0.00022251355
0.00022228346
0.00022203992
0.0002217804
0.00022150352
0.00022120724
0.00022089095
0.00022055463
0.00022019919
0.00021982658
0.00021943998
0.00021904382
0.00021864384
0.00021824668
0.00021786072
0.00021749375
0.00021715435
0.00021685126
0.00021659273
0.00021638683
0.00021624141
0.00021616407
0.00021616207
0.000216242
0.00021640935
0.00021643534
0.00021625301
0.000216146
0.00021612507
0.00021619923
0.00021637411
0.00021665036
0.00021702287
0.00021748083
0.00021800893
0.00021858898
0.00021920185
0.00021982902
0.0002204538
0.000221062
0.00022164223
0.00022218586
0.00022268668
0.00022314047
0.00022354463
0.000223898
0.00022420004
0.00022443206
0.00022245131
0.00022222193
0.00022199295
0.0002217475
0.00022148324
0.00022119887
0.00022089242
0.00022056346
0.00022021215
0.00021983972
0.00021944862
0.00021904264
0.00021862705
0.00021820857
0.00021779502
0.00021739597
0.00021702039
0.00021667785
0.00021637787
0.00021612924
0.00021594041
0.00021581951
0.00021577447
0.00021581292
0.00021594192
0.00021616741
0.00021618161
0.00021591412
0.0002157235
0.00021562448
0.00021563043
0.00021575106
0.00021598997
0.00021634337
0.0002168
0.00021734265
0.00021795038
0.00021860093
0.00021927281
0.00021994676
0.00022060655
0.00022123929
0.00022183534
0.00022238789
0.00022289245
0.00022334641
0.00022374853
0.00022409817
0.0002243788
0.00022213847
0.00022191439
0.00022168759
0.00022144125
0.00022117311
0.00022088189
0.00022056567
0.00022022404
0.00021985733
0.000219467
0.00021905589
0.0002186284
0.00021819062
0.00021775032
0.00021731659
0.00021690037
0.00021651198
0.00021616213
0.00021586119
0.00021561851
0.00021544289
0.00021534276
0.0002153264
0.00021540199
0.00021557735
0.00021585931
0.0002158777
0.00021551923
0.00021523928
0.00021505722
0.00021499165
0.00021505718
0.00021526093
0.00021560035
0.00021606314
0.00021662928
0.00021727404
0.00021797122
0.00021869574
0.00021942543
0.00022014191
0.00022083088
0.00022148186
0.00022208769
0.00022264388
0.00022314807
0.00022359919
0.00022399715
0.00022432702
0.0002218098
0.00022159169
0.00022136812
0.00022112195
0.00022085087
0.00022055353
0.00022022796
0.00021987372
0.00021949117
0.00021908193
0.00021864915
0.00021819777
0.00021773468
0.0002172688
0.00021681062
0.00021637269
0.00021596691
0.0002156053
0.00021529916
0.00021505839
0.00021489207
0.00021480885
0.00021481741
0.00021492661
0.00021514533
0.00021548186
0.00021552587
0.00021506914
0.00021469232
0.0002144202
0.00021427786
0.00021428609
0.00021445633
0.00021478731
0.0002152649
0.00021586503
0.00021655788
0.00021731221
0.0002180986
0.00021889157
0.00021967052
0.00022041981
0.00022112837
0.00022178897
0.00022239743
0.00022295184
0.00022345167
0.00022389777
0.00022427645
0.00022146746
0.00022125676
0.00022103762
0.00022079268
0.00022051956
0.00022021679
0.00021988224
0.00021951536
0.00021911641
0.00021868704
0.00021823063
0.00021775255
0.00021726052
0.00021676465
0.00021627705
0.00021581218
0.0002153838
0.00021500553
0.00021468966
0.00021444657
0.00021428548
0.00021421513
0.00021424452
0.00021438332
0.00021464186
0.00021503043
0.0002151279
0.00021456401
0.00021408056
0.00021370885
0.00021348203
0.00021342896
0.00021356669
0.00021389534
0.00021439786
0.00021504444
0.00021579842
0.00021662213
0.00021748094
0.00021834565
0.00021919336
0.00022000732
0.00022077617
0.00022149298
0.00022215419
0.00022275869
0.00022330678
0.00022380042
0.00022422706
0.00022111293
0.00022091031
0.00022069668
0.00022045409
0.00022017997
0.00021987261
0.00021952962
0.0002191502
0.00021873439
0.00021828373
0.00021780164
0.00021729389
0.00021676892
0.00021623814
0.00021571552
0.00021521781
0.00021476113
0.00021436095
0.00021403069
0.00021378106
0.00021362114
0.00021355952
0.00021360535
0.00021376922
0.00021406323
0.00021450046
0.00021468697
0.00021400517
0.00021340279
0.00021291882
0.00021259669
0.00021247607
0.00021258164
0.00021291506
0.00021345485
0.00021416304
0.00021499381
0.00021590129
0.00021684459
0.0002177904
0.00021871359
0.00021959661
0.00022042826
0.00022120232
0.00022191631
0.00022257026
0.00022316563
0.00022370569
0.00022417899
0.00022074839
0.00022055601
0.00022034937
0.00022011038
0.00021983634
0.00021952524
0.00021917437
0.00021878251
0.00021834933
0.00021787605
0.000217366
0.00021682513
0.00021626259
0.00021569111
0.00021512684
0.00021458936
0.00021409777
0.00021366987
0.00021332028
0.00021305982
0.00021289701
0.00021283983
0.00021289735
0.000213081
0.00021340507
0.00021388621
0.00021420673
0.0002133943
0.00021265766
0.00021204484
0.00021161246
0.00021141501
0.00021148791
0.0002118347
0.00021242714
0.00021321569
0.0002141422
0.00021515038
0.00021619194
0.00021722915
0.00021823488
0.00021919126
0.00022008785
0.00022091976
0.00022168604
0.00022238829
0.00022302944
0.00022361425
0.0002241325
0.00022037619
0.00022019413
0.0002199955
0.00021976135
0.00021948861
0.00021917486
0.00021881691
0.00021841298
0.00021796216
0.00021746514
0.00021692489
0.00021634739
0.00021574228
0.00021512369
0.00021451028
0.00021392518
0.00021339137
0.00021292964
0.00021255593
0.00021228073
0.00021211135
0.0002120545
0.00021211869
0.00021231606
0.0002126634
0.00021318188
0.0002136928
0.00021273485
0.00021184506
0.00021108186
0.00021051876
0.00021023098
0.0002102696
0.00021064063
0.00021130543
0.00021219792
0.00021324332
0.00021437217
0.00021552756
0.00021666724
0.00021776258
0.00021879621
0.00021975925
0.00022064886
0.00022146619
0.00022221488
0.00022289965
0.00022352696
0.00022408796
0.00021999785
0.00021982937
0.0002196407
0.00021941297
0.000219143
0.00021882792
0.00021846395
0.00021804856
0.00021758004
0.00021705826
0.00021648555
0.00021586754
0.00021521421
0.00021454098
0.00021386937
0.0002132271
0.0002126423
0.00021213974
0.00021173684
0.00021144313
0.00021126369
0.00021120301
0.00021126836
0.00021147223
0.00021183414
0.00021238082
0.00021308455
0.00021203194
0.00021096608
0.00021002476
0.00020930296
0.00020890526
0.00020890647
0.00020931602
0.00021007904
0.0002111056
0.00021229835
0.00021357139
0.00021485805
0.00021611184
0.00021730361
0.00021841762
0.00021944766
0.0002203938
0.00022126001
0.00022205242
0.00022277791
0.00022344481
0.00022404581
0.00021961817
0.00021946221
0.00021928429
0.00021906435
0.00021879862
0.00021848366
0.00021811491
0.00021768893
0.0002172029
0.00021665554
0.00021604814
0.00021538563
0.0002146779
0.00021394144
0.00021320105
0.00021249031
0.0002118445
0.00021129383
0.00021085739
0.00021054275
0.00021035117
0.0002102835
0.00021034475
0.00021054719
0.00021091306
0.00021147576
0.00021227744
0.00021129342
0.00021002429
0.00020886936
0.0002079505
0.00020741435
0.00020737271
0.00020784027
0.0002087362
0.0002099358
0.00021131109
0.00021275588
0.000214193
0.00021557266
0.00021686683
0.00021806309
0.00021915928
0.00022015947
0.00022107121
0.00022190363
0.00022266606
0.00022336893
0.00022400659
0.00021923553
0.00021909695
0.00021893237
0.00021872226
0.00021846281
0.00021814999
0.0002177784
0.00021734346
0.00021684096
0.00021626803
0.00021562438
0.00021491372
0.00021414526
0.00021333608
0.00021251436
0.0002117213
0.00021100224
0.00021039513
0.00020992102
0.00020958386
0.00020937877
0.00020930107
0.00020935224
0.00020954352
0.00020989959
0.00021046155
0.00021128494
0.00021053168
0.00020902686
0.00020761329
0.00020644465
0.00020572788
0.00020563422
0.0002061875
0.0002072639
0.00020868761
0.00021028898
0.00021193752
0.00021354564
0.00021506233
0.0002164633
0.00021774174
0.00021890135
0.00021995144
0.00022090395
0.00022177149
0.00022256615
0.00022330057
0.00022397087
0.00021886083
0.00021873675
0.00021858592
0.00021838715
0.00021813585
0.00021782719
0.00021745475
0.00021701259
0.00021649473
0.00021589622
0.00021521457
0.00021445153
0.00021361487
0.00021272131
0.00021180225
0.00021090875
0.00021010074
0.00020942769
0.0002089131
0.00020855482
0.00020833825
0.00020825042
0.00020828767
0.00020845883
0.00020878996
0.0002093304
0.00021015204
0.00020976361
0.00020798612
0.00020625779
0.00020476702
0.00020380624
0.00020364494
0.00020432491
0.00020564828
0.00020736372
0.00020924498
0.00021113374
0.00021293383
0.00021459698
0.00021610647
0.00021746426
0.00021868206
0.00021977583
0.00022076267
0.00022165915
0.0002224803
0.00022324103
0.00022393928
0.00021848354
0.00021838102
0.0002182473
0.00021806245
0.00021782199
0.00021752048
0.00021715039
0.00021670424
0.00021617401
0.00021555209
0.00021483296
0.00021401552
0.00021310501
0.00021211624
0.0002110826
0.00021006755
0.00020915252
0.00020840443
0.00020784973
0.00020747584
0.0002072527
0.00020715522
0.00020717293
0.00020731091
0.00020759507
0.00020808325
0.0002088677
0.00020901553
0.00020692264
0.0002048108
0.00020289898
0.00020159735
0.00020134064
0.00020221039
0.00020387547
0.00020597296
0.00020820008
0.00021036938
0.00021238121
0.00021419668
0.00021581231
0.0002172428
0.0002185104
0.00021963915
0.00022065203
0.00022156986
0.00022241069
0.00022319167
0.00022391246
0.00021813036
0.00021804389
0.00021792721
0.00021775814
0.00021753121
0.00021724005
0.00021687587
0.0002164294
0.00021589013
0.00021524709
0.00021449064
0.00021361552
0.00021262307
0.00021152381
0.00021035024
0.00020918063
0.00020812898
0.00020729002
0.00020669434
0.00020631257
0.00020609068
0.00020598678
0.00020598262
0.00020607852
0.00020629683
0.00020670176
0.00020740894
0.00020820692
0.00020586516
0.0002032918
0.00020082622
0.00019903324
0.00019862864
0.00019978961
0.00020193369
0.00020453471
0.00020718724
0.00020967927
0.00021191847
0.00021388593
0.00021559923
0.00021709071
0.00021839585
0.00021954803
0.00022057664
0.00022150679
0.00022235944
0.00022315379
0.00022389106
0.00021777565
0.00021771522
0.00021761992
0.00021746973
0.0002172596
0.0002169825
0.00021662839
0.00021618615
0.00021564262
0.00021498296
0.00021419231
0.00021325985
0.00021218157
0.00021096073
0.00020962288
0.00020826193
0.00020704177
0.00020610258
0.00020547999
0.00020511677
0.00020491992
0.00020482313
0.00020479954
0.00020484371
0.00020496812
0.0002052383
0.00020579785
0.00020684506
0.00020487363
0.00020174666
0.00019855063
0.00019603018
0.00019537211
0.00019699345
0.00019981784
0.00020308604
0.00020625693
0.00020911137
0.00021158452
0.00021369369
0.00021548771
0.00021702203
0.00021834788
0.00021950886
0.00022054078
0.00022147282
0.00022232846
0.00022312858
0.00022387568
0.00021748873
0.00021744504
0.00021736981
0.00021724019
0.00021705007
0.00021679154
0.00021645335
0.0002160225
0.00021548292
0.00021481522
0.00021399767
0.00021301123
0.00021184429
0.00021048901
0.00020895257
0.00020733955
0.00020589103
0.00020482502
0.00020418273
0.00020386241
0.00020370792
0.00020361994
0.00020356697
0.00020354322
0.00020354442
0.00020362965
0.00020397429
0.00020484241
0.00020400566
0.0002002586
0.00019612659
0.00019251141
0.00019137208
0.00019373818
0.00019753812
0.0002016934
0.00020548538
0.00020873059
0.00021142756
0.00021365303
0.00021549941
0.00021705062
0.00021837529
0.00021952721
0.00022054807
0.00022147031
0.0002223193
0.00022311704
0.00022386682
0.00021727702
0.00021726314
0.00021721524
0.00021711244
0.00021694913
0.00021671677
0.0002164029
0.0002159925
0.00021546642
0.00021480037
0.00021396449
0.00021292892
0.00021167267
0.00021017551
0.00020840973
0.00020647182
0.00020472222
0.00020351957
0.00020290557
0.00020270892
0.00020266618
0.00020263363
0.00020258317
0.00020252024
0.00020240465
0.00020226403
0.00020229675
0.00020284739
0.00020337005
0.00019914383
0.00019378589
0.000188489
0.00018636002
0.00018994079
0.0001951453
0.00020047503
0.00020498703
0.0002086231
0.00021150507
0.00021379963
0.00021565557
0.00021718883
0.00021848521
0.00021960729
0.00022060102
0.00022150087
0.00022233304
0.00022311988
0.00022386488
0.00021745452
0.00021746342
0.00021744376
0.00021737144
0.00021724005
0.00021704057
0.00021675994
0.00021638203
0.00021588553
0.00021524217
0.00021441373
0.00021335586
0.00021203328
0.00021041254
0.000208406
0.00020604609
0.00020386895
0.000202508
0.000201979
0.00020201218
0.00020215058
0.0002021943
0.00020213097
0.00020201025
0.00020172759
0.00020124491
0.00020079276
0.00020081044
0.00020184188
0.00019873038
0.00019199093
0.00018429172
0.00018007538
0.00018562625
0.00019281129
0.00019963859
0.00020493034
0.00020889922
0.00021188169
0.00021416864
0.00021597433
0.00021744567
0.000218682
0.00021975115
0.00022070068
0.00022156509
0.00022237009
0.00022313741
0.00022387007
0.00021841099
0.0002184557
0.00021848025
0.00021845653
0.00021837808
0.00021823587
0.00021801682
0.00021770404
0.00021727408
0.00021669422
0.00021591621
0.00021487452
0.00021350863
0.00021177641
0.00020951694
0.0002065819
0.00020374207
0.0002022341
0.00020193302
0.00020245996
0.00020296631
0.00020320176
0.00020318663
0.00020311652
0.00020279248
0.00020201213
0.00020107902
0.00020038767
0.00020120787
0.00020066966
0.00019255298
0.00018133655
0.00017242697
0.00018119482
0.00019089364
0.0001995055
0.00020555068
0.00020969207
0.00021262279
0.00021478883
0.00021646686
0.00021782453
0.00021896592
0.00021995807
0.00022084619
0.00022166232
0.00022243009
0.00022316954
0.00022388243
0.00022174778
0.0002218647
0.00022196858
0.00022202729
0.00022203561
0.00022198532
0.00022186457
0.00022165741
0.00022134035
0.00022087939
0.00022022165
0.00021928381
0.0002179729
0.00021625105
0.00021390668
0.00021035817
0.00020650507
0.00020508775
0.00020537529
0.00020703294
0.00020830148
0.00020900268
0.00020917293
0.00020942534
0.00020937914
0.00020819675
0.00020658813
0.00020443077
0.00020502531
0.00020359769
0.00019751454
0.00018229791
0.00016367763
0.00017791689
0.00019015302
0.00020075036
0.00020721763
0.00021115752
0.00021378206
0.00021567329
0.00021713213
0.00021832053
0.00021933192
0.00022022392
0.00022103455
0.00022179056
0.00022251183
0.00022321564
0.00022390176
0.00022898872
0.00022917687
0.0002293829
0.00022955523
0.00022968816
0.0002297762
0.00022981235
0.00022978644
0.00022968104
0.00022946772
0.00022909724
0.00022847212
0.00022743459
0.00022589601
0.00022363505
0.00021924828
0.00021286792
0.00021171683
0.00021274395
0.00021664675
0.00021913799
0.00022064797
0.00022087359
0.00022166124
0.0002227118
9.3237264e-05
9.5803468e-05
9.7779004e-05
9.9652037e-05
0.00010221414
9.4297551e-05
8.6558658e-05
0.00010602258
0.00018111646
0.00019483413
0.00020534557
0.00021050028
0.00021342724
0.00021536843
0.00021680415
0.0002179508
0.00021891832
0.00021976888
0.00022054096
0.00022126052
0.00022194643
0.00022261326
0.00022327462
0.00022392762
0.00024718785
0.00024764275
0.00024811771
0.00024856383
0.00024899152
0.00024940744
0.00024981856
0.00025023043
0.00025064257
0.00025104212
0.00025139092
0.00025158658
0.00025139058
0.00025057676
0.00024914045
0.00024511367
0.00023292671
0.00023649066
0.00024209668
0.00025676374
0.00026584129
0.00027357262
0.00012839258
0.00016432563
0.0002978358
0.00045274636
0.00049956686
0.00049956686
0.00049956686
0.00049956686
0.00049956686
0.00045067267
0.00033742895
6.828261e-05
0.00021445887
0.0002146623
0.00021538846
0.0002163544
0.0002172731
0.00021811293
0.00021888054
0.00021959131
0.00022025973
0.00022089812
0.0002215169
0.0002221253
0.00022273155
0.00022334492
0.00022395936
0.00028267532
0.00028355757
0.00028449921
0.00028544088
0.00028641074
0.00028744409
0.00028858416
0.0002898812
0.00029139337
0.00029318688
0.00029533384
0.00029792685
0.00030107869
0.00030516219
0.00031161752
0.00031968605
0.00028522872
0.00032304434
0.00037192312
0.00032604643
0.00029166572
0.00032360898
0.00049956686
0.00049956686
0.00049956686
0.00049956686
0.00049956686
0.00049956686
0.00049956686
0.00049956686
0.00041168891
0.00041668099
0.00010170847
0.00026638602
0.00023247829
0.00022321547
0.00022022053
0.00021934583
0.00021925376
0.00021948554
0.00021986105
0.00022030474
0.00022078327
0.00022128194
0.00022179506
0.00022232165
0.00022286329
0.0002234246
0.00022399613
0.00032489688
0.00032631316
0.00032751479
0.00032873744
0.00033007956
0.00033162643
0.00033345956
0.00033567659
0.00033841435
0.00034188466
0.00034637567
0.00035229414
0.00035977928
0.0003707489
0.0003876102
0.00039194982
0.00028605507
0.00023940068
0.00035198062
0.00048509906
0.00048874305
0.00049247839
0.00047866671
0.0004736733
0.00047739016
0.00045842338
0.00045142162
0.000453199
0.00044040305
0.00043572693
0.00010625513
0.00010703575
0.00021748926
0.0002498993
0.00023815087
0.00022841122
0.00022397591
0.00022196764
0.00022110266
0.00022081389
0.00022083182
0.00022102271
0.00022131718
0.00022167816
0.00022208569
0.00022252945
0.00022300467
0.00022351146
0.00022403694
0.0002873484
0.00028730284
0.00028705387
0.00028685609
0.000286695
0.00028659989
0.00028660002
0.00028674132
0.00028708883
0.00028773916
0.00028831256
0.00028915011
0.00029013395
0.00029187991
0.00029045773
0.00010390898
0.00037706898
0.00046552324
0.00048598222
0.0004937749
0.00048603255
0.0004823166
0.00012415299
0.00012119514
0.00010050288
9.9652631e-05
0.0001001863
0.0001014887
0.00010243529
0.00010398815
0.00020006659
0.00020618882
0.00021604213
0.00023662886
0.00024023069
0.0002315998
0.00022671463
0.00022409324
0.0002227087
0.00022202247
0.00022174412
0.00022171375
0.00022184087
0.0002220731
0.00022237967
0.00022274263
0.00022315178
0.00022360318
0.00022408071
0.00022260596
0.0002224057
0.00022214741
0.00022190415
0.00022169423
0.00022153783
0.00022145528
0.00022147289
0.00022162454
0.00022194534
0.00022166708
0.00022110628
0.00022006711
0.00021820139
0.00021546687
0.00021225437
9.5739597e-05
9.8828041e-05
9.9524669e-05
9.9416131e-05
9.9760689e-05
9.9772491e-05
0.00021206541
0.00021032938
0.00020841412
0.00020498531
0.0002038186
0.00020318389
0.00020130508
0.0002011826
0.00020216298
0.00020756897
0.00021642911
0.00023021059
0.00023724187
0.0002331699
0.00022851032
0.00022569009
0.00022402021
0.00022306631
0.00022256412
0.00022235367
0.00022233733
0.00022245483
0.00022266866
0.00022295546
0.00022330081
0.00022369743
0.00022412631
0.00021916908
0.00021922934
0.00021936643
0.00021953212
0.00021973259
0.00021997503
0.00022026681
0.00022061824
0.00022104253
0.00022137937
0.00022105276
0.0002205291
0.00021968468
0.00021836867
0.00021668982
0.00021402008
0.000211705
0.00021321731
0.00021504745
0.00021381966
0.00021195834
0.00021076213
0.00020956895
0.00020781112
0.00020673261
0.0002050684
0.00020410817
0.00020346392
0.00020264548
0.00020299126
0.00020480583
0.00020953391
0.00021696658
0.00022644994
0.00023225867
0.00023326945
0.00022957464
0.00022681227
0.0002250355
0.00022392809
0.00022327302
0.0002229264
0.00022279392
0.00022281383
0.00022294565
0.00022316288
0.00022344828
0.000223792
0.00022417267
0.0002178705
0.00021794587
0.0002180777
0.00021823497
0.00021841857
0.00021863261
0.00021888167
0.00021917261
0.00021951361
0.00021953279
0.00021913082
0.00021853998
0.0002176898
0.00021653874
0.00021516304
0.00021342297
0.00021240346
0.00021328044
0.00021464543
0.00021308128
0.0002114617
0.00021021252
0.00020902085
0.00020776659
0.00020676699
0.00020566158
0.00020495801
0.00020453139
0.00020437358
0.00020514262
0.00020724912
0.00021137233
0.00021736607
0.00022417834
0.00022892038
0.00023149123
0.00023009366
0.00022753764
0.00022577922
0.00022460967
0.00022386431
0.00022342338
0.00022320252
0.0002231432
0.00022320512
0.0002233607
0.00022359115
0.0002238849
0.00022421878
0.00021719552
0.00021731482
0.00021746149
0.00021762913
0.00021782228
0.0002180446
0.00021829876
0.00021858834
0.000218916
0.00021880713
0.00021844721
0.0002179287
0.00021721176
0.00021627383
0.00021514959
0.00021393658
0.00021336618
0.00021389209
0.00021465089
0.00021300611
0.00021157915
0.00021039484
0.00020930163
0.00020828076
0.00020741732
0.00020663593
0.00020616532
0.00020598841
0.00020620933
0.00020721089
0.00020931337
0.00021285014
0.00021763288
0.00022274513
0.00022663961
0.00022908351
0.00022980083
0.00022795029
0.00022628958
0.00022512506
0.0002243405
0.00022384218
0.00022355898
0.00022343858
0.00022344315
0.00022354566
0.00022372693
0.00022397443
0.00022426374
0.00021692779
0.00021699963
0.00021711976
0.00021726542
0.00021743392
0.00021762679
0.00021784516
0.00021809084
0.00021834892
0.00021813327
0.00021779574
0.00021734134
0.00021675586
0.00021603655
0.00021522202
0.00021445784
0.00021417976
0.00021458789
0.00021463107
0.00021320026
0.00021194397
0.00021086447
0.00020989558
0.00020903689
0.00020832114
0.00020775872
0.00020746841
0.00020748421
0.00020792132
0.00020901949
0.00021099744
0.00021400697
0.00021784287
0.00022181924
0.00022504708
0.00022728082
0.00022859883
0.00022812709
0.00022660824
0.00022549458
0.00022470995
0.00022418491
0.00022386241
0.00022369783
0.00022365727
0.00022371545
0.0002238537
0.0002240592
0.00022430678
0.0002167909
0.00021690641
0.00021703732
0.00021718278
0.00021734637
0.00021752952
0.00021773155
0.0002179515
0.00021813168
0.00021790131
0.00021758928
0.00021718478
0.00021668694
0.00021610767
0.00021549955
0.00021500432
0.00021488184
0.00021523637
0.0002147006
0.00021347914
0.00021238388
0.00021142471
0.00021058066
0.00020985883
0.00020928182
0.00020888191
0.00020873291
0.00020888599
0.00020944164
0.00021055581
0.00021236665
0.00021492719
0.00021804253
0.00022122426
0.00022392562
0.00022593008
0.00022723896
0.00022778575
0.00022677413
0.00022574061
0.00022498426
0.00022445674
0.00022411436
0.00022392062
0.00022384631
0.00022386863
0.00022397008
0.00022413813
0.00022434732
0.0002167238
0.00021679132
0.00021689939
0.0002170281
0.00021717415
0.00021733729
0.00021751589
0.00021770794
0.0002178147
0.00021761289
0.00021734827
0.0002170169
0.00021662392
0.00021618743
0.00021576122
0.00021546081
0.0002154457
0.00021568772
0.00021480607
0.0002137723
0.00021282899
0.00021199479
0.00021127154
0.00021067211
0.00021021891
0.00020994711
0.00020991024
0.00021016019
0.00021077681
0.00021186246
0.00021349799
0.00021568425
0.00021825119
0.00022085445
0.00022313703
0.00022492059
0.00022617288
0.00022695225
0.00022682299
0.00022588537
0.00022517639
0.00022466463
0.0002243181
0.00022410805
0.00022401013
0.0002240045
0.00022407524
0.0002242105
0.00022438489
0.0002166726
0.00021676488
0.00021687354
0.00021699358
0.00021712629
0.00021727154
0.00021742688
0.00021758924
0.00021764157
0.00021745795
0.00021722586
0.0002169472
0.00021663194
0.00021630247
0.00021600889
0.00021583966
0.0002158962
0.0002158227
0.00021493173
0.00021406236
0.00021325967
0.00021254759
0.00021193927
0.00021145156
0.0002111076
0.00021094026
0.00021099195
0.00021130868
0.00021195081
0.00021298459
0.00021445241
0.00021632941
0.00021847426
0.00022064216
0.00022258842
0.00022417011
0.00022534273
0.00022613119
0.00022653695
0.00022594861
0.00022529923
0.00022481635
0.00022447791
0.00022426215
0.00022414946
0.00022412301
0.00022416878
0.00022427583
0.00022441919
0.00021664183
0.00021670476
0.00021679886
0.00021690752
0.00021702777
0.00021715834
0.00021729602
0.00021743708
0.00021746318
0.00021730789
0.00021711625
0.00021689307
0.00021665051
0.00021641205
0.00021622155
0.00021614577
0.00021625262
0.00021581048
0.00021507376
0.00021434814
0.00021367397
0.00021307723
0.00021257638
0.0002121905
0.00021194261
0.00021186199
0.00021198332
0.00021234474
0.0002129903
0.00021396149
0.00021527609
0.00021689841
0.00021871386
0.00022054547
0.00022221898
0.00022362094
0.00022470477
0.00022547626
0.0002259723
0.00022594851
0.00022536508
0.00022491984
0.00022459863
0.00022438564
0.00022426559
0.00022422463
0.00022425068
0.00022433392
0.00022445003
0.00021661714
0.00021668717
0.00021677594
0.00021687394
0.00021698047
0.00021709436
0.00021721221
0.00021733012
0.00021733658
0.0002172037
0.000217045
0.00021686724
0.00021668351
0.0002165164
0.00021640276
0.00021639284
0.00021639303
0.00021583828
0.00021523119
0.00021463119
0.00021407334
0.00021358339
0.0002131817
0.00021288807
0.00021272442
0.00021271635
0.00021289229
0.0002132825
0.00021391812
0.00021482364
0.00021600179
0.00021741407
0.0002189685
0.00022053462
0.00022198456
0.00022322831
0.00022422191
0.00022496069
0.00022546605
0.0002257474
0.00022538473
0.0002249827
0.00022468524
0.00022448159
0.00022436026
0.00022431019
0.00022432124
0.0002243848
0.00022447736
0.00021660464
0.00021665973
0.00021673894
0.00021682776
0.00021692363
0.00021702486
0.00021712778
0.00021722836
0.00021722748
0.00021711826
0.00021699118
0.00021685397
0.0002167198
0.00021660948
0.00021655348
0.00021659015
0.00021636651
0.00021589876
0.0002154023
0.00021491244
0.00021445931
0.00021406707
0.00021375607
0.00021354563
0.00021345594
0.00021350899
0.00021372788
0.00021413585
0.0002147541
0.00021559555
0.00021665418
0.00021789273
0.00021923747
0.0002205903
0.0002218551
0.00022296028
0.00022386639
0.00022456343
0.00022506282
0.0002253886
0.00022536806
0.00022501204
0.00022474268
0.00022455323
0.00022443545
0.00022438079
0.00022438097
0.00022442865
0.00022450121
0.00021659778
0.00021665137
0.0002167239
0.00021680334
0.00021688793
0.00021697608
0.00021706417
0.00021714837
0.00021714267
0.00021705397
0.00021695393
0.00021685054
0.00021675641
0.00021669006
0.00021667647
0.00021667555
0.00021636578
0.00021598527
0.0002155844
0.00021519157
0.00021483248
0.00021452909
0.00021430058
0.00021416502
0.00021414045
0.00021424548
0.00021449854
0.00021491691
0.00021551429
0.00021629587
0.00021725085
0.00021834503
0.00021951908
0.0002206979
0.00022180782
0.00022279162
0.00022361491
0.00022426546
0.0002247484
0.0002250801
0.00022525283
0.00022501416
0.00022477558
0.00022460378
0.00022449327
0.00022443771
0.00022443058
0.00022446579
0.00022452168
0.00021659853
0.0002166442
0.00021670968
0.00021678126
0.00021685665
0.00021693415
0.00021701023
0.00021708133
0.0002170735
0.00021700359
0.00021692712
0.00021685203
0.00021678999
0.00021675723
0.00021677422
0.00021666673
0.00021639669
0.00021609195
0.00021577461
0.00021546774
0.00021519316
0.00021497034
0.00021481676
0.00021474868
0.00021478183
0.00021493164
0.00021521248
0.00021563672
0.00021621245
0.00021693973
0.00021780548
0.00021877914
0.00021981268
0.00022084763
0.00022182667
0.00022270386
0.00022344975
0.00022405172
0.00022451107
0.0002248389
0.000225052
0.00022499482
0.0002247883
0.0002246364
0.00022453588
0.00022448235
0.00022447088
0.0002244966
0.00022453891
0.00021660403
0.00021664587
0.00021670537
0.00021676943
0.00021683605
0.00021690364
0.0002169689
0.00021702864
0.00021701798
0.00021696432
0.00021690766
0.00021685554
0.00021681854
0.0002168107
0.00021682358
0.000216666
0.00021645136
0.0002162133
0.00021596968
0.00021573943
0.00021554099
0.00021539133
0.00021530588
0.00021529889
0.0002153837
0.00021557277
0.00021587693
0.00021630456
0.00021685957
0.00021753868
0.00021832798
0.00021920053
0.00022011715
0.0002210317
0.00022189901
0.00022268207
0.00022335603
0.00022390891
0.00022433989
0.00022465649
0.00022487153
0.00022495314
0.00022478469
0.00022465401
0.00022456539
0.0002245161
0.00022450269
0.00022452153
0.0002245531
0.00021661404
0.000216651
0.00021670507
0.0002167627
0.00021682183
0.000216881
0.00021693716
0.00021698756
0.00021697259
0.00021693294
0.00021689271
0.00021685887
0.00021684088
0.00021685079
0.00021682781
0.00021668821
0.00021652336
0.00021634462
0.00021616668
0.00021600519
0.00021587567
0.00021579268
0.00021576951
0.00021581826
0.00021594991
0.00021617417
0.00021649883
0.00021692896
0.00021746537
0.00021810258
0.00021882669
0.00021961407
0.00022043251
0.00022124516
0.00022201609
0.00022271548
0.0002233226
0.00022382671
0.00022422603
0.00022452578
0.00022473592