/*--------------------------------*- C++ -*----------------------------------*\
| =========                 |                                                 |
| \\      /  F ield         | foam-extend: Open Source CFD                    |
|  \\    /   O peration     | Version:     4.1                                |
|   \\  /    A nd           | Web:         http://www.foam-extend.org         |
|    \\/     M anipulation  |                                                 |
\*---------------------------------------------------------------------------*/
FoamFile
{
    version     2.0;
    format      ascii;
    class       volVectorField;
    location    "0.15";
    object      U;
}
// * * * * * * * * * * * * * * * * * * * * * * * * * * * * * * * * * * * * * //

dimensions      [0 1 -1 0 0 0 0];

internalField   nonuniform List<vector> 
4393
(
(147.46213 -0.12914476 0)
(147.90419 -0.13526954 0)
(148.23941 -0.13791272 0)
(148.5968 -0.14114784 0)
(148.96318 -0.1451296 0)
(149.34295 -0.14995857 0)
(149.73842 -0.15557532 0)
(150.15183 -0.16185497 0)
(150.58496 -0.1686165 0)
(151.03893 -0.17562474 0)
(151.51413 -0.18259013 0)
(152.00995 -0.1891713 0)
(152.52473 -0.19498244 0)
(153.05556 -0.19960723 0)
(153.59828 -0.20261943 0)
(154.14743 -0.20360784 0)
(154.69638 -0.20220124 0)
(155.23745 -0.1980877 0)
(155.76216 -0.19102446 0)
(156.26137 -0.18083818 0)
(156.72555 -0.16741919 0)
(157.1449 -0.15071578 0)
(157.50955 -0.1307344 0)
(157.80973 -0.10755109 0)
(158.03604 -0.081336845 0)
(158.17974 -0.052392814 0)
(158.23334 -0.02117313 0)
(158.19128 0.011704705 0)
(158.04971 0.045194298 0)
(157.80893 0.077931752 0)
(157.47315 0.10852476 0)
(157.05086 0.13559576 0)
(156.55449 0.15793843 0)
(155.99968 0.17466944 0)
(155.40413 0.1853262 0)
(154.78622 0.18988691 0)
(154.1638 0.18871883 0)
(153.55315 0.18247869 0)
(152.96827 0.17199541 0)
(152.42062 0.15815984 0)
(151.91901 0.14183734 0)
(151.46986 0.12380842 0)
(151.07749 0.10473663 0)
(150.74447 0.085170493 0)
(150.4721 0.065594173 0)
(150.26078 0.046450795 0)
(150.10995 0.027889239 0)
(150.01595 0.0097713562 0)
(149.97284 -0.0041108198 0)
(150.88304 -0.31475722 0)
(151.24682 -0.32454579 0)
(151.51422 -0.33145129 0)
(151.80067 -0.34072254 0)
(152.09588 -0.35252565 0)
(152.40435 -0.36693647 0)
(152.72854 -0.38373694 0)
(153.07078 -0.4025432 0)
(153.43292 -0.42281445 0)
(153.81618 -0.44385103 0)
(154.22099 -0.46479145 0)
(154.64686 -0.48461837 0)
(155.09214 -0.50217955 0)
(155.554 -0.51622865 0)
(156.02826 -0.52548637 0)
(156.50944 -0.52871601 0)
(156.99085 -0.52479946 0)
(157.46475 -0.51279638 0)
(157.92253 -0.49197481 0)
(158.35499 -0.46181189 0)
(158.7525 -0.42197653 0)
(159.10518 -0.37231239 0)
(159.40307 -0.31284011 0)
(159.63628 -0.24379525 0)
(159.79522 -0.16570995 0)
(159.87098 -0.079534373 0)
(159.85581 0.013247422 0)
(159.74374 0.11054531 0)
(159.53217 0.20941468 0)
(159.22108 0.30616501 0)
(158.81448 0.39671924 0)
(158.3207 0.47697267 0)
(157.7522 0.54329792 0)
(157.1248 0.59301663 0)
(156.45642 0.62470041 0)
(155.7657 0.63823479 0)
(155.07069 0.63466507 0)
(154.38777 0.61589865 0)
(153.73096 0.58435425 0)
(153.11166 0.54263243 0)
(152.53859 0.49325336 0)
(152.01806 0.43847686 0)
(151.55427 0.38020206 0)
(151.14977 0.3199581 0)
(150.80586 0.25900408 0)
(150.52286 0.19835237 0)
(150.29991 0.13827203 0)
(150.13589 0.078491386 0)
(150.03427 0.025756656 0)
(151.11381 -0.49555142 0)
(151.46407 -0.50275357 0)
(151.72204 -0.51289158 0)
(151.99825 -0.52777592 0)
(152.28324 -0.54730323 0)
(152.58161 -0.57131842 0)
(152.89593 -0.59939791 0)
(153.22863 -0.63088596 0)
(153.58167 -0.66488022 0)
(153.95641 -0.70021548 0)
(154.35343 -0.73545349 0)
(154.77236 -0.76888968 0)
(155.21171 -0.79858634 0)
(155.66873 -0.82244045 0)
(156.13931 -0.8382882 0)
(156.61798 -0.84403663 0)
(157.09799 -0.83779717 0)
(157.57153 -0.81798968 0)
(158.0299 -0.78339374 0)
(158.46383 -0.73314514 0)
(158.86361 -0.66669854 0)
(159.2193 -0.58379032 0)
(159.52084 -0.48443616 0)
(159.75818 -0.36899252 0)
(159.92146 -0.23829658 0)
(160.00137 -0.093887654 0)
(159.98965 0.061736881 0)
(159.87969 0.22495631 0)
(159.66738 0.39093904 0)
(159.35215 0.55364838 0)
(158.93772 0.70616388 0)
(158.43262 0.84144144 0)
(157.84994 0.95323222 0)
(157.2065 1.0369337 0)
(156.52137 1.0901246 0)
(155.81433 1.1126676 0)
(155.10433 1.1064224 0)
(154.40835 1.0747104 0)
(153.74075 1.0216963 0)
(153.11296 0.951817 0)
(152.53355 0.86933441 0)
(152.00853 0.77803485 0)
(151.54179 0.68106792 0)
(151.13555 0.58092221 0)
(150.79085 0.47951814 0)
(150.50755 0.37820891 0)
(150.28438 0.27747732 0)
(150.12203 0.17744489 0)
(150.02823 0.082703748 0)
(151.20146 -0.67321333 0)
(151.54419 -0.68035742 0)
(151.79783 -0.69377132 0)
(152.06945 -0.71432429 0)
(152.35005 -0.74169713 0)
(152.6443 -0.77553582 0)
(152.95495 -0.815217 0)
(153.28463 -0.85982681 0)
(153.63549 -0.90811862 0)
(154.00909 -0.95847716 0)
(154.40626 -1.008896 0)
(154.82682 -1.0569804 0)
(155.26946 -1.0999894 0)
(155.73153 -1.1349292 0)
(156.20892 -1.1587043 0)
(156.69606 -1.1683137 0)
(157.18601 -1.1610538 0)
(157.67066 -1.134676 0)
(158.14106 -1.0874608 0)
(158.58763 -1.0182029 0)
(159.00043 -0.92614066 0)
(159.3693 -0.81088431 0)
(159.68393 -0.6723972 0)
(159.93393 -0.51107318 0)
(160.10898 -0.32793456 0)
(160.19907 -0.12495605 0)
(160.19508 0.094537578 0)
(160.08942 0.32554531 0)
(159.87692 0.56117565 0)
(159.55616 0.79270276 0)
(159.13046 1.0100459 0)
(158.60862 1.2028464 0)
(158.00473 1.3618811 0)
(157.33717 1.4803891 0)
(156.62688 1.5548952 0)
(155.89539 1.585343 0)
(155.16306 1.5746237 0)
(154.44783 1.5277374 0)
(153.76451 1.4508511 0)
(153.12457 1.3504519 0)
(152.53631 1.2327021 0)
(152.00531 1.1030232 0)
(151.53491 0.96589028 0)
(151.12685 0.82480814 0)
(150.78168 0.68240063 0)
(150.49872 0.54044661 0)
(150.27641 0.3999314 0)
(150.11619 0.26165836 0)
(150.02609 0.12841976 0)
(151.31 -0.84360462 0)
(151.64467 -0.85161348 0)
(151.89294 -0.8684563 0)
(152.1591 -0.89481935 0)
(152.43452 -0.93023362 0)
(152.724 -0.97418529 0)
(153.03048 -1.025865 0)
(153.35682 -1.0841114 0)
(153.70544 -1.1473417 0)
(154.0782 -1.2134927 0)
(154.47622 -1.279981 0)
(154.89962 -1.3436975 0)
(155.34732 -1.401054 0)
(155.8168 -1.4481009 0)
(156.30397 -1.4807309 0)
(156.8031 -1.4949537 0)
(157.30695 -1.4871878 0)
(157.80702 -1.4544881 0)
(158.29395 -1.3946446 0)
(158.75778 -1.3061446 0)
(159.18828 -1.1880482 0)
(159.57499 -1.0398592 0)
(159.90732 -0.86147279 0)
(160.17449 -0.65326139 0)
(160.36559 -0.41633489 0)
(160.46973 -0.15298411 0)
(160.47664 0.13275537 0)
(160.37732 0.43461708 0)
(160.16508 0.74370876 0)
(159.8372 1.0484342 0)
(159.39634 1.3351245 0)
(158.85159 1.5895367 0)
(158.21846 1.7989227 0)
(157.51761 1.9540005 0)
(156.77264 2.0501506 0)
(156.0076 2.0875609 0)
(155.24483 2.0704794 0)
(154.50356 2.005964 0)
(153.79915 1.90253 0)
(153.14305 1.7689753 0)
(152.54315 1.6135204 0)
(152.00435 1.4432811 0)
(151.52925 1.2640341 0)
(151.11886 1.0802063 0)
(150.77307 0.8949862 0)
(150.49062 0.7104387 0)
(150.26971 0.5278079 0)
(150.11201 0.34797632 0)
(150.0248 0.1726795 0)
(151.44755 -1.0132517 0)
(151.77221 -1.0224927 0)
(152.0136 -1.0428241 0)
(152.27281 -1.0750763 0)
(152.54167 -1.1187028 0)
(152.82509 -1.1730872 0)
(153.12624 -1.2372728 0)
(153.44826 -1.3098844 0)
(153.79393 -1.3890307 0)
(154.16547 -1.4722181 0)
(154.5644 -1.5562876 0)
(154.99123 -1.6373932 0)
(155.4452 -1.7110459 0)
(155.924 -1.7722529 0)
(156.42356 -1.8157784 0)
(156.93794 -1.8365182 0)
(157.45949 -1.8299097 0)
(157.97921 -1.7922546 0)
(158.48715 -1.7208489 0)
(158.97289 -1.6139038 0)
(159.42581 -1.4703339 0)
(159.83516 -1.2895381 0)
(160.19005 -1.0712872 0)
(160.47927 -0.81580518 0)
(160.69121 -0.52409635 0)
(160.81388 -0.19853451 0)
(160.83553 0.15635176 0)
(160.74528 0.53311421 0)
(160.53433 0.92078806 0)
(160.19808 1.3046253 0)
(159.73808 1.6667716 0)
(159.16375 1.9882766 0)
(158.49249 2.2520626 0)
(157.74815 2.4458086 0)
(156.95802 2.5636552 0)
(156.14958 2.60632 0)
(155.34783 2.5799268 0)
(154.57361 2.4941791 0)
(153.84291 2.3604713 0)
(153.16702 2.1903206 0)
(152.55317 1.9942739 0)
(152.00529 1.7812859 0)
(151.52496 1.5584804 0)
(151.11219 1.331181 0)
(150.76595 1.1030786 0)
(150.48426 0.87644885 0)
(150.26491 0.65257307 0)
(150.10935 0.43191859 0)
(150.02406 0.21523984 0)
(151.61442 -1.1718786 0)
(151.9276 -1.1827366 0)
(152.16059 -1.2069317 0)
(152.41127 -1.2455012 0)
(152.672 -1.2978452 0)
(152.94785 -1.363286 0)
(153.24228 -1.4407579 0)
(153.55877 -1.5287087 0)
(153.9005 -1.6249716 0)
(154.27018 -1.7266452 0)
(154.66982 -1.829999 0)
(155.10044 -1.9304262 0)
(155.56171 -2.0224753 0)
(156.05164 -2.1000028 0)
(156.56617 -2.1564969 0)
(157.09914 -2.1855777 0)
(157.64235 -2.1815735 0)
(158.18607 -2.1399781 0)
(158.71963 -2.0576226 0)
(159.23201 -1.9325275 0)
(159.71214 -1.7635553 0)
(160.14899 -1.5500499 0)
(160.53141 -1.2916286 0)
(160.84778 -0.98823592 0)
(161.08574 -0.64053828 0)
(161.23203 -0.25068333 0)
(161.273 0.17662979 0)
(161.1954 0.63303756 0)
(160.9875 1.1055947 0)
(160.642 1.5760865 0)
(160.15874 2.0216784 0)
(159.54731 2.4175384 0)
(158.82768 2.741077 0)
(158.02801 2.9761755 0)
(157.18065 3.1156054 0)
(156.31771 3.1610296 0)
(155.46759 3.1211728 0)
(154.65307 3.0091686 0)
(153.89077 2.8399638 0)
(153.19161 2.6282771 0)
(152.5618 2.3872674 0)
(152.00396 2.1278499 0)
(151.51828 1.8585018 0)
(151.10351 1.5853832 0)
(150.75748 1.312613 0)
(150.47731 1.0426155 0)
(150.26018 0.77662479 0)
(150.10703 0.51466018 0)
(150.02348 0.25680002 0)
(151.80982 -1.3316658 0)
(152.10883 -1.3439343 0)
(152.33182 -1.3717486 0)
(152.57233 -1.4164571 0)
(152.82335 -1.4774686 0)
(153.0901 -1.5541021 0)
(153.37636 -1.6452404 0)
(153.68601 -1.7492119 0)
(154.02271 -1.8636274 0)
(154.38976 -1.9852187 0)
(154.78979 -2.1097008 0)
(155.22448 -2.2316869 0)
(155.69409 -2.3446924 0)
(156.19701 -2.4412857 0)
(156.72932 -2.5134756 0)
(157.28453 -2.5533737 0)
(157.85372 -2.5540041 0)
(158.42621 -2.5099627 0)
(158.99035 -2.4176489 0)
(159.53436 -2.2750098 0)
(160.04672 -2.0809835 0)
(160.51615 -1.8349271 0)
(160.93134 -1.5362622 0)
(161.28037 -1.184477 0)
(161.55014 -0.77958161 0)
(161.72597 -0.32306898 0)
(161.79191 0.18065746 0)
(161.7317 0.72266653 0)
(161.52973 1.2881629 0)
(161.17482 1.8551489 0)
(160.6641 2.3947901 0)
(160.00712 2.8747304 0)
(159.22713 3.265164 0)
(158.35825 3.5451093 0)
(157.4397 3.7058591 0)
(156.50969 3.7507019 0)
(155.60095 3.6920445 0)
(154.73851 3.5475608 0)
(153.93948 3.336656 0)
(153.214 3.0778642 0)
(152.56677 2.7872884 0)
(151.99864 2.4779135 0)
(151.50801 2.159526 0)
(151.092 1.83899 0)
(150.74708 1.5206804 0)
(150.46931 1.2069807 0)
(150.2551 0.89887674 0)
(150.10469 0.59584899 0)
(150.02293 0.29742261 0)
(152.03316 -1.4728421 0)
(152.31691 -1.4869976 0)
(152.52835 -1.5190987 0)
(152.75696 -1.570754 0)
(152.99649 -1.6413812 0)
(153.25237 -1.7303387 0)
(153.52871 -1.8365136 0)
(153.82986 -1.9581773 0)
(154.16007 -2.0927796 0)
(154.5233 -2.2367358 0)
(154.923 -2.385231 0)
(155.36165 -2.5320812 0)
(155.84029 -2.6696874 0)
(156.35791 -2.7891611 0)
(156.91078 -2.8807649 0)
(157.49202 -2.934781 0)
(158.0918 -2.9426601 0)
(158.6981 -2.8979901 0)
(159.29802 -2.7968216 0)
(159.87881 -2.6372438 0)
(160.42846 -2.4185057 0)
(160.93559 -2.1401288 0)
(161.38893 -1.8013403 0)
(161.77645 -1.4009832 0)
(162.08444 -0.93802099 0)
(162.29669 -0.41272754 0)
(162.39457 0.1714426 0)
(162.35808 0.80559399 0)
(162.16644 1.4734753 0)
(161.80301 2.149055 0)
(161.26067 2.796221 0)
(160.54838 3.3727767 0)
(159.69365 3.8391849 0)
(158.73879 4.1680527 0)
(157.73243 4.349114 0)
(156.72085 4.388337 0)
(155.74215 4.3033694 0)
(154.82385 4.1179353 0)
(153.98321 3.8570597 0)
(153.22897 3.5438236 0)
(152.56368 3.1976291 0)
(151.98576 2.8336131 0)
(151.49135 2.4627876 0)
(151.07556 2.0925541 0)
(150.73326 1.7273523 0)
(150.45924 1.369329 0)
(150.24901 1.0190359 0)
(150.10201 0.6753054 0)
(150.02232 0.33706661 0)
(152.28416 -1.6217183 0)
(152.54882 -1.6372102 0)
(152.74688 -1.672932 0)
(152.96177 -1.730893 0)
(153.18799 -1.8106091 0)
(153.43114 -1.9115519 0)
(153.69574 -2.0326955 0)
(153.98661 -2.1723458 0)
(154.30867 -2.3278876 0)
(154.66674 -2.4955063 0)
(155.06518 -2.6699171 0)
(155.50753 -2.8441508 0)
(155.99585 -3.0094307 0)
(156.52998 -3.1552292 0)
(157.10651 -3.2697308 0)
(157.71817 -3.3409544 0)
(158.35383 -3.3583962 0)
(158.99971 -3.3144838 0)
(159.64116 -3.2050553 0)
(160.26425 -3.0286709 0)
(160.85646 -2.7852373 0)
(161.40652 -2.4746567 0)
(161.90354 -2.0959675 0)
(162.33575 -1.6471212 0)
(162.68908 -1.1255129 0)
(162.94582 -0.52943076 0)
(163.08425 0.13953737 0)
(163.07988 0.87342122 0)
(162.90514 1.6551629 0)
(162.53571 2.454649 0)
(161.95789 3.2269766 0)
(161.17889 3.9168601 0)
(160.2318 4.4712859 0)
(159.17033 4.8541956 0)
(158.05609 5.0538198 0)
(156.94603 5.0804929 0)
(155.88483 4.9593914 0)
(154.90254 4.7223531 0)
(154.01591 4.4014931 0)
(153.23136 4.0252723 0)
(152.54834 3.6167145 0)
(151.9621 3.1930926 0)
(151.46591 2.7664416 0)
(151.0525 2.3444246 0)
(150.71483 1.9312633 0)
(150.44631 1.5286107 0)
(150.24142 1.1363747 0)
(150.09874 0.75261268 0)
(150.02159 0.37555866 0)
(152.56076 -1.7367651 0)
(152.80638 -1.7542081 0)
(152.98958 -1.7944913 0)
(153.18891 -1.8599154 0)
(153.39986 -1.950083 0)
(153.62822 -2.0646367 0)
(153.87891 -2.2027219 0)
(154.15732 -2.3627822 0)
(154.46912 -2.5422501 0)
(154.82009 -2.737188 0)
(155.21575 -2.9419196 0)
(155.66093 -3.1487121 0)
(156.15905 -3.3475425 0)
(156.7111 -3.5260183 0)
(157.31433 -3.6697911 0)
(157.96098 -3.7639702 0)
(158.63825 -3.7954969 0)
(159.3299 -3.7553779 0)
(160.01891 -3.6394305 0)
(160.6898 -3.4471881 0)
(161.32964 -3.1797553 0)
(161.9276 -2.8377788 0)
(162.47367 -2.420203 0)
(162.95691 -1.9238743 0)
(163.36335 -1.3440393 0)
(163.67395 -0.67605897 0)
(163.86361 0.081549913 0)
(163.90248 0.92308412 0)
(163.75425 1.831835 0)
(163.3839 2.7739583 0)
(162.76745 3.6941114 0)
(161.90832 4.5193492 0)
(160.84678 5.1774717 0)
(159.65274 5.6203728 0)
(158.40594 5.8351389 0)
(157.1775 5.8391705 0)
(156.01999 5.6685326 0)
(154.96565 5.365975 0)
(154.02956 4.9725272 0)
(153.21447 4.5229337 0)
(152.51546 4.0440777 0)
(151.92366 3.5552101 0)
(151.42881 3.0690451 0)
(151.0208 2.5931129 0)
(150.69047 2.1310451 0)
(150.4297 1.6836823 0)
(150.23188 1.2500386 0)
(150.0947 0.82722722 0)
(150.02069 0.41264079 0)
(152.86423 -1.875989 0)
(153.08512 -1.8946967 0)
(153.25123 -1.9385659 0)
(153.43287 -2.0104024 0)
(153.62638 -2.1100227 0)
(153.83765 -2.237334 0)
(154.07201 -2.3917602 0)
(154.33544 -2.57201 0)
(154.63446 -2.7757096 0)
(154.97595 -2.9989494 0)
(155.36683 -3.2357884 0)
(155.81353 -3.4778035 0)
(156.32122 -3.7137066 0)
(156.89262 -3.9290374 0)
(157.526 -4.1063854 0)
(158.21319 -4.2270964 0)
(158.93914 -4.2747257 0)
(159.68413 -4.2385485 0)
(160.42783 -4.114768 0)
(161.15273 -3.9047697 0)
(161.84556 -3.611754 0)
(162.49646 -3.2376898 0)
(163.09703 -2.781586 0)
(163.63793 -2.2389103 0)
(164.10609 -1.6019754 0)
(164.48157 -0.86187783 0)
(164.73576 -0.012325922 0)
(164.8321 0.94520389 0)
(164.7242 1.996075 0)
(164.36185 3.1039549 0)
(163.70519 4.20157 0)
(162.74996 5.1919462 0)
(161.54566 5.9748022 0)
(160.18565 6.4847662 0)
(158.77552 6.7088394 0)
(157.40512 6.6758615 0)
(156.13621 6.4377532 0)
(155.00225 6.0519337 0)
(154.01471 5.5705322 0)
(153.17065 5.0354524 0)
(152.4592 4.4774682 0)
(151.86618 3.9174037 0)
(151.37704 3.3680926 0)
(150.97844 2.8363764 0)
(150.65888 2.3248177 0)
(150.40861 1.8330639 0)
(150.21994 1.3589523 0)
(150.08968 0.89846108 0)
(150.01958 0.44797919 0)
(153.18867 -1.9526999 0)
(153.38694 -1.9730919 0)
(153.53472 -2.0213997 0)
(153.69687 -2.1007408 0)
(153.87086 -2.211117 0)
(154.06274 -2.352779 0)
(154.27824 -2.5255584 0)
(154.52398 -2.7286008 0)
(154.80736 -2.9599367 0)
(155.13654 -3.2159176 0)
(155.52008 -3.4905554 0)
(155.96636 -3.7748963 0)
(156.48283 -4.05645 0)
(157.07457 -4.3185317 0)
(157.74161 -4.5400232 0)
(158.47554 -4.6972514 0)
(159.25826 -4.7690128 0)
(160.0651 -4.7422028 0)
(160.87094 -4.6138459 0)
(161.65562 -4.3883167 0)
(162.40578 -4.0720335 0)
(163.11336 -3.668918 0)
(163.77263 -3.1781582 0)
(164.37705 -2.5935571 0)
(164.91555 -1.903689 0)
(165.36815 -1.0938644 0)
(165.70279 -0.1508903 0)
(165.8749 0.93031207 0)
(165.82687 2.1396517 0)
(165.48738 3.4411798 0)
(164.79196 4.7549122 0)
(163.72164 5.9511217 0)
(162.3374 6.8872481 0)
(160.76752 7.4722462 0)
(159.15505 7.6956386 0)
(157.61474 7.6048364 0)
(156.21839 7.274994 0)
(154.99849 6.7831681 0)
(153.95983 6.1950804 0)
(153.09097 5.5604688 0)
(152.37296 4.9136534 0)
(151.785 4.2762583 0)
(151.30745 3.6603875 0)
(150.92336 3.0714394 0)
(150.61876 2.5103059 0)
(150.38229 1.9749926 0)
(150.20523 1.4618448 0)
(150.08355 0.96549842 0)
(150.01823 0.48117513 0)
(153.54016 -2.0868244 0)
(153.70744 -2.1085395 0)
(153.83423 -2.1604224 0)
(153.97445 -2.2462282 0)
(154.12639 -2.3663397 0)
(154.29607 -2.5214839 0)
(154.48956 -2.7120428 0)
(154.71406 -2.9377667 0)
(154.97795 -3.1972925 0)
(155.29081 -3.487463 0)
(155.6631 -3.8024591 0)
(156.10559 -4.1329452 0)
(156.62861 -4.4652907 0)
(157.24063 -4.7804351 0)
(157.94458 -5.0527444 0)
(158.73235 -5.2516924 0)
(159.58181 -5.3491606 0)
(160.46109 -5.3286966 0)
(161.3382 -5.1890698 0)
(162.18934 -4.9398292 0)
(163.00148 -4.5928325 0)
(163.76954 -4.1553851 0)
(164.4918 -3.627494 0)
(165.16596 -3.0013895 0)
(165.78457 -2.2612116 0)
(166.32889 -1.3844824 0)
(166.76383 -0.34793616 0)
(167.03661 0.86357905 0)
(167.07588 2.2487003 0)
(166.78314 3.777163 0)
(166.05614 5.3577994 0)
(164.84829 6.8167279 0)
(163.23407 7.9459838 0)
(161.39512 8.6145849 0)
(159.53028 8.8206271 0)
(157.78698 8.6417954 0)
(156.24688 8.1874762 0)
(154.93722 7.5607578 0)
(153.8513 6.8435422 0)
(152.9653 6.093557 0)
(152.24962 5.3476856 0)
(151.67528 4.6270427 0)
(151.21689 3.941778 0)
(150.85359 3.2948611 0)
(150.56894 2.6847858 0)
(150.35007 2.107411 0)
(150.1874 1.5572561 0)
(150.07616 1.0274085 0)
(150.01661 0.51177424 0)
(153.90394 -2.1088401 0)
(154.04559 -2.1315124 0)
(154.15058 -2.1871211 0)
(154.2672 -2.2797005 0)
(154.39496 -2.4098979 0)
(154.53992 -2.5789556 0)
(154.70848 -2.7879279 0)
(154.90841 -3.0373774 0)
(155.14908 -3.326861 0)
(155.44162 -3.6541393 0)
(155.7987 -4.0140523 0)
(156.23392 -4.3973508 0)
(156.76118 -4.7897078 0)
(157.39359 -5.170026 0)
(158.13878 -5.5076919 0)
(158.98998 -5.7631097 0)
(159.91969 -5.8981039 0)
(160.88531 -5.8913919 0)
(161.8444 -5.744876 0)
(162.76806 -5.4763483 0)
(163.64439 -5.1057578 0)
(164.47318 -4.6447018 0)
(165.25872 -4.0935173 0)
(166.00501 -3.4418669 0)
(166.71077 -2.6679607 0)
(167.36097 -1.7387392 0)
(167.91861 -0.61686805 0)
(168.3224 0.72690039 0)
(168.48639 2.3041604 0)
(168.27765 4.0978904 0)
(167.53663 6.0118711 0)
(166.1655 7.8145397 0)
(164.252 9.1943364 0)
(162.06211 9.95449 0)
(159.87998 10.115443 0)
(157.89504 9.8043806 0)
(156.1961 9.1813516 0)
(154.79729 8.3833176 0)
(153.67321 7.5105464 0)
(152.78246 6.6278537 0)
(152.0817 5.7726916 0)
(151.53227 4.9636148 0)
(151.10243 4.2071319 0)
(150.7674 3.5025468 0)
(150.50843 2.8451122 0)
(150.31144 2.2279979 0)
(150.1662 1.6435655 0)
(150.06743 1.0831681 0)
(150.01469 0.53927891 0)
(154.29845 -2.2470472 0)
(154.40229 -2.2713589 0)
(154.48237 -2.3304653 0)
(154.57272 -2.4292192 0)
(154.67352 -2.5689035 0)
(154.79052 -2.7515663 0)
(154.93026 -2.979242 0)
(155.10094 -3.2536476 0)
(155.31281 -3.5756515 0)
(155.57861 -3.94439 0)
(155.91346 -4.3558287 0)
(156.33426 -4.8011384 0)
(156.85923 -5.2655158 0)
(157.50772 -5.7260212 0)
(158.295 -6.1462896 0)
(159.218 -6.4738203 0)
(160.24241 -6.6542421 0)
(161.30968 -6.6577943 0)
(162.36179 -6.4909699 0)
(163.36291 -6.1844871 0)
(164.30407 -5.7709898 0)
(165.19318 -5.2686918 0)
(166.04308 -4.6791962 0)
(166.86613 -3.9908879 0)
(167.66999 -3.1775662 0)
(168.44633 -2.1950086 0)
(169.15741 -0.98794103 0)
(169.73309 0.49258828 0)
(170.07361 2.2781253 0)
(170.00621 4.379207 0)
(169.28734 6.712505 0)
(167.72553 8.9769198 0)
(165.41422 10.69376 0)
(162.75673 11.549898 0)
(160.17232 11.619657 0)
(157.90176 11.111264 0)
(156.03295 10.259956 0)
(154.55312 9.245318 0)
(153.40756 8.1867301 0)
(152.53061 7.1532702 0)
(151.86184 6.1794459 0)
(151.3516 5.2782333 0)
(150.96161 4.4502866 0)
(150.66346 3.6897668 0)
(150.43657 2.9877642 0)
(150.26607 2.3342181 0)
(150.1415 1.7190352 0)
(150.0573 1.1316925 0)
(150.01248 0.56316454 0)
(154.68711 -2.1927047 0)
(154.76319 -2.2164457 0)
(154.81812 -2.2776579 0)
(154.88061 -2.3814629 0)
(154.95207 -2.5294666 0)
(155.03807 -2.7243459 0)
(155.14522 -2.9689852 0)
(155.28209 -3.2662009 0)
(155.45978 -3.6182652 0)
(155.69268 -4.0260409 0)
(155.9988 -4.4872654 0)
(156.39889 -4.9942987 0)
(156.91629 -5.5327674 0)
(157.57845 -6.079397 0)
(158.4127 -6.593227 0)
(159.42422 -7.005498 0)
(160.57026 -7.237623 0)
(161.76763 -7.2473217 0)
(162.93366 -7.0505221 0)
(164.02205 -6.7003793 0)
(165.02919 -6.2505424 0)
(165.97553 -5.7284745 0)
(166.88521 -5.1357418 0)
(167.78074 -4.4575131 0)
(168.68256 -3.6610631 0)
(169.59512 -2.6848422 0)
(170.48449 -1.4438968 0)
(171.27368 0.14266346 0)
(171.85227 2.134026 0)
(172.01016 4.5818696 0)
(171.38264 7.4439071 0)
(169.60737 10.345243 0)
(166.75436 12.535911 0)
(163.45725 13.481281 0)
(160.35911 13.38282 0)
(157.75543 12.580584 0)
(155.71498 11.421307 0)
(154.17436 10.134943 0)
(153.03463 8.8573262 0)
(152.19789 7.6557281 0)
(151.58339 6.5560463 0)
(151.12981 5.5614836 0)
(150.79278 4.6640955 0)
(150.5411 3.8512473 0)
(150.35313 3.1089404 0)
(150.21393 2.4234048 0)
(150.11332 1.7818727 0)
(150.04579 1.1718781 0)
(150.00996 0.58290076 0)
(155.10926 -2.3497161 0)
(155.14037 -2.3766836 0)
(155.1666 -2.4419399 0)
(155.19858 -2.5514727 0)
(155.23812 -2.7077193 0)
(155.29014 -2.9145128 0)
(155.36106 -3.1762638 0)
(155.45951 -3.4977602 0)
(155.59702 -3.8837796 0)
(155.78934 -4.3383101 0)
(156.05725 -4.8625424 0)
(156.4257 -5.4515661 0)
(156.92333 -6.0924948 0)
(157.5872 -6.7632528 0)
(158.46298 -7.4200717 0)
(159.57272 -7.9722175 0)
(160.8645 -8.2997708 0)
(162.21692 -8.3351768 0)
(163.50862 -8.1065826 0)
(164.67865 -7.6996582 0)
(165.73501 -7.1981868 0)
(166.72009 -6.638654 0)
(167.67481 -6.0178356 0)
(168.63431 -5.3156671 0)
(169.63723 -4.4970707 0)
(170.71012 -3.4868769 0)
(171.82804 -2.1694959 0)
(172.90418 -0.4315893 0)
(173.81238 1.8080395 0)
(174.32735 4.6496997 0)
(173.92033 8.1703342 0)
(171.93026 11.965841 0)
(168.3218 14.858863 0)
(164.12266 15.860257 0)
(160.36641 15.465691 0)
(157.38409 14.226255 0)
(155.18854 12.653822 0)
(153.62619 11.030953 0)
(152.53418 9.5003667 0)
(151.77365 8.1163479 0)
(151.24137 6.8876793 0)
(150.86499 5.8023244 0)
(150.59555 4.8405797 0)
(150.40052 3.981339 0)
(150.25849 3.2047079 0)
(150.15535 2.492876 0)
(150.08186 1.8303149 0)
(150.03299 1.2026557 0)
(150.00718 0.59797766 0)
(155.47212 -2.1942568 0)
(155.47383 -2.2166046 0)
(155.47262 -2.2790495 0)
(155.47341 -2.3885968 0)
(155.47905 -2.5484225 0)
(155.49378 -2.7633205 0)
(155.52358 -3.0388524 0)
(155.57675 -3.3812181 0)
(155.6649 -3.7969682 0)
(155.80483 -4.2924759 0)
(156.02042 -4.8719554 0)
(156.34182 -5.5329858 0)
(156.80376 -6.2637305 0)
(157.45427 -7.0447099 0)
(158.36649 -7.8353591 0)
(159.59623 -8.5212414 0)
(161.08479 -8.9178318 0)
(162.65006 -8.9158363 0)
(164.10759 -8.5712241 0)
(165.37422 -8.0277859 0)
(166.47916 -7.4244919 0)
(167.50084 -6.8127633 0)
(168.5012 -6.1832504 0)
(169.52407 -5.5128889 0)
(170.62667 -4.7761513 0)
(171.86742 -3.8886189 0)
(173.23821 -2.688414 0)
(174.63918 -0.99396269 0)
(175.94605 1.3348454 0)
(176.96433 4.4939266 0)
(176.9947 8.7895133 0)
(174.85654 13.864586 0)
(170.18522 17.882651 0)
(164.67468 18.850972 0)
(160.08078 17.943209 0)
(156.68799 16.051451 0)
(154.38741 13.929645 0)
(152.87072 11.898467 0)
(151.88738 10.084674 0)
(151.25013 8.5108035 0)
(150.83372 7.1566403 0)
(150.55761 5.9883556 0)
(150.37121 4.9712398 0)
(150.24308 4.0742903 0)
(150.15374 3.2712137 0)
(150.09106 2.5400876 0)
(150.04754 1.8627319 0)
(150.01908 1.2230547 0)
(150.00415 0.60793641 0)
(155.77232 -2.3800495 0)
(155.7227 -2.4126572 0)
(155.68778 -2.484651 0)
(155.65165 -2.6039055 0)
(155.61751 -2.7740575 0)
(155.5886 -3.0008023 0)
(155.5703 -3.2910555 0)
(155.57044 -3.6531132 0)
(155.60031 -4.0967057 0)
(155.67704 -4.6331287 0)
(155.82706 -5.2740057 0)
(156.08579 -6.0256206 0)
(156.49296 -6.8832835 0)
(157.10451 -7.8367165 0)
(158.02943 -8.8631928 0)
(159.38593 -9.8300744 0)
(161.11841 -10.443611 0)
(162.94571 -10.503413 0)
(164.57955 -10.10761 0)
(165.90445 -9.4804309 0)
(166.98988 -8.8471747 0)
(167.97691 -8.2663095 0)
(168.95622 -7.7023043 0)
(169.97397 -7.1071547 0)
(171.11004 -6.4633842 0)
(172.48247 -5.6701226 0)
(174.1321 -4.4904317 0)
(175.95757 -2.6337684 0)
(177.83997 0.10286874 0)
(179.66449 3.8493222 0)
(180.57531 9.1786271 0)
(178.55244 16.085828 0)
(172.41497 22.032874 0)
(164.94891 22.707976 0)
(159.32126 20.89947 0)
(155.52828 18.033053 0)
(153.23258 15.193377 0)
(151.87039 12.683361 0)
(151.08041 10.567879 0)
(150.62506 8.8091229 0)
(150.36284 7.3427953 0)
(150.21134 6.1064072 0)
(150.12324 5.0475694 0)
(150.07153 4.1246368 0)
(150.04081 3.3049605 0)
(150.02229 2.5628191 0)
(150.01101 1.8777463 0)
(150.00431 1.2322743 0)
(150.00094 0.61240303 0)
(155.6072 -2.1201356 0)
(155.51454 -2.1384192 0)
(155.44533 -2.1927136 0)
(155.37025 -2.2950429 0)
(155.29337 -2.450902 0)
(155.2165 -2.667858 0)
(155.14355 -2.9550338 0)
(155.08062 -3.3236168 0)
(155.03688 -3.7870668 0)
(155.02733 -4.3615931 0)
(155.07863 -5.0657206 0)
(155.23109 -5.9131988 0)
(155.52962 -6.9011185 0)
(156.03345 -8.0177356 0)
(156.89728 -9.263246 0)
(158.35805 -10.501948 0)
(160.39975 -11.264239 0)
(162.57672 -11.168825 0)
(164.42512 -10.432341 0)
(165.78002 -9.4151651 0)
(166.78383 -8.515502 0)
(167.69033 -7.782649 0)
(168.63318 -7.1305036 0)
(169.64435 -6.4609492 0)
(170.81755 -5.8153846 0)
(172.3592 -5.1458033 0)
(174.38974 -4.1608308 0)
(176.7893 -2.4849535 0)
(179.33768 0.13372396 0)
(182.08022 3.54086 0)
(184.30788 9.2518182 0)
(182.94798 18.33998 0)
(174.89102 27.786851 0)
(164.52599 27.583818 0)
(157.78609 24.355542 0)
(153.71611 20.08797 0)
(151.63745 16.345038 0)
(150.59544 13.305935 0)
(150.11004 10.895256 0)
(149.90509 8.9764661 0)
(149.83749 7.4247624 0)
(149.834 6.1435652 0)
(149.85767 5.0618058 0)
(149.89014 4.1277101 0)
(149.9225 3.303137 0)
(149.95072 2.559383 0)
(149.97317 1.8743621 0)
(149.98906 1.2297573 0)
(149.99763 0.61112253 0)
(154.48269 -2.2841422 0)
(154.32976 -2.3277763 0)
(154.21105 -2.4061073 0)
(154.07836 -2.5340625 0)
(153.93716 -2.7168577 0)
(153.7874 -2.9622281 0)
(153.63105 -3.2794519 0)
(153.47184 -3.6802137 0)
(153.31627 -4.1790171 0)
(153.17636 -4.7942047 0)
(153.07818 -5.5498257 0)
(153.06906 -6.4710254 0)
(153.20272 -7.5669045 0)
(153.5295 -8.8363993 0)
(154.23967 -10.348517 0)
(155.76708 -12.068982 0)
(158.21606 -13.307539 0)
(160.84209 -13.263652 0)
(162.87877 -12.408889 0)
(164.09928 -11.207439 0)
(164.78831 -10.360712 0)
(165.41215 -9.830204 0)
(166.1599 -9.4640931 0)
(166.9913 -9.0688346 0)
(167.95597 -8.844236 0)
(169.40118 -8.8392316 0)
(171.59592 -8.5208079 0)
(174.42631 -7.409223 0)
(177.42707 -4.9220088 0)
(181.31085 -1.2872378 0)
(185.9934 6.5859946 0)
(186.98584 19.389256 0)
(176.80175 35.448974 0)
(162.50951 33.620315 0)
(155.09767 28.315187 0)
(151.03832 22.073701 0)
(149.52537 17.227054 0)
(149.03765 13.656746 0)
(148.99191 11.000947 0)
(149.10997 8.9756822 0)
(149.27452 7.3821374 0)
(149.43815 6.0887251 0)
(149.58324 5.0079185 0)
(149.70468 4.0802397 0)
(149.80246 3.2639788 0)
(149.87848 2.5288388 0)
(149.93511 1.8520892 0)
(149.97374 1.2152591 0)
(149.99431 0.60399038 0)
(150.46126 -1.9990466 0)
(150.19057 -2.0142339 0)
(149.9894 -2.0498483 0)
(149.7666 -2.1288382 0)
(149.5295 -2.2578362 0)
(149.27507 -2.4455215 0)
(149.00208 -2.702386 0)
(148.71004 -3.0426824 0)
(148.39987 -3.4858198 0)
(148.0754 -4.0586545 0)
(147.75289 -4.8009608 0)
(147.47551 -5.7675456 0)
(147.29553 -7.0055793 0)
(147.21776 -8.528777 0)
(147.41118 -10.458817 0)
(148.63159 -12.937182 0)
(151.36462 -14.945861 0)
(154.33422 -14.523522 0)
(156.287 -12.901105 0)
(156.93781 -10.587786 0)
(156.81296 -9.1362854 0)
(156.75244 -8.2708396 0)
(156.98391 -7.7998766 0)
(157.27834 -7.2085178 0)
(157.57435 -6.9087008 0)
(158.60598 -6.9078588 0)
(160.85225 -6.3183593 0)
(164.24057 -5.3375045 0)
(168.05289 -2.46052 0)
(174.41562 3.6688731 0)
(183.27893 11.62143 0)
(188.54978 23.314487 0)
(175.76459 48.296799 0)
(156.99949 43.705809 0)
(150.55091 32.922018 0)
(147.19682 23.675093 0)
(146.826 17.577632 0)
(147.22626 13.589434 0)
(147.77062 10.81249 0)
(148.27674 8.7724414 0)
(148.70014 7.199009 0)
(149.04126 5.9346672 0)
(149.31121 4.8827662 0)
(149.52224 3.9809871 0)
(149.68496 3.1871143 0)
(149.80801 2.4711824 0)
(149.89805 1.8110474 0)
(149.95884 1.1889034 0)
(149.99108 0.59107706 0)
(142.01536 -1.9185191 0)
(141.66542 -1.9568997 0)
(141.37507 -2.0196835 0)
(141.04596 -2.1344361 0)
(140.69058 -2.3063776 0)
(140.30187 -2.5448274 0)
(139.87283 -2.8615329 0)
(139.39478 -3.2731562 0)
(138.85765 -3.8029149 0)
(138.24937 -4.482426 0)
(137.56442 -5.3568287 0)
(136.8302 -6.4916154 0)
(136.10723 -7.9454777 0)
(135.36137 -9.6768899 0)
(134.67644 -11.72907 0)
(135.31611 -14.625863 0)
(138.83469 -17.564874 0)
(142.70307 -16.042592 0)
(144.72595 -13.806535 0)
(144.51254 -10.724676 0)
(143.00926 -9.9440565 0)
(141.87715 -10.046244 0)
(141.43495 -10.579866 0)
(141.12105 -10.426832 0)
(140.68537 -10.304393 0)
(141.48468 -10.471796 8.225155e-18)
(143.45064 -12.316774 -1.5891241e-19)
(146.249 -14.067912 0)
(147.77964 -7.6052776 9.40475e-18)
(145.69849 -14.949931 -7.1033167e-18)
(162.36542 -10.353655 4.2352446e-18)
(180.24126 5.4113297 -9.8186962e-18)
(166.40868 70.503758 4.6398002e-18)
(141.91404 56.232378 0)
(140.59942 35.653773 0)
(141.58677 23.558472 0)
(143.53973 16.898111 0)
(145.27451 12.919843 0)
(146.53658 10.264692 0)
(147.4634 8.344701 0)
(148.14975 6.8689354 0)
(148.66472 5.6804748 0)
(149.05455 4.687248 0)
(149.35062 3.8312949 0)
(149.57462 3.0738314 0)
(149.7419 2.3874784 0)
(149.8633 1.7520325 0)
(149.94487 1.1512138 0)
(149.98805 0.57264159 0)
(122.8644 -1.8104086 0)
(122.24184 -1.814453 0)
(121.76243 -1.8289634 0)
(121.22756 -1.8825944 0)
(120.65122 -1.9772529 0)
(120.01522 -2.1185399 0)
(119.30154 -2.3130325 0)