/*--------------------------------*- C++ -*----------------------------------*\
| =========                 |                                                 |
| \\      /  F ield         | foam-extend: Open Source CFD                    |
|  \\    /   O peration     | Version:     4.1                                |
|   \\  /    A nd           | Web:         http://www.foam-extend.org         |
|    \\/     M anipulation  |                                                 |
\*---------------------------------------------------------------------------*/
FoamFile
{
    version     2.0;
    format      ascii;
    class       volScalarField;
    location    "2.1";
    object      p;
}
// * * * * * * * * * * * * * * * * * * * * * * * * * * * * * * * * * * * * * //

dimensions      [0 2 -2 0 0 0 0];

internalField   nonuniform List<scalar> 
4393
(
-46.418269
-92.981805
-146.74659
-201.53767
-258.52845
-318.02962
-380.42413
-446.02154
-515.0461
-587.60796
-663.67508
-743.04504
-825.31974
-909.88658
-995.91033
-1082.3384
-1167.9204
-1251.2386
-1330.7464
-1404.8061
-1471.7266
-1529.7974
-1577.324
-1612.6685
-1634.3034
-1640.8856
-1631.3607
-1605.1089
-1562.0233
-1502.6041
-1428.0627
-1340.3043
-1241.8236
-1135.5209
-1024.4769
-911.72616
-800.0682
-691.93564
-589.32559
-493.78625
-406.44502
-328.06301
-259.10075
-199.78409
-150.17439
-110.24066
-79.763583
-57.832641
-43.628345
-45.166105
-92.395984
-146.03401
-200.67385
-257.49551
-316.8419
-379.10957
-444.62017
-513.60979
-586.20064
-662.37227
-741.93236
-824.48982
-909.43457
-995.92815
-1082.909
-1169.1129
-1253.106
-1333.3245
-1408.1151
-1475.7718
-1534.5697
-1582.7974
-1618.7956
-1641.0077
-1648.057
-1638.854
-1612.7039
-1569.4363
-1509.5443
-1434.245
-1345.4787
-1245.8057
-1138.212
-1025.8682
-911.88904
-799.13397
-690.0723
-586.71558
-490.60861
-402.86314
-324.21769
-255.11017
-195.75359
-146.20084
-106.36056
-75.961924
-54.862991
-44.26482
-44.361866
-91.499232
-144.77573
-199.05479
-255.52563
-314.56077
-376.57891
-441.92395
-510.85513
-583.51834
-659.91599
-739.87536
-823.01873
-908.73985
-996.19233
-1084.2947
-1171.7532
-1257.0996
-1338.7353
-1414.9751
-1484.0844
-1544.3102
-1593.9092
-1631.1786
-1654.5014
-1662.421
-1653.7592
-1627.7382
-1584.0958
-1523.2535
-1446.4223
-1355.6121
-1253.5196
-1143.3093
-1028.3383
-911.88411
-796.92653
-686.00525
-581.15592
-483.9108
-395.34402
-316.14247
-246.69021
-187.15662
-137.55109
-97.688267
-67.258162
-46.703238
-37.92071
-43.571147
-90.203487
-142.87201
-196.57256
-252.49937
-311.0536
-372.68274
-437.76269
-506.58747
-579.33949
-656.05698
-736.59864
-820.60886
-907.48891
-996.38123
-1086.174
-1175.5279
-1262.9213
-1346.7025
-1425.1388
-1496.4546
-1558.8584
-1610.5623
-1649.803
-1674.8751
-1684.1997
-1676.4525
-1650.7044
-1606.5451
-1544.2896
-1465.1357
-1371.1994
-1265.3942
-1151.1698
-1032.179
-911.9563
-793.66738
-679.95774
-572.89576
-473.98989
-384.25303
-304.29132
-234.40504
-174.68834
-125.07556
-85.291737
-55.022551
-34.934603
-26.790479
-42.746013
-88.586066
-140.40162
-193.29786
-248.47664
-306.36997
-367.46082
-432.16658
-500.82789
-573.67705
-650.80209
-732.10627
-817.26626
-905.69531
-996.52114
-1088.5891
-1180.4947
-1270.6404
-1357.3007
-1438.6791
-1512.9483
-1578.2703
-1632.8045
-1674.7132
-1702.1783
-1713.459
-1707.0293
-1681.7392
-1636.9532
-1572.8179
-1490.4979
-1392.2539
-1281.3119
-1161.5351
-1037.0029
-911.61357
-788.78925
-671.31403
-561.29054
-460.18331
-368.91191
-287.96576
-217.52614
-157.57799
-107.954
-68.296944
-38.300094
-18.683737
-10.927328
-41.737436
-86.536878
-137.25306
-189.11399
-243.33039
-300.36944
-360.75688
-424.9619
-493.38475
-566.32285
-643.93063
-726.17222
-812.77013
-903.15675
-996.44214
-1091.4141
-1186.5793
-1280.2368
-1370.5625
-1455.6798
-1533.7004
-1602.737
-1660.8937
-1706.2493
-1736.8502
-1750.7507
-1746.1566
-1721.6153
-1676.1692
-1609.71
-1523.3304
-1419.4775
-1301.8091
-1174.7661
-1043.0181
-910.95492
-782.33347
-660.10576
-546.40036
-442.60551
-349.5034
-267.41995
-196.37258
-136.19542
-86.587056
-47.090785
-17.369039
1.8950104
9.4338322
-40.595506
-84.127163
-133.49118
-184.07007
-237.08792
-293.05301
-352.54161
-416.08547
-484.15858
-557.14069
-635.27209
-718.59805
-806.90493
-899.65521
-995.93943
-1094.4704
-1193.635
-1291.594
-1386.3953
-1476.064
-1558.6463
-1632.2099
-1694.8103
-1744.4436
-1779.0051
-1796.3014
-1794.1939
-1770.8252
-1724.7866
-1655.5864
-1564.1765
-1453.2324
-1326.9991
-1190.7121
-1049.8416
-909.42622
-773.64376
-645.6369
-527.53742
-420.60901
-325.43884
-242.13289
-170.49449
-110.16529
-60.680157
-21.46103
7.9037757
26.82334
34.190604
-39.186004
-81.205544
-128.95644
-178.00159
-229.57702
-284.23732
-342.61688
-405.32131
-472.9137
-545.8757
-624.55659
-709.10804
-799.40443
-894.95481
-994.83034
-1097.6467
-1201.6305
-1304.7572
-1404.9088
-1499.9924
-1587.989
-1666.9349
-1734.8568
-1789.6814
-1829.1469
-1850.7727
-1851.989
-1830.4105
-1784.0056
-1711.7094
-1614.2144
-1494.4635
-1357.4977
-1209.6434
-1057.4497
-906.7991
-762.38342
-627.54452
-504.37081
-393.92834
-296.53063
-211.99181
-139.84114
-79.481687
-30.253507
8.565331
37.489829
56.043464
63.248219
-37.653445
-77.930932
-123.79686
-171.03285
-220.89023
-273.97551
-330.98874
-392.62108
-459.54163
-532.3565
-611.55191
-697.41819
-789.951
-888.73173
-992.81684
-1100.6982
-1210.3873
-1319.6102
-1426.0329
-1527.423
-1621.7034
-1706.9072
-1781.0687
-1842.0771
-1887.5232
-1914.6051
-1920.2266
-1901.3235
-1855.0123
-1779.3763
-1674.6458
-1544.0582
-1393.7396
-1231.5245
-1065.4182
-902.39151
-747.74733
-605.0111
-476.14681
-361.9169
-262.25687
-176.59973
-104.13075
-43.96353
4.7910212
43.023345
71.374451
89.493776
96.516588
-35.748812
-74.004824
-117.69207
-162.83153
-210.68185
-261.90423
-317.27074
-377.56961
-443.59408
-516.10034
-595.74473
-682.99661
-778.01782
-880.50098
-989.49989
-1103.3488
-1219.7671
-1336.1397
-1449.8471
-1558.4922
-1659.957
-1752.3187
-1833.6805
-1901.9528
-1954.6113
-1988.5131
-1999.9355
-1984.9555
-1939.5405
-1860.5128
-1747.2976
-1603.4221
-1436.5078
-1256.5012
-1073.3832
-895.5191
-728.91385
-577.21812
-442.1382
-323.98128
-222.1676
-135.63984
-63.159873
-3.4983916
44.496219
81.904047
109.50715
127.08856
133.89227
-33.798632
-69.806239
-111.02788
-153.76792
-199.29481
-248.32732
-301.71454
-360.3525
-425.17737
-497.12406
-577.05819
-665.67853
-763.37409
-870.0085
-984.66012
-1105.4661
-1229.7462
-1354.4137
-1476.4673
-1593.3172
-1702.8402
-1803.2313
-1892.7563
-1969.4402
-2030.7077
-2073.0757
-2092.104
-2082.7931
-2039.5859
-1957.4489
-1834.4245
-1674.2476
-1486.6346
-1284.5446
-1080.6578
-885.11638
-704.69096
-543.02778
-401.36538
-279.34255
-175.68621
-88.716907
-16.684178
42.039135
88.898124
125.17844
151.81093
168.71684
175.2496
-31.322727
-64.748354
-103.16397
-143.1671
-186.01793
-232.49046
-283.51345
-340.10044
-403.35024
-474.40908
-554.39856
-644.30961
-744.84089
-856.11845
-977.29904
-1106.2776
-1239.8196
-1374.1694
-1505.8014
-1631.8965
-1750.3826
-1859.6802
-1958.3492
-2044.6714
-2116.1358
-2168.9574
-2197.9201
-2196.691
-2157.7328
-2073.3257
-1939.1486
-1758.8899
-1545.2553
-1315.602
-1086.328
-869.81885
-673.60717
-501.08727
-352.70821
-227.14631
-122.20892
-35.440102
35.517957
92.742616
137.99704
172.78048
198.17268
214.23468
220.43221
-28.935351
-59.575018
-94.898074
-131.84688
-171.67525
-215.21022
-263.45972
-317.56071
-378.79205
-448.54479
-528.2482
-619.25844
-722.68937
-839.0642
-967.71667
-1106.2531
-1250.6595
-1396.2153
-1538.6635
-1674.922
-1803.0779
-1921.9453
-2030.5695
-2127.6999
-2211.0802
-2276.7107
-2318.5368
-2328.6707
-2297.0939
-2212.1924
-2065.6522
-1860.4855
-1613.7497
-1349.4072
-1089.0115
-847.73874
-633.73505
-449.70548
-294.82765
-166.41732
-61.081811
24.585609
93.645429
148.66895
191.75068
224.60023
248.43701
263.45866
269.24585
-25.834184
-53.293419
-85.133333
-118.63359
-155.00886
-195.12765
-240.07114
-291.10192
-349.69466
-417.52238
-496.38343
-588.08832
-694.30519
-816.16059
-953.35332
-1103.1786
-1260.5219
-1419.2471
-1574.0533
-1721.5574
-1860.1746
-1989.3363
-2108.797
-2218.04
-2315.3462
-2396.6702
-2455.0972
-2481.0202
-2461.4978
-2379.4192
-2219.7584
-1983.4128
-1693.8851
-1385.4103
-1086.7048
-816.3329
-582.61647
-386.83369
-226.18399
-96.096185
8.3582814
91.722339
157.84433
209.81575
250.058
280.47269
302.39816
316.15923
321.45202
-22.988273
-47.105618
-75.194257
-104.93108
-137.4926
-173.78004
-214.93912
-262.35453
-317.70632
-382.98371
-460.41852
-552.36997
-661.22073
-788.9878
-936.05521
-1099.424
-1272.3861
-1446.6588
-1615.3976
-1774.8821
-1924.1581
-2063.6286
-2194.0747
-2316.1134
-2429.0549
-2529.1509
-2608.6687
-2656.1734
-2655.5157
-2582.0937
-2409.6778
-2133.8913
-1787.8786
-1422.5331
-1076.4506
-772.13871
-517.10679
-310.00268
-145.03314
-15.064929
86.74857
166.26527
228.17962
276.09963
312.74353
340.16686
359.79245
372.05483
376.76266
-19.234005
-39.56614
-63.483996
-89.028694
-117.28555
-149.161
-185.84184
-228.81609
-279.96337
-341.61492
-416.50485
-507.64524
-618.31815
-751.84271
-909.86968
-1089.2873
-1281.105
-1473.7725
-1658.1738
-1830.2917
-1990.3739
-2140.3276
-2282.2798
-2418.3713
-2549.5399
-2672.7616
-2779.4824
-2856.4149
-2884.4364
-2829.5605
-2647.2463
-2321.0874
-1898.5229
-1458.832
-1053.886
-710.45831
-433.22565
-216.2973
-49.46728
77.789305
174.63784
248.39138
304.59703
347.32983
379.53996
403.37474
420.29131
430.80718
434.83624
-15.909562
-32.367259
-51.88947
-72.946182
-96.528132
-123.53002
-155.16117
-192.99623
-239.10679
-296.19281
-367.57389
-457.02995
-568.92159
-708.39572
-879.33999
-1079.0095
-1295.0589
-1510.7435
-1713.4126
-1898.7625
-2069.1471
-2228.6986
-2381.1217
-2530.4774
-2680.3857
-2829.6039
-2969.1768
-3084.3382
-3154.0991
-3134.0113
-2949.9603
-2559.161
-2029.298
-1490.9058
-1012.5348
-624.92491
-325.99191
-102.3637
62.502244
183.47626
272.40145
338.09566
386.87934
423.18001
450.07101
469.70149
483.49594
492.0184
495.27569
-11.483937
-23.59128
-38.294725
-54.438705
-72.848179
-94.363283
-120.17003
-151.87519
-191.68072
-242.61944
-308.6368
-394.36247
-505.33292
-649.10785
-833.41816
-1057.1179
-1303.0123
-1546.0297
-1768.1207
-1964.9808
-2142.9742
-2309.8847
-2471.308
-2633.6118
-2804.7355
-2986.7702
-3170.3481
-3338.4984
-3469.9068
-3511.2592
-3344.1369
-2870.7986
-2184.1435
-1512.8703
-942.7454
-506.96204
-189.29499
35.498286
192.78319
302.75022
380.12534
435.11259
474.59729
503.15972
523.83601
538.65791
548.9344
555.23052
557.62883
-7.545959
-15.399286
-25.214402
-36.272684
-49.208367
-64.768177
-84.069045
-108.69897
-140.93299
-184.11085
-242.90326
-322.98236
-431.14894
-577.96539
-777.58697
-1033.2895
-1320.8799
-1601.2872
-1847.8977
-2056.6836
-2241.307
-2415.2341
-2585.4241
-2759.525
-2951.4775
-3168.7938
-3401.8415
-3630.6654
-3839.9342
-3979.4507
-3868.0221
-3294.1305
-2367.87
-1515.4537
-830.29364
-345.16002
-15.872349
201.09479
342.92606
435.88998
497.45784
538.82628
567.05951
586.58876
600.19844
609.65693
616.06221
619.92805
621.39165
-2.4940676
-5.6554456
-10.105357
-15.57391
-22.445092
-31.342507
-43.27399
-59.749517
-83.013129
-116.56761
-165.75616
-237.36416
-339.18021
-484.64141
-697.71871
-992.03916
-1333.767
-1659.6111
-1930.1027
-2142.1464
-2323.1197
-2495.6057
-2666.7929
-2843.1722
-3048.9948
-3303.174
-3599.0877
-3914.1977
-4241.4073
-4553.2177
-4583.0236
-3903.4786
-2589.3115
-1483.2205
-653.43122
-124.34865
202.50702
397.84681
513.68313
582.39849
623.43288
648.17695
663.26814
672.5796
678.38198
682.01598
684.26756
685.5444
686.01496
2.9587775
3.9729496
4.5461939
4.3726776
3.3872146
1.1545383
-3.1203105
-10.724193
-23.652461
-45.261269
-81.374411
-140.13082
-230.27322
-367.38814
-589.87737
-934.91014
-1357.8534
-1750.693
-2054.8897
-2266.9248
-2439.8805
-2611.5588
-2788.5987
-2969.4139
-3193.9263
-3500.0128
-3883.2974
-4313.0924
-4763.9035
-5291.5204
-5573.8105
-4825.3579
-2837.3022
-1376.2422
-376.92606
174.90815
474.14881
627.83409
704.33974
740.62094
756.27999
761.57883
761.89083
760.03392
757.477
754.96692
752.88191
751.4722
750.91467
8.285101
13.265285
19.323464
25.157885
31.020543
36.677748
41.594984
44.762955
44.510304
37.799755
18.452096
-23.539112
-98.146596
-220.10617
-443.94165
-853.46385
-1397.2816
-1876.4144
-2210.7427
-2392.8792
-2530.4283
-2685.6834
-2862.7827
-3027.8152
-3238.6403
-3573.5318
-4023.7141
-4561.7462
-5089.712
-5960.3612
-6823.7183
-6299.5147
-3074.0131
-1170.9518
36.506428
572.65463
805.01175
890.17333
911.79877
907.31689
893.25891
876.87501
861.26342
847.66085
836.46141
827.67512
821.19644
817.07785
815.48554
17.84113
25.859671
36.761686
47.719671
59.416536
71.801259
84.631408
97.258349
108.52218
116.23571
114.96648
93.715428
41.620166
-49.538069
-244.67504
-715.15088
-1441.8796
-2033.6095
-2413.3726
-2545.712
-2643.018
-2787.199
-2982.1461
-3113.68
-3276.6777
-3677.699
-4224.3717
-4961.7036
-5679.3058
-7242.8542
-8882.0928
-9068.3529
-3578.13
-1038.2197
635.19294
1099.0918
1197.3507
1178.9792
1129.5271
1077.2882
1030.5872
991.36628
959.44087
934.02403
914.23823
899.26828
888.48445
881.71993
879.11796
22.150569
30.895212
46.136693
62.238156
80.171454
100.10817
122.292
146.74771
173.26277
201.23837
227.41502
240.71462
225.96336
180.34584
45.409101
-483.28391
-1555.1583
-2311.4987
-2773.6619
-2771.0087
-2749.6655
-2813.145
-3022.641
-3099.9059
-3207.1641
-3763.2636
-4232.9949
-5185.2223
-6470.8435
-7863.4479
-9589.1443
-12103.54
-4823.2659
-72.51527
1722.8304
1811.9824
1641.1419
1478.7598
1346.2293
1243.2031
1163.5569
1101.9562
1054.311
1017.6214
989.69004
968.87408
954.02848
944.77028
941.21699
36.937075
46.533212
66.460054
87.313941
110.74797
137.0773
166.90645
200.72069
238.86195
281.66254
327.57454
365.35499
371.82668
347.26655
293.74209
-191.10908
-1818.0777
-2617.1344
-3115.4956
-2772.7576
-2626.8081
-2732.5426
-3131.7556
-3271.128
-3302.4344
0
0
0
0
0
0
0
0
6202.3748
3402.4558
2582.4951
2068.2382
1755.8591
1545.1249
1396.0881
1287.0011
1205.4546
1143.7774
1096.9947
1061.7465
1035.6637
1017.1501
1005.6365
1001.2221
35.366732
42.18271
64.028359
87.075003
113.20481
142.73959
176.57913
215.67642
261.07462
314.42445
377.59009
445.98932
502.79972
560.82611
710.68137
552.80475
-1996.7848
-2776.9618
-3646.9046
-2968.6372
-3044.3359
-3012.3245
0
0
0
0
0
0
0
0
0
0
10129.574
6286.2533
4123.9544
3000.3239
2361.3126
1969.1777
1709.0489
1527.5628
1396.2855
1299.0424
1225.992
1170.855
1129.4566
1098.8963
1077.2393
1063.7836
1058.6261
44.263781
54.950218
80.949983
106.9775
136.15428
169.03588
206.87555
251.10401
303.50599
367.08028
447.11651
546.08853
653.28891
754.39156
842.19645
568.47344
-3108.2253
-3581.598
-3205.2806
0
0
0
0
0
0
0
0
0
0
0
1780.6712
3364.5938
5756.1159
5236.0892
3961.382
3100.168
2507.1427
2107.7397
1830.654
1632.9917
1488.4294
1380.7305
1299.5694
1238.1932
1192.051
1157.9572
1133.7803
1118.7532
1112.9921
22.191604
42.166287
66.370933
91.28481
118.75225
149.54711
184.74307
225.50515
273.13228
329.82968
399.49984
478.02727
537.53038
536.24806
558.10756
702.38693
0
0
0
0
0
0
-1132.0678
-1103.5236
-1011.3059
-917.55663
-790.08555
-495.29942
-94.947821
697.08333
2026.4392
3361.91
4750.9868
4489.8571
3714.8017
3058.6862
2552.6651
2182.2199
1911.4452
1711.6611
1562.3543
1449.5317
1363.692
1298.3446
1248.983
1212.385
1186.3701
1170.1775
1163.9658
19.95399
50.022113
74.970384
100.54368
127.96143
158.05659
191.47946
228.66473
269.57182
313.41786
357.89968
396.56231
406.14932
338.09239
142.01845
-338.13492
-1284.4155
-1227.4738
-1147.1013
-1100.4783
-1051.0814
-1021.6129
-1010.3643
-803.28953
-838.68255
-583.18216
-362.34554
-204.61787
259.08228
904.85405
1960.2921
3049.3228
3956.5649
3851.8962
3404.2977
2933.5967
2528.4613
2206.0152
1956.7037
1765.422
1618.5284
1505.3805
1418.105
1351.0009
1299.9419
1261.8829
1234.728
1217.7881
1211.2835
20.663321
46.485366
72.12018
97.971664
125.28624
154.81496
187.13893
222.62475
261.25892
302.13399
342.03496
373.73569
384.81903
353.15891
205.21638
-227.9215
-792.30407
-920.95837
-962.54781
-966.15078
-887.80297
-842.32045
-818.54969
-691.80039
-620.94406
-417.54077
-179.14379
77.742417
510.88643
1096.4657
1896.1863
2721.5877
3334.885
3356.8263
3105.6564
2777.1428
2463.357
2193.8097
1973.5971
1797.6782
1658.5134
1548.9427
1463.0384
1396.18
1344.8431
1306.3173
1278.6975
1261.4181
1254.7753
14.996567
36.230538
58.796897
81.290893
104.29067
128.03529
152.53026
177.41573
201.78977
223.68899
238.89679
240.18115
218.24915
159.21483
15.075626
-283.91144
-606.90251
-732.46415
-784.51826
-794.28641
-753.12533
-703.47434
-642.23521
-537.76242
-423.88673
-238.24355
-11.499024
269.88335
668.60796
1187.7217
1823.2418
2450.896
2889.52
2967.0582
2834.9717
2613.0007
2376.1811
2157.6758
1969.1881
1812.3852
1684.4719
1581.3758
1499.0906
1434.1693
1383.7996
1345.7035
1318.239
1300.9991
1294.3623
23.838342
46.444838
70.189788
93.656036
117.54408
141.96081
166.72576
191.21024
214.09554
232.81496
242.68422
236.66993
205.98885
135.39783
-7.2589802
-236.55055
-460.15423
-579.80542
-635.38301
-644.54086
-615.83472
-568.2929
-497.28129
-394.46027
-264.34944
-82.933271
139.1606
416.11302
777.02614
1223.7716
1735.5097
2221.745
2557.2296
2658.5597
2599.6223
2454.8459
2280.1775
2107.1224
1949.7493
1813.4686
1698.7939
1604.1105
1527.1058
1465.4572
1417.0847
1380.1842
1353.4175
1336.553
1330.0508
12.024173
29.927645
50.032101
70.035626
90.040873
109.92707
129.38597
147.74671
163.76056
175.18254
178.31555
168.06151
137.6386
74.654499
-40.054851
-203.50731
-358.80682
-456.74723
-506.07889
-514.23361
-488.93019
-440.00579
-365.6895
-262.60115
-128.53887
46.963816
261.85408
525.19054
849.67387
1232.3369
1648.6358
2032.8053
2301.9484
2411.5828
2398.1273
2308.5351
2183.1591
2048.9506
1920.3865
1804.465
1703.8307
1618.6747
1548.0637
1490.6658
1445.09
1410.0047
1384.3865
1368.181
1361.9229
21.407234
40.632371
60.85401
80.367614
99.453449
117.84329
135.02346
150.10152
161.62877
167.32347
163.94528
147.54848
113.0811
52.273766
-43.556709
-165.61502
-279.00308
-356.12456
-395.68992
-400.45674
-375.18757
-324.7258
-248.67433
-145.283
-11.774543
156.79206
361.05872
606.02154
895.95134
1224.4155
1567.8659
1878.5072
2101.9966
2212.1871
2227.1462
2176.7603
2089.8433
1988.0673
1885.0995
1788.3894
1701.7408
1626.5693
1562.9904
1510.4906
1468.2862
1435.4855
1411.3695
1396.0504
1390.1245
11.864112
27.968594
45.959662
63.611507
80.820379
97.231769
112.31648
125.22186
134.61693
138.50948
134.22471
118.55901
87.502306
35.679784
-40.002058
-130.4315
-213.52456
-271.83056
-300.84898
-300.62655
-273.46218
-221.6341
-145.03221
-42.511443
87.993859
248.90823
441.01332
666.30003
924.57372
1207.7339
1495.1765
1752.1619
1942.6277
2049.7635
2082.4749
2059.9378
2002.6778
1927.6332
1846.849
1767.6912
1694.4089
1629.1879
1572.8935
1525.652
1487.1881
1456.9984
1434.6427
1420.3802
1414.8534
17.140332
33.237262
50.219918
66.364661
81.714186
95.886568
108.32908
118.22196
124.38308
125.18545
118.61213
102.36238
73.691066
29.625545
-29.988687
-97.381938
-158.13629
-200.46199
-219.38488
-213.53448
-183.5579
-130.34342
-53.764594
46.959997
173.10518
325.77623
505.17455
711.24594
941.41787
1187.1577
1431.2309
1648.3109
1813.9317
1916.4935
1960.2183
1957.4975
1922.9607
1869.6948
1807.8363
1744.3101
1683.4262
1627.7747
1578.7187
1536.8589
1502.3253
1474.9434
1454.5171
1441.4274
1436.346
11.96585
26.365658
42.104106
57.21649
71.53562
84.633591
95.955325
104.72762
109.89826
110.11333
103.8019
89.276606
64.758311
28.907437
-17.019472
-66.703468
-110.24989
-139.22874
-148.9945
-137.5514
-104.54799
-50.079832
26.067656
124.3985
245.54552
389.78509
556.64691
744.78722
950.46826
1165.473
1375.703
1562.5371
1708.9269
1806.4495
1856.8887
1868.2987
1851.1307
1815.4431
1769.5682
1719.7245
1670.0955
1623.4065
1581.3245
1544.7826
1514.2205
1489.7311
1471.3235
1459.4738
1454.8655
13.672497
27.359525
41.871583
55.550649
68.315593
79.771031
89.415273
96.580963
100.407
99.848815
93.763479
81.007141
60.559586
32.098565
-2.5892301
-38.476408
-68.50154
-86.407576
-88.110018
-71.431328
-35.489757
20.053821
95.479086
191.07346
307.00093
442.97314
597.9626
769.86531
954.48531
1144.3014
1327.8965
1491.4041
1622.6057
1715.1563
1769.5573
1791.0633
1787.1661
1765.5768
1733.0729
1695.0576
1655.4631
1616.9941
1581.4706
1550.0417
1523.373
1501.767
1485.3996
1474.8147
1470.6909
11.353724
24.027782
37.645039
50.500457
62.432244
73.046635
81.879877
88.351851
91.760531
91.31251
86.205994
75.732703
59.44606
37.651166
12.276188
-12.652227
-31.896738
-40.645057
-35.405072
-14.037933
24.575284
80.988122
155.49819
248.21823
358.97812
487.09982
631.16218
788.66162
955.34857
1124.537
1286.9994
1432.2478
1551.2799
1639.1806
1695.7793
1724.5049
1730.7497
1720.4239
1699.013
1671.1265
1640.3511
1609.2933
1579.8152
1553.1929
1530.2475
1511.441
1497.0794
1487.7489
1484.1073
11.407392
23.295947
35.923393
47.754238
58.666059
68.304876
76.268297
82.076557
85.182408
85.010245
81.033169
72.876317
60.489137
44.522164
26.847394
10.72129
0.16258009
-1.0282403
10.10538
35.553826
76.498595
133.57326
207.05476
296.9145
402.74636
523.60875
657.835
802.75868
954.29673
1106.6002
1252.184
1382.9751
1492.1641
1575.8543
1633.531
1667.421
1681.422
1680.0717
1667.7999
1648.506
1625.3918
1600.9181
1576.9174
1554.7266
1535.2675
1519.1183
1506.6842
1498.57
1495.3982
10.343677
21.515162
33.418396
44.56043
54.805534
63.829275
71.285569
76.786854
79.922694
80.301517
77.620538
71.762664
62.951122
52.019613
40.711869
31.704956
28.182174
33.206487
49.281259
78.204291
121.12197
178.66767
251.07231
338.19294
439.45864
553.75777
679.29277
813.38211
952.21499
1090.711
1222.751
1342.0027
1443.1847
1523.1431
1581.1968
1618.7735
1638.7034
1644.4825
1639.69
1627.6163
1611.0824
1592.3709
1573.2511
1555.0718
1538.8126
1525.1346
1514.5161
1507.5606
1504.839
9.9405866
20.476311
31.670225
42.129903
51.73993
60.213148
67.259545
72.575005
75.865107
76.886596
75.510328
71.807456
66.17834
59.53831
53.481636
50.250148
52.431915
62.544092
82.71521
114.54287
159.08938
216.94375
288.27783
372.85652
469.99572
578.48182
696.46734
821.34137
949.60173
1076.8381
1197.9922
1307.9979
1402.6581
1479.3696
1537.3811
1577.5848
1602.0454
1613.4713
1614.7638
1608.7013
1597.7593
1584.028
1569.1939
1554.5862
1541.212
1529.7893
1520.8522
1514.9869
1512.6931
9.3564689
19.364636
30.008238
39.956221
49.101735
57.191701
63.98811
69.261333
72.815804
74.529164
74.407914
72.661166
69.801725
66.769824
65.018179
66.459731
73.249632
87.495612
111.02118
145.23568
191.09819
249.13265
319.44824
401.73628
495.23674
598.68173
710.22609
827.37271
946.92336
1065.0316
1177.4568
1280.06
1369.4248
1443.3597
1501.0937
1543.1579
1571.0663
1586.9342
1593.129
1592.0065
1585.7413
1576.238
1565.0916
1553.5956
1542.7632
1533.352
1525.9432
1521.0956
1519.2101
8.9349067
18.485889
28.649998
38.16036
46.9227
54.715521
61.346386
66.648383
70.506171
72.892151
73.915111
73.881732
73.372965
73.323767
75.062239
80.252195
90.73004
108.29455
134.52467
170.66333
217.56505
275.683
345.06642
425.34876
515.72058
614.89137
721.0483
831.82292
944.29337
1055.0741
1160.5502
1257.2636
1342.3647
1413.9703
1471.316
1514.6881
1545.2054
1564.5393
1574.6423
1577.5287
1575.1197
1569.1523
1561.1294
1552.3022
1543.6748
1536.0293
1529.9952
1526.1071
1524.6258
8.5490718
17.74339
27.539597
36.720501
45.201006
52.787963
59.328618
64.708534
68.876956
71.879844
73.902151
75.318311
76.748781
79.109755
83.625722
91.773093
105.15335
125.33317
153.69926
191.3546
239.05841
297.19677
365.76586
444.35467
532.12292
627.77678
729.54933
835.19711
942.03487
1047.0431
1147.0788
1239.1822
1320.9144
1390.6221
1447.5579
1491.8422
1524.3115
1546.3082
1559.4677
1565.5341
1566.2217
1563.1241
1557.6588
1551.0349
1544.2385
1538.0661
1533.2125
1530.2276
1529.1728
8.1797788
17.102033
26.616298
35.549271
43.821557
51.26472
57.758783
63.230986
67.680246
71.207472
74.052568
76.635818
79.599489
83.837512
90.492493
100.90246
116.49801
138.67454
168.6721
207.48178
255.78259
313.9028
381.79456
459.0137
544.70149
637.57073
735.90221
837.56185
940.05561
1040.6442
1136.5322
1225.1185
1304.258
1372.4656
1429.0135
1473.9117
1507.7979
1531.7769
1547.2486
1555.7516
1558.8383
1557.9871
1554.5454
1549.6885
1544.3857
1539.4363
1535.6165
1533.5679
1533.0773
7.8074498
16.603211
25.940198
34.712368
42.846855
50.199192
56.67642
62.237846
66.919126
70.860675
74.340477
77.808628
81.918318
87.542446
95.761769
107.81613
125.01746
148.64075
179.82016
219.46333
268.18748
326.27559
393.64627
469.83199
553.96375
644.76459
740.55707
839.29401
938.62526
1036.0144
1128.9106
1214.9609
1292.2226
1359.3283
1415.568
1460.8796
1495.7665
1521.1685
1538.3189
1548.6074
1553.4677
1554.2915
1552.3718
1548.8585
1544.705
1540.6818
1537.6136
1536.3932
1536.6784
7.304145
16.167644
25.424097
34.111289
42.165071
49.465429
55.940189
61.57083
66.417108
70.644484
74.55427
78.613639
83.480016
90.010565
99.246141
112.36662
130.61036
155.17371
187.12057
227.30313
276.29677
334.35365
401.36987
476.86299
559.95869
649.38893
743.50641
840.32349
937.5855
1032.8874
1123.8342
1208.2288
1284.2559
1350.623
1406.633
1452.181
1487.6866
1513.9857
1532.2044
1543.6363
1549.6367
1551.5378
1550.5922
1547.9356
1544.5151
1541.0467
1538.3502
1537.9195
1540.1127
6.081445
15.835427
25.143096
33.822702
41.845797
49.124402
55.600559
61.267947
66.198627
70.570589
74.696891
79.053458
84.300583
91.290261
101.04813
114.71791
133.49031
158.52478
190.85532
231.30721
280.43497
338.47508
405.31216
480.4562
563.03035
651.7714
745.04778
840.9024
937.12892
1031.3881
1121.3621
1204.9309
1280.3419
1346.3402
1402.236
1447.904
1483.7234
1510.4794
1529.2461
1541.2699
1547.863
1550.3267
1549.9017
1547.727
1544.7599
1541.6756
1539.2599
1539.7829
1545.6251
-2227.7586
-2483.6247
-2699.5386
-2881.4834
-3023.9672
-3106.2144
-3108.2253
-3029.2211
-2857.2784
-2664.0032
-3205.3886
-3205.2806
-3198.4351
-3187.4481
-3173.3338
-3160.581
-3148.7452
-3158.2119
-3158.814
-3131.4096
-3183.031
-3181.9065
-3167.1521
-3150.1889
-3133.2738
-3124.283
-3105.9904
-3113.2074
-3100.0758
-3046.5496
-3137.8414
-3135.1794
-3126.5762
-3117.8805
-3109.087
-3112.0992
-3101.0037
-3098.971
-3085.5697
-3048.7078
-3078.1493
-3076.7147
-3072.1692
-3066.2519
-3057.7463
-3058.1463
-3057.8121
-3057.1419
-3055.6634
-3059.4003
-3030.1688
-3029.3764
-3023.6156
-3013.4544
-2998.1996
-2968.6372
-2990.8012
-3003.102
-3009.7477
-3023.0965
-3013.4126
-3015.1067
-3018.3584
-3021.7456
-3032.6624
-3008.5365
-3008.2145
-3004.5872
-2989.6689
-2966.6809
-3027.9228
-3029.5536
-3035.6395
-3044.3359
-3068.3858
-3076.1024
-3056.7212
-3030.7037
-3000.8668
-2965.4629
-3848.4529
-3860.7653
-3831.7265
-3787.3169
-3749.7571
-3717.6919
-3696.1886
-3682.4624
-3673.5225
-3675.2646
-2986.9813
-2985.7891
-2977.9083
-2960.9534
-2921.5852
-2946.946
-2958.9508
-2961.1434
-2950.6575
-2923.5506
-3009.248
-3012.3245
-3018.6878
-3037.9313
-3013.9714
-3005.2508
-3001.299
-2993.8833
-2979.8931
-2964.7514
-3048.5062
-3050.9587
-3056.1365
-3080.7256
-3093.4954
-3069.4233
-3042.6913
-3022.4069
-3003.5381
-2987.0524
-2999.6587
-2995.83
-2976.941
-2951.66
-2974.597
-2992.078
-3003.3173
-3010.7373
-3013.0005
-3020.0181
-3033.2644
-3035.7249
-3034.8612
-2997.9699
-3007.1034
-3020.7162
-3031.5165
-3038.7497
-3041.7992
-3051.364
-3156.89
-3164.6841
-3188.9174
-3187.4465
-3159.5467
-3131.7556
-3111.0621
-3095.6693
-3080.2518
-3063.019
-3141.9783
-3137.1436
-3129.66
-3149.8312
-3150.4249
-3144.6321
-3138.4095
-3132.9744
-3126.9763
-3128.8786
-3162.756
-3162.0354
-3137.7509
-3147.905
-3159.3507
-3167.4867
-3171.9067
-3173.7104
-3173.0009
-3177.7022
-3277.1167
-3289.5199
-3285.4693
-3271.128
-3255.8062
-3243.7653
-3235.0337
-3229.24
-3222.4246
-3213.8642
-3282.489
-3286.5604
-3294.015
-3285.9372
-3276.2942
-3270.7942
-3270.559
-3275.0002
-3280.0408
-3292.3433
-3186.3251
-3172.2151
-3189.5515
-3215.4284
-3244.9018
-3273.5987
-3300.5726
-3325.1455
-3345.2983
-3370.2635
-3326.0536
-3302.4344
-3312.0419
-3332.3495
-3359.1129
-3384.3607
-3406.8262
-3425.2574
-3437.7758
-3453.4906
-3701.6753
-3692.656
-3661.9572
-3627.8861
-3602.8072
-3583.3219
-3571.2318
-3564.0738
-3557.9588
-3555.0927
-3016.6782
-3015.1526
-3009.7375
-2998.1192
-2992.6331
-2999.892
-2999.5293
-2994.1788
-2984.9466
-2983.9229
-3540.5374
-3549.1342
-3563.5685
-3610.8524
-3667.0279
-3718.8595
-3739.9417
-3721.8027
-3638.102
-3466.2525
-3268.758
-3268.9928
-3271.9423
-3276.8103
-3277.921
-3277.0249
-3275.0636
-3269.9189
-3265.7613
-3219.2842
-3179.526
-3227.5518
-3289.6662
-3394.3692
-3505.6945
-3592.5201
-3635.0758
-3595.2065
-3447.0632
-3214.6344
-3480.2762
-3490.3197
-3511.2504
-3547.9496
-3581.598
-3610.2575
-3618.8286
-3618.3238
-3582.5458
-3470.1567
-3367.3446
-3371.7346
-3385.9141
-3409.8723
-3430.8332
-3448.4891
-3456.6147
-3446.1957
-3433.578
-3381.8266
11318.721
10715.546
10129.574
9489.9387
8832.8455
8179.5386
7545.1798
6936.7832
6347.3435
5770.3036
8301.8478
8224.5309
8101.259
7839.6069
7501.7186
7111.2843
6689.606
6254.5656
5816.3985
5360.0005
-3709.5006
-3727.9362
-3745.344
-3751.3104
-3759.9992
-3763.2636
-3768.0591
-3771.4949
-3772.8201
-3776.3118
-3705.852
-3709.7032
-3745.0495
-3776.2802
-3815.3392
-3842.5109
-3866.4373
-3882.4673
-3891.1149
-3895.3027
-3946.5157
-3939.2803
-3955.5091
-3963.0862
-3991.4661
-4009.8458
-4029.6727
-4042.649
-4048.0683
-4043.6184
-4222.4234
-4212.0685
-4226.3373
-4216.9237
-4232.9949
-4234.8768
-4241.3994
-4242.448
-4238.876
-4234.5149
-4544.877
-4526.7373
-4538.4824
-4511.4473
-4515.2331
-4497.3862
-4484.928
-4464.901
-4437.2335
-4404.8728
-4901.1058
-4873.8836
-4883.4906
-4837.0694
-4828.6374
-4790.1484
-4757.3175
-4713.8954
-4659.2259
-4599.0149
-5281.8498
-5243.3995
-5252.0396
-5185.2223
-5165.6721
-5107.5834
-5056.188
-4992.719
-4916.4636
-4831.1517
-5682.8605
-5630.7854
-5639.6101
-5550.5889
-5519.7721
-5441.544
-5370.8777
-5288.4428
-5198.4688
-5115.9184
-6105.0443
-6035.9218
-6045.7708
-5931.7765
-5888.3059
-5787.897
-5693.5295
-5583.501
-5458.1878
-5322.5874
-6548.5006
-6458.4128
-6470.8435
-6329.1986
-6271.9443
-6149.0596
-6030.8966
-5896.7845
-5747.1783
-5585.419
-7019.3416
-6902.2106
-6917.9747
-6744.4919
-6670.3457
-6522.7548
-6376.8534
-6214.6285
-6036.137
-5850.2664
-7516.4405
-7366.2091
-7388.3265
-7179.8872
-7085.7241
-6911.6636
-6733.8687
-6537.7863
-6319.1651
-6081.885
-8058.1149
-7863.4479
-7892.3978