/*--------------------------------*- C++ -*----------------------------------*\
| =========                 |                                                 |
| \\      /  F ield         | foam-extend: Open Source CFD                    |
|  \\    /   O peration     | Version:     4.1                                |
|   \\  /    A nd           | Web:         http://www.foam-extend.org         |
|    \\/     M anipulation  |                                                 |
\*---------------------------------------------------------------------------*/
FoamFile
{
    version     2.0;
    format      ascii;
    class       volVectorField;
    location    "2.1";
    object      U;
}
// * * * * * * * * * * * * * * * * * * * * * * * * * * * * * * * * * * * * * //

dimensions      [0 1 -1 0 0 0 0];

internalField   nonuniform List<vector> 
4393
(
(146.0489 -0.15650299 0)
(146.5975 -0.16293696 0)
(147.0118 -0.16595108 0)
(147.45302 -0.16960181 0)
(147.90407 -0.17400967 0)
(148.36986 -0.17926013 0)
(148.8526 -0.18527502 0)
(149.35444 -0.19190809 0)
(149.87699 -0.19895367 0)
(150.42114 -0.20614873 0)
(150.98694 -0.21317308 0)
(151.57338 -0.21965253 0)
(152.17825 -0.22516773 0)
(152.79805 -0.22926999 0)
(153.42788 -0.23150438 0)
(154.06149 -0.23143761 0)
(154.69139 -0.22868563 0)
(155.30905 -0.22293507 0)
(155.90508 -0.21395433 0)
(156.46956 -0.20159369 0)
(156.99221 -0.18577845 0)
(157.46262 -0.16650103 0)
(157.87046 -0.14381872 0)
(158.20563 -0.11786201 0)
(158.4586 -0.088857114 0)
(158.62065 -0.057159586 0)
(158.68448 -0.023276085 0)
(158.64488 0.012126555 0)
(158.49853 0.047973225 0)
(158.24628 0.08284876 0)
(157.89311 0.11530701 0)
(157.44834 0.14393706 0)
(156.92537 0.16751053 0)
(156.3408 0.18513465 0)
(155.71333 0.19635096 0)
(155.0623 0.20115491 0)
(154.40645 0.19994208 0)
(153.76286 0.19340541 0)
(153.14622 0.18241419 0)
(152.56855 0.16790046 0)
(152.03911 0.15076881 0)
(151.56467 0.13183512 0)
(151.14978 0.11179339 0)
(150.79719 0.091217221 0)
(150.50827 0.070610783 0)
(150.28348 0.050432469 0)
(150.12222 0.030837466 0)
(150.02092 0.011723073 0)
(149.97389 -0.0031700234 0)
(149.47194 -0.39491472 0)
(149.94134 -0.40586631 0)
(150.28758 -0.41396603 0)
(150.65757 -0.42450811 0)
(151.03721 -0.43760785 0)
(151.43148 -0.45330107 0)
(151.84274 -0.4713176 0)
(152.27326 -0.49121201 0)
(152.72471 -0.51237193 0)
(153.19807 -0.53401634 0)
(153.69348 -0.55519347 0)
(154.20999 -0.57478876 0)
(154.74548 -0.59154956 0)
(155.29645 -0.60413157 0)
(155.85801 -0.61116758 0)
(156.42389 -0.61135156 0)
(156.98653 -0.60352305 0)
(157.53727 -0.58673315 0)
(158.06664 -0.56027892 0)
(158.56461 -0.52370444 0)
(159.02077 -0.47678026 0)
(159.42465 -0.41948053 0)
(159.76578 -0.3519779 0)
(160.03397 -0.27467252 0)
(160.21949 -0.18826598 0)
(160.31345 -0.093877218 0)
(160.30829 0.0068449852 0)
(160.19843 0.11165832 0)
(159.98172 0.21748515 0)
(159.65888 0.32051332 0)
(159.23466 0.41654773 0)
(158.71823 0.50139291 0)
(158.12299 0.57135832 0)
(157.46573 0.62373672 0)
(156.76535 0.65710929 0)
(156.04147 0.67140886 0)
(155.31302 0.66776011 0)
(154.59716 0.64817291 0)
(153.90862 0.61518103 0)
(153.25934 0.57150303 0)
(152.6585 0.51977208 0)
(152.11272 0.46235043 0)
(151.62645 0.40122598 0)
(151.20242 0.33800172 0)
(150.84201 0.27399614 0)
(150.54554 0.21026765 0)
(150.31218 0.14710529 0)
(150.14086 0.084344857 0)
(150.03531 0.028580556 0)
(149.73739 -0.62939361 0)
(150.19159 -0.63857054 0)
(150.52687 -0.65072025 0)
(150.88501 -0.66771105 0)
(151.25284 -0.68939168 0)
(151.63542 -0.71553994 0)
(152.03526 -0.74564625 0)
(152.45473 -0.77895184 0)
(152.89563 -0.81443456 0)
(153.35911 -0.85079292 0)
(153.84544 -0.88643708 0)
(154.35385 -0.91949879 0)
(154.88235 -0.94787068 0)
(155.42757 -0.96928359 0)
(155.98467 -0.98142409 0)
(156.54738 -0.98208077 0)
(157.10806 -0.96929247 0)
(157.65797 -0.94146399 0)
(158.18754 -0.89742404 0)
(158.68661 -0.83642208 0)
(159.14471 -0.75808528 0)
(159.55126 -0.66237106 0)
(159.8957 -0.54955188 0)
(160.16766 -0.42026157 0)
(160.35713 -0.27562245 0)
(160.45481 -0.11745668 0)
(160.45263 0.051463156 0)
(160.34437 0.2272529 0)
(160.1264 0.4048549 0)
(159.79877 0.57802902 0)
(159.36598 0.73967594 0)
(158.83741 0.88259878 0)
(158.22711 1.0004399 0)
(157.55291 1.0885459 0)
(156.83491 1.1445113 0)
(156.09388 1.1682799 0)
(155.34967 1.1618476 0)
(154.6201 1.1287113 0)
(153.9202 1.073232 0)
(153.26196 1.0000462 0)
(152.6544 0.91360621 0)
(152.10385 0.81786967 0)
(151.61442 0.71613368 0)
(151.18849 0.61100871 0)
(150.82718 0.50451242 0)
(150.53034 0.39807286 0)
(150.29671 0.29220453 0)
(150.12702 0.1872053 0)
(150.02928 0.087413773 0)
(149.82993 -0.85840957 0)
(150.2762 -0.86818669 0)
(150.60689 -0.88443524 0)
(150.96021 -0.90797663 0)
(151.32346 -0.93842246 0)
(151.70181 -0.97532212 0)
(152.09796 -1.0179328 0)
(152.51447 -1.0651977 0)
(152.95336 -1.1157036 0)
(153.41601 -1.1676447 0)
(153.90293 -1.2188013 0)
(154.41357 -1.2665463 0)
(154.94611 -1.3078957 0)
(155.49728 -1.3396153 0)
(156.06222 -1.3583907 0)
(156.63452 -1.3610452 0)
(157.20631 -1.3447649 0)
(157.76854 -1.3072738 0)
(158.31127 -1.2469182 0)
(158.82403 -1.162652 0)
(159.29606 -1.053958 0)
(159.71652 -0.92076061 0)
(160.07456 -0.76338797 0)
(160.35947 -0.58262776 0)
(160.56076 -0.37990581 0)
(160.66846 -0.15759511 0)
(160.67363 0.080594014 0)
(160.56908 0.32929718 0)
(160.35013 0.58129821 0)
(160.01601 0.82757861 0)
(159.57083 1.0577951 0)
(159.02428 1.2613672 0)
(158.39144 1.428911 0)
(157.69177 1.5535891 0)
(156.94728 1.6319471 0)
(156.18053 1.6640466 0)
(155.41286 1.6529778 0)
(154.66304 1.6039959 0)
(153.94658 1.5235518 0)
(153.2755 1.4184202 0)
(152.65854 1.2950353 0)
(152.10159 1.1590617 0)
(151.60818 1.0151825 0)
(151.1802 0.86707311 0)
(150.81825 0.71749255 0)
(150.52164 0.56832285 0)
(150.28881 0.42059241 0)
(150.12121 0.27534749 0)
(150.02715 0.13502558 0)
(149.93892 -1.0819501 0)
(150.37711 -1.0932722 0)
(150.70246 -1.1137395 0)
(151.05041 -1.1439483 0)
(151.40865 -1.1833389 0)
(151.78247 -1.2312718 0)
(152.17479 -1.286784 0)
(152.58842 -1.3485308 0)
(153.02568 -1.4147156 0)
(153.48825 -1.483029 0)
(153.97695 -1.5506106 0)
(154.49154 -1.6140465 0)
(155.03044 -1.6694263 0)
(155.59049 -1.7124781 0)
(156.16684 -1.7387976 0)
(156.75286 -1.7441532 0)
(157.34035 -1.7248086 0)
(157.91977 -1.6777756 0)
(158.48071 -1.6009272 0)
(159.01225 -1.4929607 0)
(159.50327 -1.3532604 0)
(159.94259 -1.1817475 0)
(160.31905 -0.97880077 0)
(160.62154 -0.74531336 0)
(160.83897 -0.48292647 0)
(160.96048 -0.19445201 0)
(160.97602 0.11557308 0)
(160.877 0.44040852 0)
(160.65725 0.77075443 0)
(160.31472 1.0946354 0)
(159.85287 1.3980361 0)
(159.28173 1.6664147 0)
(158.61786 1.8868022 0)
(157.88307 2.049808 0)
(157.10209 2.1508395 0)
(156.3001 2.1902454 0)
(155.50046 2.1725457 0)
(154.72327 2.1051452 0)
(153.98459 1.9969414 0)
(153.29645 1.8571161 0)
(152.66714 1.6942487 0)
(152.10183 1.5157729 0)
(151.60332 1.3277343 0)
(151.17272 1.1347784 0)
(150.80995 0.9402645 0)
(150.51371 0.74638678 0)
(150.28219 0.55444174 0)
(150.11706 0.36561714 0)
(150.02586 0.18119233 0)
(150.07649 -1.3029509 0)
(150.50472 -1.3163098 0)
(150.82324 -1.3411828 0)
(151.16438 -1.3782813 0)
(151.51625 -1.4269411 0)
(151.88433 -1.4863905 0)
(152.27176 -1.5554852 0)
(152.68167 -1.6326267 0)
(153.11673 -1.7156628 0)
(153.57904 -1.8017983 0)
(154.06983 -1.8875311 0)
(154.58926 -1.9686336 0)
(155.13607 -2.0402082 0)
(155.70733 -2.0968472 0)
(156.29815 -2.132927 0)
(156.90166 -2.1430232 0)
(157.50916 -2.1223631 0)
(158.1105 -2.0671829 0)
(158.69463 -1.9748781 0)
(159.25004 -1.8439241 0)
(159.76515 -1.6736482 0)
(160.22842 -1.4639798 0)
(160.62837 -1.2153027 0)
(160.95342 -0.92849894 0)
(161.19179 -0.60524002 0)
(161.33155 -0.24854914 0)
(161.36114 0.13642443 0)
(161.27019 0.54165193 0)
(161.05038 0.95566161 0)
(160.69784 1.3632364 0)
(160.21494 1.7460855 0)
(159.61207 2.0848709 0)
(158.90778 2.3622191 0)
(158.12713 2.5656594 0)
(157.29869 2.6893645 0)
(156.45114 2.7342644 0)
(155.61059 2.7068428 0)
(154.79877 2.6172583 0)
(154.0324 2.4774017 0)
(153.32335 2.2992818 0)
(152.67921 2.0939002 0)
(152.10416 1.8706088 0)
(151.59994 1.636863 0)
(151.16662 1.3982521 0)
(150.80317 1.1586722 0)
(150.50754 0.92055148 0)
(150.27748 0.68523068 0)
(150.11443 0.4535392 0)
(150.02513 0.22567275 0)
(150.24333 -1.5149126 0)
(150.66 -1.5306038 0)
(150.9702 -1.5601505 0)
(151.30294 -1.6044732 0)
(151.64694 -1.6628338 0)
(152.00783 -1.7343724 0)
(152.38907 -1.8178029 0)
(152.79415 -1.911311 0)
(153.22619 -2.0124226 0)
(153.68776 -2.1178789 0)
(154.18067 -2.2235381 0)
(154.70559 -2.3243298 0)
(155.26171 -2.4142971 0)
(155.84638 -2.4867746 0)
(156.45474 -2.5347539 0)
(157.07958 -2.5514384 0)
(157.71159 -2.5308751 0)
(158.33976 -2.4684614 0)
(158.9522 -2.3611428 0)
(159.53666 -2.2072658 0)
(160.08103 -2.0062062 0)
(160.57343 -1.757968 0)
(161.00204 -1.4629275 0)
(161.35486 -1.1218403 0)
(161.61936 -0.73618855 0)
(161.78236 -0.30890685 0)
(161.83045 0.15456185 0)
(161.7509 0.64516069 0)
(161.53252 1.1493538 0)
(161.16872 1.6483677 0)
(160.66021 2.1188351 0)
(160.01761 2.5354308 0)
(159.26211 2.8751738 0)
(158.42322 3.1217391 0)
(157.5347 3.2679339 0)
(156.62999 3.3156978 0)
(155.73869 3.2742239 0)
(154.88454 3.1572318 0)
(154.08491 2.9802983 0)
(153.35126 2.7587566 0)
(152.69013 2.5063246 0)
(152.10436 2.234398 0)
(151.59425 1.9518488 0)
(151.15854 1.6651486 0)
(150.79505 1.3786522 0)
(150.50078 1.094956 0)
(150.27284 0.81535751 0)
(150.11214 0.54028882 0)
(150.02456 0.2691663 0)
(150.43875 -1.725423 0)
(150.84135 -1.7434636 0)
(151.14158 -1.7777053 0)
(151.46428 -1.8293598 0)
(151.79881 -1.8976651 0)
(152.15099 -1.9817281 0)
(152.52461 -2.0801781 0)
(152.92361 -2.1910436 0)
(153.35163 -2.311583 0)
(153.81186 -2.4381155 0)
(154.30676 -2.5658757 0)
(154.8377 -2.6889259 0)
(155.40448 -2.800169 0)
(156.00486 -2.8915277 0)
(156.63403 -2.9543845 0)
(157.28442 -2.9803141 0)
(157.94584 -2.9619702 0)
(158.60621 -2.8938099 0)
(159.25247 -2.7723624 0)
(159.8715 -2.595973 0)
(160.45059 -2.3642111 0)
(160.9775 -2.0772437 0)
(161.44023 -1.7354193 0)
(161.82644 -1.3392086 0)
(162.12287 -0.88960224 0)
(162.31495 -0.38902805 0)
(162.387 0.15723874 0)
(162.32337 0.73946607 0)
(162.10896 1.3421773 0)
(161.73338 1.9427298 0)
(161.19461 2.5116545 0)
(160.50329 3.0159742 0)
(159.68399 3.4253633 0)
(158.77235 3.7185537 0)
(157.80919 3.8868758 0)
(156.83422 3.9339773 0)
(155.88146 3.8728717 0)
(154.977 3.7219813 0)
(154.1387 3.5015018 0)
(153.3772 3.2307235 0)
(152.6975 2.9264238 0)
(152.10061 2.6021561 0)
(151.58495 2.2681655 0)
(151.14761 1.9316696 0)
(150.78497 1.5973062 0)
(150.49295 1.2676448 0)
(150.26784 0.94373489 0)
(150.10983 0.62551186 0)
(150.02402 0.31173436 0)
(150.66219 -1.9210448 0)
(151.0492 -1.9416726 0)
(151.33789 -1.9810147 0)
(151.64881 -2.0405624 0)
(151.97212 -2.1195443 0)
(152.31385 -2.2170815 0)
(152.67819 -2.3317778 0)
(153.06956 -2.4615706 0)
(153.49222 -2.6035166 0)
(153.95009 -2.7535661 0)
(154.44648 -2.906355 0)
(154.98362 -3.0550565 0)
(155.56213 -3.1913395 0)
(156.18036 -3.3055236 0)
(156.83368 -3.3870845 0)
(157.51403 -3.4256152 0)
(158.21014 -3.4120773 0)
(158.90842 -3.3398596 0)
(159.59436 -3.2051556 0)
(160.25366 -3.0065364 0)
(160.87299 -2.7440211 0)
(161.43989 -2.4181162 0)
(161.94234 -2.0291682 0)
(162.36787 -1.5771966 0)
(162.70264 -1.0623267 0)
(162.93057 -0.48592843 0)
(163.03337 0.14753791 0)
(162.99172 0.82826963 0)
(162.78538 1.5392586 0)
(162.3985 2.2537514 0)
(161.82486 2.9348975 0)
(161.07447 3.5397203 0)
(160.17633 4.0279841 0)
(159.17447 4.3718911 0)
(158.11936 4.5612106 0)
(157.05902 4.6023795 0)
(156.03299 4.5138331 0)
(155.06991 4.3202483 0)
(154.18778 4.0476348 0)
(153.39582 3.7199937 0)
(152.69681 3.3575289 0)
(152.08924 2.9760376 0)
(151.56919 2.5870516 0)
(151.13168 2.1983641 0)
(150.77141 1.8146979 0)
(150.483 1.4383937 0)
(150.2618 1.0700617 0)
(150.10717 0.70902262 0)
(150.02341 0.35333293 0)
(150.91341 -2.1185668 0)
(151.2815 -2.1416589 0)
(151.5568 -2.1859503 0)
(151.85405 -2.2533012 0)
(152.16426 -2.3429939 0)
(152.49367 -2.4542312 0)
(152.84687 -2.5856729 0)
(153.22882 -2.7352586 0)
(153.6445 -2.8999415 0)
(154.09873 -3.0753927 0)
(154.59582 -3.2557105 0)
(155.1391 -3.4331863 0)
(155.7303 -3.5981769 0)
(156.36861 -3.7391895 0)
(157.04972 -3.8434229 0)
(157.76503 -3.898012 0)
(158.50183 -3.8918094 0)
(159.24453 -3.8169622 0)
(159.97659 -3.6694663 0)
(160.6823 -3.4484696 0)
(161.34764 -3.154822 0)
(161.96015 -2.7896234 0)
(162.50808 -2.3532612 0)
(162.97923 -1.8450906 0)
(163.35941 -1.2638767 0)
(163.63114 -0.60918521 0)
(163.77308 0.11624356 0)
(163.76152 0.90344708 0)
(163.56949 1.7345448 0)
(163.17346 2.5786426 0)
(162.56057 3.3900013 0)
(161.7391 4.1123539 0)
(160.74374 4.6917322 0)
(159.63022 5.0914929 0)
(158.46231 5.2998941 0)
(157.29902 5.3278897 0)
(156.18666 5.2016862 0)
(155.15645 4.9543372 0)
(154.22587 4.6191799 0)
(153.40177 4.2257858 0)
(152.6837 3.7981194 0)
(152.0669 3.3542077 0)
(151.54448 2.9066629 0)
(151.10898 2.4635701 0)
(150.75314 2.0294456 0)
(150.47013 1.606136 0)
(150.25423 1.1935961 0)
(150.1039 0.79039409 0)
(150.02268 0.39378357 0)
(151.19051 -2.2909252 0)
(151.53868 -2.3166121 0)
(151.79896 -2.3662396 0)
(152.08069 -2.4419995 0)
(152.37584 -2.5432435 0)
(152.69088 -2.6693219 0)
(153.03085 -2.8190416 0)
(153.40129 -2.9904558 0)
(153.80799 -3.1805368 0)
(154.25679 -3.3847935 0)
(154.75325 -3.5968729 0)
(155.30209 -3.8082095 0)
(155.90646 -4.0077688 0)
(156.56681 -4.1819898 0)
(157.27939 -4.3152921 0)
(158.03505 -4.3916517 0)
(158.81916 -4.3971611 0)
(159.61335 -4.3224337 0)
(160.3984 -4.1634583 0)
(161.15678 -3.9204873 0)
(161.87379 -3.5957797 0)
(162.53728 -3.191432 0)
(163.13632 -2.7080052 0)
(163.65952 -2.1440061 0)
(164.09284 -1.496281 0)
(164.41756 -0.76166051 0)
(164.60906 0.060037786 0)
(164.63843 0.96206333 0)
(164.46999 1.9268334 0)
(164.06949 2.9196712 0)
(163.4137 3.8843444 0)
(162.50705 4.7466735 0)
(161.39152 5.4331238 0)
(160.13942 5.8947226 0)
(158.83316 6.1185691 0)
(157.54627 6.1228986 0)
(156.33318 5.9451391 0)
(155.22741 5.6295976 0)
(154.2447 5.2188173 0)
(153.3881 4.7488731 0)
(152.6527 4.2477385 0)
(152.02945 3.7355105 0)
(151.50782 3.2255293 0)
(151.07742 2.7257666 0)
(150.72878 2.2401493 0)
(150.45347 1.7697004 0)
(150.24464 1.3134614 0)
(150.09983 0.86906755 0)
(150.02177 0.43282094 0)
(151.49499 -2.4738441 0)
(151.8188 -2.5022051 0)
(152.06188 -2.5571293 0)
(152.32587 -2.6412519 0)
(152.60371 -2.7540723 0)
(152.902 -2.8951689 0)
(153.22623 -3.0636013 0)
(153.58258 -3.2576677 0)
(153.97773 -3.4745129 0)
(154.41872 -3.7096437 0)
(154.91259 -3.9563912 0)
(155.46579 -4.2054076 0)
(156.08337 -4.4442333 0)
(156.76757 -4.6569936 0)
(157.51568 -4.8247283 0)
(158.31801 -4.9273175 0)
(159.15738 -4.9471864 0)
(160.01158 -4.8730533 0)
(160.85764 -4.7013041 0)
(161.67564 -4.434218 0)
(162.45029 -4.0764231 0)
(163.1702 -3.6316521 0)
(163.82599 -3.1008594 0)
(164.4079 -2.4814861 0)
(164.90281 -1.7677144 0)
(165.29123 -0.95232382 0)
(165.54522 -0.030500297 0)
(165.62896 0.99512928 0)
(165.49755 2.1090118 0)
(165.10114 3.2741382 0)
(164.40039 4.4222927 0)
(163.39186 5.4549438 0)
(162.12684 6.2698962 0)
(160.70163 6.8004564 0)
(159.22515 7.0336189 0)
(157.79023 6.9993778 0)
(156.46075 6.7514852 0)
(155.27147 6.3493652 0)
(154.23446 5.8470191 0)
(153.3469 5.2879313 0)
(152.59774 4.7041216 0)
(151.97246 4.1173447 0)
(151.4561 3.5410951 0)
(151.0349 2.9826595 0)
(150.69697 2.4448816 0)
(150.4322 1.9275671 0)
(150.23259 1.4285521 0)
(150.09477 0.94433466 0)
(150.02066 0.47010133 0)
(151.82145 -2.6141358 0)
(152.12076 -2.6447312 0)
(152.34508 -2.7047729 0)
(152.58941 -2.7972798 0)
(152.84782 -2.9219224 0)
(153.12706 -3.0786016 0)
(153.43304 -3.266771 0)
(153.77259 -3.485159 0)
(154.15337 -3.7313097 0)
(154.58378 -4.0009784 0)
(155.07259 -4.2874179 0)
(155.6284 -4.580674 0)
(156.2587 -4.8669234 0)
(156.96827 -5.1277834 0)
(157.75619 -5.3401889 0)
(158.61235 -5.4785747 0)
(159.51622 -5.5202409 0)
(160.44011 -5.4513094 0)
(161.35574 -5.2690142 0)
(162.24005 -4.9788737 0)
(163.07734 -4.5890949 0)
(163.85785 -4.1057428 0)
(164.57481 -3.5303348 0)
(165.22129 -2.8590043 0)
(165.78633 -2.0824852 0)
(166.25048 -1.1879849 0)
(166.5826 -0.16396737 0)
(166.73938 0.99331232 0)
(166.66426 2.2730455 0)
(166.28652 3.6388192 0)
(165.54188 5.0097649 0)
(164.4117 6.2542102 0)
(162.95882 7.2267841 0)
(161.31517 7.8343641 0)
(159.62819 8.0664521 0)
(158.01629 7.9721058 0)
(156.55374 7.6289858 0)
(155.2743 7.1167435 0)
(154.18321 6.5034092 0)
(153.26889 5.8405797 0)
(152.51197 5.163975 0)
(151.89108 4.4962164 0)
(151.38601 3.8500818 0)
(150.97926 3.2313971 0)
(150.65637 2.6413016 0)
(150.40553 2.0779203 0)
(150.21767 1.5375577 0)
(150.08855 1.0153536 0)
(150.01929 0.50521341 0)
(152.17466 -2.7815887 0)
(152.44372 -2.8153277 0)
(152.64675 -2.8812261 0)
(152.86888 -2.9828159 0)
(153.10516 -3.1200346 0)
(153.36236 -3.2932088 0)
(153.64674 -3.5023204 0)
(153.96578 -3.7467028 0)
(154.32815 -4.0245179 0)
(154.74375 -4.3320247 0)
(155.22343 -4.6626447 0)
(155.77837 -5.0059987 0)
(156.41922 -5.3469711 0)
(157.15439 -5.6644731 0)
(157.98596 -5.9304055 0)
(158.90397 -6.1117713 0)
(159.88344 -6.1784377 0)
(160.88888 -6.1128372 0)
(161.88436 -5.913951 0)
(162.84261 -5.5927963 0)
(163.74793 -5.163486 0)
(164.59333 -4.6359247 0)
(165.37601 -4.012914 0)
(166.09332 -3.2894692 0)
(166.73807 -2.4522423 0)
(167.29224 -1.4808999 0)
(167.72185 -0.35406297 0)
(167.97575 0.94198135 0)
(167.98399 2.4052828 0)
(167.64862 4.0054583 0)
(166.867 5.6507761 0)
(165.592 7.1649919 0)
(163.89973 8.3359309 0)
(161.97666 9.0292344 0)
(160.02752 9.2430065 0)
(158.20443 9.0573618 0)
(156.59184 8.5851872 0)
(155.21816 7.9329403 0)
(154.07683 7.1853555 0)
(153.14355 6.402315 0)
(152.38796 5.6222379 0)
(151.78027 4.8672721 0)
(151.29428 4.1482212 0)
(150.90845 3.4684356 0)
(150.60573 2.8266002 0)
(150.37276 2.2186359 0)
(150.19952 1.6389692 0)
(150.08103 1.0811617 0)
(150.01763 0.53768747 0)
(152.54178 -2.8798035 0)
(152.7815 -2.9149404 0)
(152.96176 -2.9850737 0)
(153.15971 -3.0941243 0)
(153.3716 -3.242288 0)
(153.60416 -3.4304013 0)
(153.86398 -3.659134 0)
(154.15911 -3.928668 0)
(154.49926 -4.2381292 0)
(154.896 -4.5847361 0)
(155.36254 -4.9626004 0)
(155.91315 -5.361423 0)
(156.56248 -5.7652579 0)
(157.32392 -6.1505957 0)
(158.20449 -6.4836747 0)
(159.19542 -6.7216531 0)
(160.26586 -6.8236468 0)
(161.3687 -6.7667866 0)
(162.45662 -6.5532366 0)
(163.49646 -6.2028057 0)
(164.47319 -5.7384163 0)
(165.38455 -5.1748588 0)
(166.23364 -4.5158104 0)
(167.02423 -3.7542718 0)
(167.75555 -2.871336 0)
(168.4135 -1.8362751 0)
(168.96247 -0.61392326 0)
(169.34329 0.82335735 0)
(169.472 2.4868581 0)
(169.21629 4.3601532 0)
(168.41528 6.3472027 0)
(166.96902 8.2137631 0)
(164.96627 9.6418754 0)
(162.6795 10.429064 0)
(160.40122 10.595946 0)
(158.32696 10.273421 0)
(156.54861 9.626536 0)
(155.08116 8.7966256 0)
(153.89884 7.8873992 0)
(152.95927 6.9661156 0)
(152.21794 6.0718563 0)
(151.63504 5.2241938 0)
(151.17781 4.4302243 0)
(150.82062 3.6895487 0)
(150.54402 2.9975262 0)
(150.33333 2.3473114 0)
(150.17788 1.7311079 0)
(150.07212 1.1406982 0)
(150.01568 0.56700787 0)
(152.93699 -3.0310639 0)
(153.14049 -3.0701499 0)
(153.29541 -3.1468608 0)
(153.46664 -3.2656851 0)
(153.65135 -3.4272504 0)
(153.85598 -3.6331075 0)
(154.08727 -3.8848686 0)
(154.3537 -4.183877 0)
(154.66593 -4.5306114 0)
(155.03721 -4.9237316 0)
(155.4834 -5.3585662 0)
(156.02239 -5.8253324 0)
(156.67363 -6.3075811 0)
(157.4574 -6.7795924 0)
(158.38868 -7.2009811 0)
(159.46226 -7.5149745 0)
(160.63985 -7.6635586 0)
(161.85728 -7.6146624 0)
(163.05022 -7.3750419 0)
(164.17755 -6.9781598 0)
(165.22681 -6.4605431 0)
(166.20376 -5.8441837 0)
(167.12002 -5.1345162 0)
(167.98793 -4.3239737 0)
(168.81606 -3.3897504 0)
(169.59719 -2.2900791 0)
(170.29528 -0.97231048 0)
(170.84295 0.61050986 0)
(171.14351 2.4900806 0)
(171.02501 4.6786387 0)
(170.24136 7.0944227 0)
(168.5961 9.4336086 0)
(166.18203 11.207697 0)
(163.41156 12.09352 0)
(160.7165 12.16613 0)
(158.34554 11.639646 0)
(156.38986 10.756602 0)
(154.83682 9.7022153 0)
(153.63054 8.5999735 0)
(152.7037 7.5216335 0)
(151.99418 6.5033434 0)
(151.4508 5.5590038 0)
(151.034 4.6897281 0)
(150.71437 3.889844 0)
(150.4705 3.1504317 0)
(150.2869 2.4613163 0)
(150.1526 1.8121682 0)
(150.06175 1.1928356 0)
(150.01342 0.59262945 0)
(153.33169 -3.0768173 0)
(153.50078 -3.1160424 0)
(153.62882 -3.1954244 0)
(153.77115 -3.3198141 0)
(153.926 -3.4901467 0)
(154.09947 -3.7086326 0)
(154.29829 -3.9778253 0)
(154.53128 -4.3003122 0)
(154.80995 -4.678153 0)
(155.1493 -5.1119189 0)
(155.56817 -5.5988992 0)
(156.0887 -6.1306994 0)
(156.73613 -6.6913579 0)
(157.53982 -7.2544042 0)
(158.52746 -7.7735943 0)
(159.70195 -8.1744106 0)
(161.0159 -8.3732953 0)
(162.37902 -8.3244915 0)
(163.70036 -8.0441548 0)
(164.92693 -7.5894202 0)
(166.05131 -7.0193917 0)
(167.09188 -6.3662512 0)
(168.07141 -5.6359788 0)
(169.01247 -4.8188933 0)
(169.93707 -3.8864128 0)
(170.85099 -2.7790478 0)
(171.72207 -1.4149052 0)
(172.4772 0.28402252 0)
(173.01214 2.3776531 0)
(173.11575 4.9213702 0)
(172.42031 7.8764318 0)
(170.55375 10.866632 0)
(167.58159 13.127292 0)
(164.15062 14.105418 0)
(160.92371 14.004723 0)
(158.20685 13.174881 0)
(156.07174 11.973507 0)
(154.4537 10.637666 0)
(153.25146 9.3079466 0)
(152.36449 8.0544007 0)
(151.70971 6.9044392 0)
(151.22387 5.8619837 0)
(150.86106 4.9193394 0)
(150.58892 4.0638544 0)
(150.38491 3.2813684 0)
(150.23339 2.5578761 0)
(150.12367 1.8802827 0)
(150.04994 1.2364226 0)
(150.01084 0.61399918 0)
(153.75569 -3.210522 0)
(153.88268 -3.2554253 0)
(153.98163 -3.3424547 0)
(154.09299 -3.4770435 0)
(154.2157 -3.6606985 0)
(154.35516 -3.8966835 0)
(154.51781 -4.1890275 0)
(154.71249 -4.5422732 0)
(154.95118 -4.9609966 0)
(155.2503 -5.4489297 0)
(155.63165 -6.0069171 0)
(156.12193 -6.629571 0)
(156.75262 -7.3027581 0)
(157.56418 -8.0010847 0)
(158.60366 -8.673972 0)
(159.89074 -9.2230153 0)
(161.368 -9.521686 0)
(162.90495 -9.4972032 0)
(164.36898 -9.1778291 0)
(165.69041 -8.6551968 0)
(166.87323 -8.0208343 0)
(167.95839 -7.3169003 0)
(168.98529 -6.5442441 0)
(169.98919 -5.6890002 0)
(171.01177 -4.7215354 0)
(172.08125 -3.5675703 0)
(173.17389 -2.1154446 0)
(174.20834 -0.25761788 0)
(175.06621 2.0891924 0)
(175.52436 5.0320926 0)
(175.04923 8.6560114 0)
(172.96252 12.558854 0)
(169.21551 15.5414 0)
(164.85468 16.579557 0)
(160.94683 16.174544 0)
(157.83669 14.893699 0)
(155.53883 13.265539 0)
(153.89572 11.581254 0)
(152.74048 9.9887702 0)
(151.93042 8.5449897 0)
(151.35922 7.2598638 0)
(150.95215 6.1217169 0)
(150.65849 5.1107879 0)
(150.44443 4.2057094 0)
(150.28758 3.386239 0)
(150.17313 2.6341902 0)
(150.0913 1.9336068 0)
(150.03677 1.2703394 0)
(150.00798 0.63058291 0)
(154.13603 -3.1946794 0)
(154.22231 -3.2378802 0)
(154.29033 -3.3244938 0)
(154.36798 -3.4608635 0)
(154.45497 -3.6490459 0)
(154.55571 -3.893251 0)
(154.67605 -4.1987669 0)
(154.82445 -4.5717859 0)
(155.01294 -5.0190313 0)
(155.25899 -5.5471147 0)
(155.58751 -6.1605186 0)
(156.03057 -6.8572028 0)
(156.62673 -7.6250468 0)
(157.4296 -8.4414949 0)
(158.5156 -9.256658 0)
(159.93815 -9.9451339 0)
(161.63227 -10.313354 0)
(163.40427 -10.243878 0)
(165.05397 -9.7924558 0)
(166.48647 -9.1123513 0)
(167.72732 -8.3536485 0)
(168.85532 -7.5750378 0)
(169.93072 -6.7696709 0)
(170.99656 -5.9227077 0)
(172.11532 -5.0183388 0)
(173.3477 -3.9702201 0)
(174.68409 -2.6195447 0)
(176.03286 -0.79605137 0)
(177.28228 1.6461366 0)
(178.24498 4.9155027 0)
(178.21501 9.327416 0)
(175.983 14.535078 0)
(171.15292 18.674786 0)
(165.44356 19.685658 0)
(160.66921 18.753507 0)
(157.13224 16.799793 0)
(154.72272 14.60431 0)
(153.12358 12.497233 0)
(152.07795 10.610403 0)
(151.39325 8.9683376 0)
(150.94036 7.5513281 0)
(150.63596 6.3253574 0)
(150.42752 5.2552413 0)
(150.28222 4.3094129 0)
(150.1796 3.4610137 0)
(150.10684 2.6875894 0)
(150.05591 1.9704255 0)
(150.02242 1.2935625 0)
(150.00486 0.64189687 0)
(154.44917 -3.3022385 0)
(154.48551 -3.3566721 0)
(154.51866 -3.454554 0)
(154.55834 -3.6033081 0)
(154.60487 -3.8054385 0)
(154.66136 -4.0662376 0)
(154.73285 -4.3925655 0)
(154.82708 -4.7929238 0)
(154.95558 -5.2773979 0)
(155.13606 -5.8576202 0)
(155.39586 -6.5454554 0)
(155.77243 -7.347712 0)
(156.3106 -8.2600597 0)
(157.07565 -9.2697672 0)
(158.18316 -10.341528 0)
(159.74876 -11.327794 0)
(161.7094 -11.924421 0)
(163.76891 -11.919019 0)
(165.61625 -11.407361 0)
(167.11991 -10.628216 0)
(168.3471 -9.8215924 0)
(169.4433 -9.0578408 0)
(170.49719 -8.2998297 0)
(171.55037 -7.5092782 0)
(172.69261 -6.6866683 0)
(174.0481 -5.7210609 0)
(175.64976 -4.3714355 0)
(177.40807 -2.3761624 0)
(179.22605 0.47500026 0)
(181.00097 4.3266744 0)
(181.86788 9.7701139 0)
(179.76964 16.835903 0)
(173.45905 22.958851 0)
(165.74647 23.68395 0)
(159.90419 21.828253 0)
(155.95016 18.869608 0)
(153.54168 15.933063 0)
(152.09817 13.330049 0)
(151.24923 11.129254 0)
(150.75032 9.2935246 0)
(150.45538 7.7579973 0)
(150.27891 6.4592285 0)
(150.17159 5.3438305 0)
(150.10503 4.3692424 0)
(150.06289 3.5020127 0)
(150.03575 2.7157266 0)
(150.01815 1.9892765 0)
(150.00717 1.3052389 0)
(150.00155 0.64754231 0)
(154.38531 -3.2264124 0)
(154.36104 -3.2763478 0)
(154.35209 -3.3656567 0)
(154.34548 -3.5056644 0)
(154.34209 -3.700165 0)
(154.34314 -3.9560682 0)
(154.35202 -4.282221 0)
(154.37465 -4.6898348 0)
(154.4205 -5.1926667 0)
(154.50529 -5.8074393 0)
(154.65648 -6.5534334 0)
(154.91618 -7.4463647 0)
(155.33501 -8.4870476 0)
(155.98634 -9.6663821 0)
(157.0363 -10.969696 0)
(158.7181 -12.239146 0)
(161.00761 -12.990443 0)
(163.44219 -12.81935 0)
(165.52458 -11.932101 0)
(167.06703 -10.721725 0)
(168.2104 -9.6087535 0)
(169.22023 -8.6682238 0)
(170.23033 -7.796893 0)
(171.25942 -6.8995256 0)
(172.42045 -6.054045 0)
(173.93751 -5.1960522 0)
(175.90351 -4.0102306 0)
(178.21013 -2.196734 0)
(180.68137 0.51389178 0)
(183.37351 4.0150874 0)
(185.59558 9.8510444 0)
(184.21842 19.141193 0)
(175.99469 28.862683 0)
(165.32564 28.721179 0)
(158.34142 25.418851 0)
(154.09604 21.018278 0)
(151.90623 17.149383 0)
(150.78834 13.997867 0)
(150.25051 11.488966 0)
(150.00811 9.4845537 0)
(149.913 7.8576917 0)
(149.88886 6.5098698 0)
(149.8968 5.3684177 0)
(149.91719 4.3802704 0)
(149.94031 3.5062462 0)
(149.96157 2.7167921 0)
(149.97892 1.9890829 0)
(149.99135 1.3047621 0)
(149.99812 0.64724095 0)
(153.47561 -3.2561411 0)
(153.37705 -3.3298638 0)
(153.30978 -3.4386775 0)
(153.23682 -3.5987928 0)
(153.16066 -3.8142981 0)
(153.08018 -4.093002 0)
(152.99649 -4.4446984 0)
(152.91279 -4.8820141 0)
(152.83543 -5.420881 0)
(152.77658 -6.0815745 0)
(152.76201 -6.8904628 0)
(152.83887 -7.8764359 0)
(153.06517 -9.0553817 0)
(153.51259 -10.434098 0)
(154.39402 -12.057063 0)
(156.14055 -13.846324 0)
(158.8497 -15.094562 0)
(161.75874 -14.978288 0)
(164.04123 -13.952287 0)
(165.43468 -12.558992 0)
(166.22819 -11.491841 0)
(166.92114 -10.755766 0)
(167.71743 -10.149322 0)
(168.53755 -9.4729441 0)
(169.45584 -9.018141 0)
(170.86712 -8.8483557 0)
(172.96928 -8.2920838 0)
(175.65779 -7.0428953 0)
(178.57216 -4.4765439 0)
(182.42926 -0.72728638 0)
(187.15839 7.2307653 0)
(188.24556 20.228467 0)
(177.92812 36.681028 0)
(163.24699 34.969195 0)
(155.5947 29.536037 0)
(151.35119 23.102781 0)
(149.73668 18.092287 0)
(149.1848 14.388258 0)
(149.09723 11.621623 0)
(149.18648 9.5029438 0)
(149.33031 7.829158 0)
(149.47858 6.4656283 0)
(149.61204 5.3226113 0)
(149.72459 4.3389849 0)
(149.81557 3.4717861 0)
(149.88647 2.6897352 0)
(149.93934 1.9692821 0)
(149.97543 1.2918438 0)
(149.99467 0.64086758 0)
(150.27861 -3.1552674 0)
(150.03197 -3.2213434 0)
(149.86063 -3.3060059 0)
(149.67254 -3.4358294 0)
(149.47246 -3.6160309 0)
(149.25557 -3.8554383 0)
(149.01942 -4.1649127 0)
(148.76261 -4.5592251 0)
(148.48548 -5.0584066 0)
(148.19176 -5.6900257 0)
(147.89692 -6.494419 0)
(147.64242 -7.5277653 0)
(147.48317 -8.8431681 0)
(147.45914 -10.471255 0)
(147.78384 -12.507502 0)
(149.20302 -15.03536 0)
(152.18258 -17.05363 0)
(155.43125 -16.589296 0)
(157.5861 -14.746133 0)
(158.33639 -12.183462 0)
(158.2348 -10.348646 0)
(158.16906 -9.1901415 0)
(158.40396 -8.4350479 0)
(158.60251 -7.5247592 0)
(158.71873 -7.0237666 0)
(159.66765 -7.0176185 0)
(161.78113 -5.9947877 0)
(164.94962 -4.8735833 0)
(168.68335 -1.9567627 0)
(175.06207 4.1667687 0)
(184.04686 12.17543 0)
(189.65396 24.095431 0)
(176.92314 49.629302 0)
(157.54553 45.387773 0)
(150.91436 34.317507 0)
(147.40324 24.793054 0)
(146.95732 18.491097 0)
(147.31608 14.34994 0)
(147.83444 11.452161 0)
(148.32309 9.312941 0)
(148.73401 7.6556656 0)
(149.06588 6.3187888 0)
(149.32881 5.2029573 0)
(149.53445 4.2439435 0)
(149.69303 3.3981254 0)
(149.81295 2.6344618 0)
(149.90068 1.9299354 0)
(149.95989 1.266572 0)
(149.99131 0.62847585 0)
(143.5099 -2.9198262 0)
(143.10987 -3.0121916 0)
(142.7997 -3.1137178 0)
(142.45147 -3.2633165 0)
(142.07688 -3.4659031 0)
(141.66672 -3.7316159 0)
(141.21292 -4.0727752 0)
(140.70609 -4.5065461 0)
(140.13586 -5.0566962 0)
(139.49026 -5.75593 0)
(138.76264 -6.6519244 0)
(137.97551 -7.8156703 0)
(137.18232 -9.3207418 0)
(136.39285 -11.178063 0)
(135.76004 -13.444295 0)
(136.50386 -16.540637 0)
(140.14376 -19.656617 0)
(144.2578 -18.174221 0)
(146.43865 -15.446627 0)
(146.26447 -11.967184 0)
(144.63857 -10.768965 0)
(143.25526 -10.900758 0)
(142.63852 -11.37038 0)
(142.04304 -10.884925 0)
(141.16563 -10.369117 0)
(141.99173 -10.532128 9.2157707e-18)
(143.27225 -11.921803 -2.0396602e-19)
(145.57726 -13.589595 0)
(146.66477 -7.4755457 1.0016067e-17)
(144.0282 -14.51005 -7.4990624e-18)
(161.53017 -10.135073 4.4273293e-18)
(180.41243 5.4383807 -9.8916344e-18)
(167.93165 72.289494 6.3471839e-18)
(142.12824 58.02922 0)
(140.66652 37.126151 0)
(141.63428 24.706923 0)
(143.57067 17.830773 0)
(145.29833 13.69264 0)
(146.55469 10.912848 0)
(147.47727 8.8913057 0)
(148.16032 7.3301402 0)
(148.67269 6.0680693 0)
(149.06042 5.0101299 0)
(149.35481 4.0963441 0)
(149.57745 3.2864567 0)
(149.74366 2.5519729 0)
(149.86425 1.8717967 0)
(149.94526 1.2294451 0)
(149.98814 0.61031298 0)
(129.54799 -2.8693139 0)
(128.76409 -2.9446573 0)
(128.16037 -3.0084927 0)
(127.4861 -3.1100025 0)
(126.76119 -3.2511101 0)