/*--------------------------------*- C++ -*----------------------------------*\
| =========                 |                                                 |
| \\      /  F ield         | foam-extend: Open Source CFD                    |
|  \\    /   O peration     | Version:     4.1                                |
|   \\  /    A nd           | Web:         http://www.foam-extend.org         |
|    \\/     M anipulation  |                                                 |
\*---------------------------------------------------------------------------*/
FoamFile
{
    version     2.0;
    format      ascii;
    class       volScalarField;
    location    "0.7";
    object      p;
}
// * * * * * * * * * * * * * * * * * * * * * * * * * * * * * * * * * * * * * //

dimensions      [0 2 -2 0 0 0 0];

internalField   nonuniform List<scalar> 
4242
(
-13465.849
-13071.681
-12678.22
-12188.934
-11641.734
-11018.021
-10316.411
-9538.3671
-8690.3864
-7785.776
-6844.856
-5893.6743
-4963.1855
-4092.1178
-3313.6352
-2561.6743
-15923.414
-15421.578
-14996.11
-14477.772
-13904.463
-13258.678
-12543.136
-11759.109
-10910.673
-10005.443
-9055.0002
-8074.8998
-7084.9753
-6113.1362
-5194.5341
-4325.9021
-19776.321
-19157.353
-18686.517
-18094.906
-17439.288
-16699.479
-15878.886
-14977.836
-14000.829
-12956.113
-11855.837
-10715.747
-9554.4357
-8393.7776
-7261.5443
-6200.6972
-24376.486
-23642.537
-23115.399
-22416.318
-21643.164
-20765.957
-19788.38
-18709.254
-17533.488
-16270.721
-14935.966
-13549.478
-12135.76
-10721.504
-9333.9266
-8026.6449
-27849.815
-27025.033
-26465.118
-25684.703
-24832.728
-23859.806
-22771.92
-21566.012
-20246.931
-18824.607
-17315.342
-15741.748
-14131.942
-12517.437
-10927.859
-9390.5987
-29648.391
-28760.624
-28192.978
-27370.64
-26485.648
-25469.677
-24332.801
-23070.516
-21687.458
-20193.213
-18604.139
-16943.235
-15239.404
-13526.03
-11837.108
-10221.174
-29782.917
-28873.012
-28321.247
-27500.489
-26622.685
-25613.546
-24484.523
-23231.176
-21857.803
-20373.668
-18794.721
-17143.455
-15448.122
-13741.547
-12055.467
-10442.361
-28314.338
-27429.301
-26909.86
-26132.388
-25295.849
-24337.957
-23266.788
-22079.619
-20780.704
-19379.323
-17890.886
-16336.734
-14743.192
-13140.569
-11555.623
-10039.207
-25373.496
-24562.921
-24090.694
-23396.806
-22637.278
-21775.216
-20812.701
-19748.896
-18588.242
-17339.88
-16018.207
-14642.652
-13236.783
-11828.018
-10440.656
-9119.8807
-21179.36
-20491.765
-20078.38
-19504.619
-18859.957
-18136.407
-17332.044
-16446.621
-15484.512
-14453.992
-13367.262
-12240.168
-11091.263
-9941.7914
-8810.8507
-7735.0819
-15928.186
-15418.447
-15087.714
-14666.917
-14181.34
-13642.509
-13048.908
-12399.119
-11696.241
-10946.486
-10158.242
-9341.3393
-8505.5966
-7659.6644
-6805.5448
-5940.9483
-11244.249
-10931.732
-10690.248
-10428.23
-10100.326
-9717.6769
-9292.3204
-8829.0558
-8332.7989
-7810.6329
-7270.3917
-6718.8045
-6159.68
-5593.2779
-5015.1247
-4371.5484
-3658.8489
-3390.5226
-3165.987
-2898.0922
-2599.1505
-2269.6098
-1912.865
-1534.6947
-1143.322
-749.33024
-365.22274
-4.8995226
315.2941
576.58227
781.58611
993.04398
1363.8827
1538.4779
1696.2116
1873.5878
2065.7631
2270.1081
2482.0693
2694.9489
2899.7265
3085.1847
3238.5582
3346.4759
3394.9673
3369.0077
3262.4331
3113.8518
6070.09
6161.8449
6246.9627
6336.6342
6427.2649
6514.1647
6590.8654
6648.9199
6677.9625
6666.1809
6601.3256
6471.765
6266.2773
5974.3725
5600.8781
5204.7056
9804.7136
9836.9567
9862.8447
9881.6607
9889.2016
9879.4454
9844.5839
9774.9802
9659.3931
9485.6641
9241.8724
8917.1766
8501.1971
7985.6437
7383.3717
6766.5027
12187.399
12187.652
12178.506
12155.107
12112.004
12042.135
11936.745
11785.466
11576.717
11298.564
10939.908
10491.004
9942.8044
9292.0298
8572.2739
7896.8836
-19816.296
-19196.856
-18725.506
-18133.287
-17476.774
-16735.779
-15913.604
-15010.538
-14031.1
-12983.664
-11880.635
-10738.102
-9574.9978
-8414.127
-7286.4989
-6234.1644
12724.314
12712.869
12689.791
12651.168
12591.724
12504.83
12382.461
12215.27
11992.87
11704.444
11339.717
10890.12
10349.903
9718.2307
9005.6792
8248.4584
12748.649
12736.885
12713.111
12673.375
12612.334
12523.302
12398.247
12227.892
12002.041
11710.201
11342.522
10890.866
10349.976
9720.3331
9016.2755
8278.9954
12200.553
12200.423
12190.658
12166.369
12122.042
12050.563
11943.148
11789.451
11577.993
11297.065
10935.909
10485.148
9936.2159
9287.3659
8575.6242
7913.4703
9779.6559
9812.1639
9838.3661
9857.4453
9865.1362
9855.3574
9820.2461
9750.1254
9633.7536
9459.0725
9214.3904
8888.7613
8469.8979
7946.139
7338.6008
6764.9512
6030.7564
6123.3976
6209.5172
6300.3518
6392.3089
6480.6897
6559.0162
6618.8295
6649.7572
6640.0565
6577.7123
6450.862
6244.974
5942.9518
5563.6898
5253.465
1346.1399
1521.7115
1680.3881
1858.9861
2052.6826
2258.8911
2473.1131
2688.7125
2896.7335
3086.0559
3244.1114
3357.5805
3411.4724
3389.4813
3289.7139
3144.8227
-3650.6393
-3381.7592
-3157.0013
-2888.6909
-2589.2487
-2259.1202
-1901.7013
-1522.7774
-1130.6057
-735.84
-351.08399
9.5289977
328.73108
585.53484
780.62989
985.25545
-11261.594
-10949.038
-10707.186
-10444.817
-10116.392
-9732.9328
-9306.4073
-8841.53
-8343.1297
-7818.2257
-7274.606
-6718.901
-6154.4787
-5580.3322
-4985.4639
-4331.9822
-15951.513
-15441.392
-15110.13
-14688.867
-14202.62
-13662.888
-13068.116
-12416.855
-11712.221
-10960.541
-10170.454
-9352.219
-8516.2785
-7672.6296
-6824.8919
-5989.9623
-21211.536
-20523.309
-20109.321
-19534.924
-18889.374
-18164.678
-17358.862
-16471.672
-15507.545
-14474.935
-13386.366
-12258.122
-11109.167
-9961.2206
-8831.6811
-7762.2316
-25412.03
-24600.727
-24127.874
-23433.209
-22672.633
-21809.224
-20844.996
-19779.113
-18616.097
-17365.311
-16041.527
-14664.663
-13258.769
-11851.772
-10466.491
-9155.4126
-28356.258
-27470.491
-26950.426
-26172.107
-25334.434
-24375.061
-23301.979
-22112.463
-20810.849
-19406.645
-17915.642
-16359.649
-14765.398
-13163.209
-11577.582
-10065.433
-29826.388
-28915.792
-28363.434
-27541.833
-26662.881
-25652.219
-24521.198
-23265.372
-21889.118
-20401.929
-18820.144
-17166.735
-15470.346
-13763.507
-12076.262
-10467.659
-29692.542
-28804.146
-28235.957
-27412.83
-26526.737
-25509.283
-24370.435
-23105.682
-21719.732
-20222.399
-18630.426
-16967.304
-15262.276
-13548.262
-11858.658
-10246.949
-27893.88
-27068.535
-26508.115
-25726.98
-24873.968
-23899.638
-22809.863
-21601.571
-20279.683
-18854.348
-17342.264
-15766.554
-14155.642
-12540.733
-10952.2
-9419.6447
-24419.507
-23685.048
-23157.423
-22457.689
-21683.564
-20805.039
-19825.685
-18744.3
-17565.85
-16300.173
-14962.664
-13574.077
-12159.248
-10745.062
-9360.669
-8059.798
-15956.578
-15454.415
-15028.534
-14509.797
-13935.866
-13289.26
-12572.61
-11787.122
-10936.832
-10029.354
-9076.3486
-8093.5704
-7101.3487
-6128.9831
-5213.3169
-4341.3885
-13488.618
-13094.509
-12701.035
-12211.91
-11664.713
-11040.827
-10338.734
-9559.7544
-8710.2644
-7803.5427
-6860.0842
-5906.512
-4974.9528
-4105.8228
-3333.5329
-2591.0084
-1377.5116
-1310.1733
-1224.3982
-1155.0235
-1139.3387
-1188.4419
-1297.0477
-1456.3643
-1654.3602
-1873.1237
-2089.4832
-2277.3785
-2410.8463
-2468.5301
-2445.7591
-2331.392
-1813.3687
-1778.1346
-1764.2355
-1754.0568
-1726.6166
-1698.2702
-1699.8005
-1742.4564
-1809.7062
-1881.4782
-1944.8164
-1984.3476
-1981.4525
-1921.8649
-1807.8789
-1648.2853
-1947.4584
-1915.5265
-1892.4307
-1871.1224
-1859.8308
-1860.549
-1844.7645
-1786.5381
-1704.8919
-1645.6307
-1617.6266
-1568.1816
-1454.1446
-1265.1553
-1018.518
-730.6187
-2052.4976
-2027.7583
-2008.3932
-1992.5875
-1980.7334
-1974.8421
-1983.3343
-2024.2262
-2106.0184
-2181.8694
-2157.5435
-1972.7807
-1540.6428
-1016.8122
-496.61084
-6.2353807
-1476.8473
-1475.3327
-1481.9315
-1498.5541
-1526.565
-1567.5351
-1622.7647
-1693.107
-1780.583
-1892.8443
-1966.5685
-1834.835
-1333.8536
-665.89413
27.680001
704.71191
-343.42742
-356.9716
-380.55703
-415.27208
-462.51695
-523.22437
-597.40114
-685.61399
-793.31758
-924.37449
-1029.4211
-928.53385
-577.83797
-22.907249
611.63429
1236.0598
-335.92274
-349.67092
-373.689
-409.123
-457.44206
-519.62872
-595.72022
-686.20034
-795.60212
-924.27009
-1017.4138
-901.61337
-538.8431
5.6653801
595.97516
1203.4573
-1490.5266
-1489.1929
-1496.0852
-1513.0889
-1541.5456
-1582.9888
-1638.7977
-1710.1738
-1798.014
-1901.8009
-1947.7311
-1786.2658
-1279.6501
-608.55447
88.341791
764.3845
-2077.4924
-2052.6208
-2033.1703
-2017.3303
-2005.5503
-1999.9154
-2008.9332
-2050.7838
-2132.8562
-2202.3289
-2161.7789
-1955.441
-1512.9816
-976.81203
-437.57052
87.846197
-1974.1122
-1941.9102
-1918.6853
-1897.3662
-1886.1769
-1887.1883
-1871.9469
-1814.3048
-1733.0088
-1672.3244
-1637.2378
-1576.1197
-1448.5215
-1245.6631
-986.7155
-686.63587
-1831.38
-1795.9563
-1781.9706
-1771.8194
-1744.3056
-1715.6424
-1716.6444
-1758.5182
-1824.348
-1893.802
-1953.6089
-1988.3337
-1979.8543
-1914.8436
-1798.4334
-1619.1611
-1388.346
-1321.1041
-1235.3869
-1166.0261
-1150.2795
-1199.19
-1307.4283
-1466.1692
-1663.3405
-1880.965
-2095.7727
-2281.6217
-2412.6123
-2468.2167
-2448.0069
-2325.3055
-6381.432
-7924.3796
-7479.2732
-7074.9308
-6600.0531
-6069.8392
-5492.6005
-4874.8336
-4229.0189
-3572.2081
-2923.8603
-2307.4366
-1755.3269
-1278.8166
-774.30995
-6404.3992
-7940.4528
-7496.671
-7092.1498
-6616.9645
-6086.2818
-5508.3128
-4889.4537
-4242.1875
-3583.6742
-2933.7214
-2316.1153
-1762.4878
-1280.0732
-783.63687
-3689.6784
-5169.3138
-5163.5392
-4991.0617
-4899.5185
-4832.8484
-4756.1769
-4663.2341
-4552.5283
-4420.7723
-4262.3644
-4069.1525
-3833.6501
-3556.0962
-3086.2348
-3675.4454
-5156.7107
-5150.1001
-4977.7216
-4886.5905
-4820.5373
-4744.8027
-4653.2064
-4544.334
-4415.0069
-4259.7699
-4070.7353
-3839.4569
-3570.4452
-3191.8581
-4470.3011
-4503.6631
-3945.3052
-3925.4457
-342.19215
-841.89118
2371.4308
-803.70017
-1448.4094
71.214406
206.90573
446.20513
442.72216
-468.41403
-606.96223
-22.052567
1437.2553
-1416.357
290.43964
-1879.8427
-528.23409
-2456.9633
-1638.6343
-1828.8298
-1749.7975
1497.4184
493.41319
592.61689
940.52147
23.008974
-513.52986
-1864.6597
-972.23232
-3261.2753
43.719229
-299.51206
-909.90465
-1372.572
1227.5256
-755.65129
25.112666
1140.2994
-830.96988
-588.13367
746.62163
-14.376885
431.29791
-3171.1735
427.6271
2982.6829
-350.44176
839.26169
354.74453
348.57454
-4071.8753
5206.2902
1515.6042
-672.22484
-3819.2651
-1196.0035
-726.55229
209.39912
583.06523
-508.14404
-446.36179
348.16056
328.28789
-505.27586
-4411.2691
-431.30847
34.068055
-333.9556
-836.7293
-368.88304
165.59018
-1555.3912
240.62908
-45.147146
-47.702013
505.67389
-770.88345
144.92356
-98.724329
-56.362616
-303.37615
-3218.0811
-3463.447
-444.61789
-655.3238
-1030.4521
555.79045
-6.0721442
-3650.2729
-44.453322
-619.89619
8.2660757
3331.935
-1091.3546
988.18842
1236.7795
-6.2674152
2668.8283
-3935.5372
1347.3499
-38.520599
-678.78622
4.8497112
19.208206
-655.42321
-1535.0366
-837.72668
-35.563974
-824.53364
-3358.2085
-4519.7299
1743.5518
-891.328
641.14172
-2026.0534
-87.11886
2015.1485
75.247511
-47.134994
1826.7297
1711.0798
-860.22362
1161.7196
-876.88564
-2566.7206
1080.7587
-325.3907
-3306.1555
-888.61002
1523.1169
-1016.1097
564.68903
-39.465869
-47.498421
-13.167087
-1097.0683
2761.3193
-4.2611794
-4055.138
-595.72902
961.34208
-704.73503
-1541.9632
-497.14876
-8.2972466
-4.2248241
-561.91822
-828.20783
-249.37332
291.65289
277.68724
-483.29444
136.77355
1990.6939
-82.582876
845.53728
-3541.7653
-340.76333
-108.40729
-0.19745639
-8376.3787
-8356.6106
1075.9123
1571.9927
-261.39515
-53.28971
-255.92819
276.6329
-1866.064
-27.804234
-1741.8574
3136.2253
125.34399
-36.836008
-433.89966
1059.3821
-151.65287
-38.236411
-536.39394
-347.41035
353.98739
-1708.6911
-1349.9799
232.43927
206.16193
475.04255
1012.9882
-31.670144
230.98413
-781.16383
-57.638819
-26.892231
-2090.9932
1427.3238
-417.10226
627.97317
-23.712498
112.60064
207.01381
3504.4843
343.76413
168.61714
-2453.8475
-157.57593
1593.4222
607.9208
1325.1355
-103.43289
1975.5011
-9.2144868
-489.30852
-348.53949
-190.15753
156.10428
-52.372073
55.273344
-48.464266
862.55384
1170.749
491.89828
-740.00405
-922.41752
-87.494352
-26.997254
-615.8677
1658.3872
1645.9209
-19.887031
-1102.1948
556.34421
1685.3738
2360.2088
-64.80803
-1261.3312
-2302.8193
262.89539
-175.16237
940.11779
-715.47594
-52.757017
57.536165
32.131419
247.6585
-1305.1789
2252.0403
-371.37052
-1286.7181
606.57839
46.398396
-1354.0987
382.25302
3258.1094
-1.214442
11.678605
-1387.1427
5.4239089
1379.456
182.70736
-42.855938
-640.42568
-786.71568
-19.153145
-65.622144
-89.639621
-435.40928
-251.67425
43.334406
-933.25947
-39.7733
-565.95292
37.573692
-472.66439
-181.80969
1420.4613
-1984.692
-134.11583
2054.5734
1639.978
-276.29185
32.479719
-203.36308
-116.00433
119.68897
-3006.3867
891.36705
-1756.4856
-15.669559
-290.44089
189.07077
-234.16369
343.90847
918.50246
-2920.6689
19.598636
2082.0632
-879.27668
150.37491
974.56633
238.83912
-888.36221
67.502619
-2238.9262
-1564.1824
2412.2666
3243.9635
-955.4268
200.95613
-127.32536
-577.64029
1101.708
-2329.1919
-820.4167
-22.434202
-894.0221
-240.73894
-62.679972
103.86501
57.899255
3932.0996
-895.43792
-2509.6673
1285.4006
40.00675
-37.287121
79.055998
-392.30439
-2618.8906
43.011938
-15.109736
-9.8047347
5165.2775
-239.13023
-296.92431
788.01797
-1005.129
-2347.0069
-528.39561
-13.45225
-73.367174
18.941938
-3172.0077
-995.78157
-21.124287
1828.4478
-2.6246967
11.790435
-3058.2375
53.403815
-1557.9057
27.10173
-13.738739
-4395.0412
526.25739
263.44249
-546.25246
-3117.862
-902.10785
-86.969666
-2256.9284
530.98856
201.36348
706.75509
-16.277881
-4008.5382
2602.3357
1208.8099
148.14388
-3073.5366
4.2062699
1468.5957
-3031.7034
-3630.0418
3441.2501
-77.045394
223.67782
268.4502
561.45335
-1256.8088
-3538.7065
138.60511
-1130.2017
1528.6673
1207.8472
-398.7192
-1232.4276
-277.59859
-624.36745
-4.2923951
189.48586
-4780.1802
-34.472808
267.34255
-4679.0386
-46.319976
128.0085
-648.29823
-187.79574
530.91339
4747.7155
-926.29952
36.846184
-1386.6257
42.373983
-2419.8553
775.00535
-1132.6574
-501.22858
-194.38986
643.18357
-62.222542
-277.16782
639.13321
-42.951439
-326.61472
-211.61738
261.0655
289.09558
-10.600684
-708.63945
-26.275439
-976.50253
-135.70429
-503.51761
524.00423
1598.8138
2445.7387
-2529.3739
-22.962331
1312.9144
23.516711
324.01886
288.08083
-822.33736
-874.42413
1397.2611
168.44674
4.9895333
-2352.3995
-2284.109
-432.0171
-3488.2852
-1904.8088
-621.00255
-15.290578
-2577.2278
-972.71912
-50.216751
-47.058953
-534.61638
788.71818
-53.909492
-1763.0821
-2504.2696
-9.4461801
-1300.6224
63.385624
-853.61213
-200.83475
3.2292279
324.75119
351.28921
1799.8748
157.76458
-667.64209
221.256
659.91237
546.73676
1049.8886
1362.625
-872.12215
669.04182
-83.294282
2214.9482
-288.65339
-226.63235
-827.57979
-66.058265
-52.460803
5347.1339
-133.94982
-838.2569
-2187.2297
-1146.8236
-18.558966
-1688.4893
-3515.1908
-25.665819
903.02839
502.46376
-4130.4375
870.37879
18.390917
-1331.4084
-757.38689
-3420.0843
-745.88783
-147.96744
166.95225
4.3862894
-408.89139
286.41731
-204.75804
2331.8101
267.28258
243.23776
-1191.502
-8038.925
-656.41969
-5.0531979
1061.6512
-1.9400694
-109.49084
-936.16621
-538.10567
-2185.2916
-8018.8521
-164.7493
570.46515
-38.475919
684.43452
-72.660183
-620.67636
308.95966
-171.76104
-4034.9514
-450.73296
-2379.2496
207.70742
-3245.0802
1608.4061
301.27355
-3539.6746
1536.8504
111.28969
-4554.6732
1472.336
383.48398
386.42597
624.92518
559.17635
-7409.1163
-1225.8182
-2670.9074
-54.592228
-2587.0085
1483.0364
709.16376
701.79628
200.07692
-1046.7269
-613.29712
-1.609166
-23.614027
1403.0181
-2158.6822
-765.34287
11.083109
-7416.4168
2373.6113
-2658.9801
-1130.3833
-173.83193
-3252.3751
-2074.6467
-83.155823
-4791.2844
-984.73546
-392.07435
578.72299
612.17652
-606.88227
-2244.508
-3079.4369
1499.5323
2291.3344
2153.7869
416.63806
-124.85566
681.18084
1325.8692
2419.2944
1012.152
3257.0204
-19.699011
533.33554
1027.9997
49.556887
-578.23218
-8.8089514
861.29037
1623.8774
466.59697
-4754.8274
557.17896
-261.03886
5338.2583
793.44536
-17.381402
5108.5141
1528.5664
-762.14568
-789.38481
1250.4285
5079.5209
-1955.4058
-303.09953
1219.8854
-176.40138
2978.3909
1234.0566
1336.5358
-881.87485
5.3240378
1519.6952
1362.8821
5324.8804
384.32473
-41.195254
570.22555
-1268.9704
-1129.4499
-883.55646
-4126.1399
5298.3128
-616.13059
-27.635606
-582.90131
2472.4503
2015.7019
-2209.2404
-2151.9846
30.543934
1231.2511
-2475.4104
-4023.6923
-1183.1508
-1878.8533
299.3439
289.71689
-268.02941
-518.64165
-218.41908
289.94334
-601.56261
-1627.0607
849.3436
-799.50484
-311.98124
-2564.3284
4359.0124
-1846.228
317.30452
-21.520382
73.020529
566.18093
-679.57865
5002.0906
-627.67746
-10.149814
892.98752
-53.842592
-3960.4869
-60.024721
-1117.2277
2.612956
-572.46444
101.22726
-2659.3037
2263.8248
-2537.0812
30.833202
473.18231
-1691.0574
1766.0313
-80.404936
2400.579
-514.02762
6329.1805
-238.15862
-420.66053
-3878.5663
3823.4327
-2723.2369
-12.085115
-28.020505
124.03211
41.650271
-3649.8396
695.07853
577.61198
356.92273
-6928.2132
-10.878342
651.32108
-38.731023
-6937.646
391.05079
21.335832
-1909.7812
-62.338561
111.37967
1386.1505
-1015.4218
-5132.5455
434.93738
-442.12603
7.6752857
11.987143
-847.16589
-1165.856
507.69217
-222.36022
766.3496
-499.38883
2212.8569
-5132.0847
-288.64129
-619.54048
-5021.4939
636.99257
1405.0381
11.572738
-1017.9064
-53.29407
1294.6215
1074.244
-1342.4059
286.05883
-4.6281921
-688.26869
581.10616
1689.5564
574.45514
-277.89528
1362.3914
26.475248
-5006.3447
927.7942
-170.92101
-1542.9393
-188.75928
-428.79523
-893.03528
-76.241541
-488.11941
-992.76346
91.888916
-15.677833
-1826.6558
-854.38838
-779.93119
-705.90954
-291.55756
-3179.6149
-1969.9662
-1915.3447
495.65758
-1864.923
2503.968
119.07418
424.32203
-860.41974
465.78054
-2939.8774
69.715986
-1539.9379
-3242.3827
-935.10352
-194.51792
-1688.9475
-679.60836
-441.61443
42.752215
-852.29114
1219.8574
-261.64683
1.7177662
603.69392
1279.1202
-1070.508
2389.3048
-1418.6862
7476.7676
950.57118
-1451.4737
-529.59844
10.508404
370.97988
1678.0995
-815.44385
-15.910661
-74.686096
122.54575
533.82715
-270.40089
-12.400407
-120.31937
-12.175675
2314.5531
-32.468712
1107.9954
1628.2655
1398.3724
1280.5696
1045.0786
529.4841
-31.882225
509.93508
-848.10623
-417.23391
3.7917942
45.286134
2450.7972
-1155.5527
-2322.7568
245.03496
1449.5145
-428.52196
1580.2954
694.07357
-692.56514
3017.2184
53.409422
-183.61547
-386.80697
8.6961273
-1.4491534
-275.65103
89.12415
5260.3228
-138.89561
-401.87524
954.50815
87.037183
128.9359
17.443285
-73.197777
1499.3622
-646.3311
-494.59663
-138.91815
753.99031
109.2222
366.88418
-273.38447
-22.881518
-51.769073
377.11825
1184.4504
484.93876
-1114.2587
10.8185
-27.584475
-1781.0247
464.4566
-188.23366
-396.60959
4889.9114
-1030.3555
4867.3889
-2382.9182
-1162.5653
164.68936
-629.0151
642.05885
-31.192863
1931.2117
-5.8872696
1225.4325
-275.88454
-1115.8747
-1364.8311
-4747.9008
420.94914
-31.219166
-587.4848
1423.3079
-899.36875
1437.5223
-872.22374
-278.99633
1170.0075
555.8874
-76.380908
268.29882
-176.2386
-4658.4447
129.85904
7339.6464
-3584.9632
-1077.1195
38.912566
4247.71
600.21257
-5138.2442
-780.8304
-8.5135282
-429.00039
-911.40748
-4430.5957
-448.11577
567.53853
-4349.4544
-810.79127
869.12391
35.897994
-225.22364
-414.98045
-26.899024
77.826214
1.8654361
596.29197
117.06962
-5.3871866
-437.33659
1620.36
1020.7725
2455.6317
1328.3439
-2365.4896
-3488.1368
25.545637
-1358.1541
107.88598
-4525.3062
-1967.2802
-795.45075
-666.71202
-1384.8041
1403.9652
-826.33942
16.119277
-930.1633
-167.9908
1383.4893
-359.02429
110.03376
40.566922
-4652.3012
-741.84799
43.229081
-22.928922
15.882569
746.14627
403.91513
6595.6376
-6.7826644
-3.491205
-52.568112
-341.61068
-4329.2578
-2425.0191
-1135.8875
-1342.2486
-1097.0893
2329.6886
3819.5223
-4045.7494
-15.336253
1703.5038
-4796.8591
-458.74196
434.4586
-3459.3897
-3742.4739
816.42833
68.661958
613.40293
-24.742635
-316.8251
-1358.1153
1363.1919
2964.7568
-3414.6318
167.39137
3322.065
-69.936195
378.83204
-287.22393
2031.1368
-348.13377
-343.89324
82.364239
-9.1169175
-186.26234
-2422.4129
6024.9628
-2868.1564
-2557.1954
-141.22996
-2413.5612
3817.2893
-2328.1843
1460.3012
-1111.2246
-2011.2111
-32.421042
166.62812
335.60909
-1238.6745
72.801512
-3337.8191
432.30011
1091.4417
2745.2552
-1558.7329
-1656.6182
1399.2288
-395.39655
89.144345
-190.77861
-4902.8991
-2977.5044
-594.59687
-445.19199
-1006.1123
-61.378222
602.94917
1653.3327
662.3259
-3274.9256
-65.231798
-1861.5802
-129.6589
47.392987
2827.4677
1545.871
-77.006678
1381.5423
-603.91439
1677.1386
156.48214
-378.56757
826.9206
3683.5934
-8809.4902
1063.5572
-115.43798
-2520.5547
3.6481887
-8785.3817
-59.409686
971.55178
-1599.9118
-31.572658
757.55688
-408.01425
271.41589
-3594.3912
-5206.4165
-188.00478
-74.713029
125.54635
-257.62569
2344.9479
-2751.6243
-2414.8426
1469.1254
-35.317122
-2995.4825
103.44859
551.11047
972.37775
-2696.6709
208.11373
221.05174
-713.38638
-407.26133
-1683.6489
-16.307893
55.620084
-4265.1054
105.69156
79.00943
-771.28243
-283.23317
-5998.7854
-220.18139
4565.879
-5916.1492
2255.4467
-2678.5791
-115.09256
1686.4889
-154.83417
-708.97529
-8037.6345
-942.10663
6004.6452
90.04676
-4163.113
-2493.676
669.04331
-8002.6042
481.94267
-62.656723
2587.164
62.466891
232.06106
-102.61662
1883.5791
-765.602
-29.420359
-225.25319
-3189.8474
21.754328
401.91621
-937.15781
-656.14898
96.236456
-34.54464
719.21793
7526.0695
-62.003086
1795.3519
-1391.0327
1088.1612
475.35674
386.97504
4688.0164
-146.74894
1461.5341
2011.745
-1333.552
1621.2694
-3975.9926
-891.03847
4.9885659
349.97751
-235.9658
3.1848323
-537.88369
264.29462
217.77109
-2083.1069
6588.487
-2233.851
1277.6594
-3879.2927
1097.1884
825.87182
-1088.6243
3026.7391
1511.5058
520.47749
851.14318
-264.43326
-89.417409
393.10948
-491.59905
-250.36667
-6900.7405
-6860.2353
-134.95654
-533.75241
-225.08627
-28.588061
-891.18335
-112.69247
-173.59537
-2597.1638
-86.648229
-837.66564
-1172.4284
-2.9183207
-831.68057
500.79715
-546.20937
-14.767035
451.33847
-8592.6291
1740.1001
7.7248008
-830.18753
1536.1498
-1379.9756
-8568.0161
-106.08689
19.717095
-1772.2147
854.14285
-243.76371
-6988.3908
-3.3168425
2380.7383
-916.29535
105.43296
-16.296055
-404.06337
-6910.6197
1487.2837
42.990963
-1938.1115
-8.9362996
-926.52045
-3513.6307
1136.3914
1099.8516
-97.783602
882.62701
-168.90406
-1904.6269
-3416.8379
122.54686
-395.22963
-779.09993
-1501.1661
-105.18711
7031.3373
-73.909176
3827.4004
111.91625
4302.3908
-2004.1585
-1842.5862
-201.01592
479.04381
486.36184
1878.5282
-1020.1879
17.266515
2189.0835
929.27458
-114.63329
-701.95198
-118.23747
1667.0008
732.38934
-22.988351
104.59434
-218.22366
-529.61418
-265.93487
526.62421
596.26508
-742.28375
219.7622
-4345.2913
757.43038
970.98899
243.30679
-596.50676
18.581099
-32.781384
4702.6766
-335.59291
-536.23178
-55.657064
1797.2022
2920.183
-3245.114
-398.25354
-111.92828
1860.1943
6203.347
-61.408263
99.603964
874.97871
-187.62872
-2.4810531
0.56463342
-897.29122
1487.4678
0.80355817
-674.08078
-1481.9598
495.83656
-4.9855675
-892.78148
-243.84298
-61.990855
-92.124613
-1784.3391
-518.48927
-4690.8597
-1743.8585
0.14715895
-47.995399
-454.84924
1701.1068
1338.1749
762.97303
-2271.2954
-1.0622157
1101.8023
-1770.9623
-4585.9451
909.58481
3.4579568
896.42562
98.622678
-3867.5946
-5133.0656
71.769638
1160.4949
1171.7509
-154.92014
-2667.5545
22.598301
-466.73217
279.97791
2004.459
-1859.2693
1249.722
2028.8895
-54.902524
3588.8583
6160.3126
745.03604
92.977757
-2756.444
1315.6583
-1857.0132
2261.4849
361.02039
-2200.4667
433.38728
3093.1275
2392.493
-5.598918
-4.2668508
-4454.0166
-90.036719
2276.7556
185.45381
158.50364
-5035.4176
115.37516
395.88438
2397.4102
-5744.8028
-1460.3466
-2647.5002
-2064.0229
3651.8431
1.4297103
86.478104
-916.49013
1113.0057
-618.80602
-1.3250104
-6188.482
-78.895854
-97.10924
-6123.2538
81.07862
-6231.8645
-119.38987
171.87012
-377.59238
3.1692016
577.99257
1599.4957
99.595442
1.7228207
-834.51307
-96.003432
-874.13194
408.64231
-207.74519
441.11638
734.28667
-4350.4949
-6140.4004
-3003.7143
40.883436
-32.310184
2.5577763
79.481619
8.2251821
647.76185
138.83359
-14.901679
971.52064
1967.7754
-781.96777
3121.0633
-637.64079
-156.63609
-3981.7358
1053.6492
-7862.9178
1790.2572
-55.905297
-278.59754
302.17667
-865.20477
-871.37102
-5233.3396
-220.04394
670.4567
-118.88408
1295.3731
-43.953624
64.845414
-36.09402
-22.443726
2087.0071
-253.98085
-660.33143
-551.95281
771.35715
-1018.7574
-409.15061
-52.107332
-71.369041
-321.56131
4840.123
-810.30531
-24.905348
-788.26853
1543.2786
-1260.819
-2010.5565
883.84648
1002.5828
-7903.0112
-58.756297
-29.710137
1180.2845
-82.60985
499.90442
-143.71589
-974.19494
4.6617266
1406.6281
549.99858
5123.9309
-3372.2576
42.985126
383.43703
-5391.1301
-5389.111
4931.2502
1303.7089
116.1972
-1338.7048
-203.3271
-72.727562
1948.718
-8.6710953
1391.0537
2807.5907
-52.643042
-2918.2461
2388.6499
-926.86584
50.868756
-124.98495
495.16346
1207.4692
-622.94146
-29.121703
128.59848
132.27714
-1990.9585
-3294.9887
-13.308466
-146.65561
-3088.4618
576.14009
-31.450937
-257.00982
1326.5859
-2087.2993
-31.219983
-554.73336
-29.814021
-95.491645
231.27341
-1270.2569
-5583.6605
257.50605
6470.3251
1743.251
216.20532
195.8223
1299.6373
19.364807
-4036.0622
113.93012
-4136.5837
457.87031
455.41095
-2820.4773
-1363.9468
-983.75332
791.28821
-3595.3154
-871.05668
4727.6038
3474.8538
-376.88915
7098.9224
874.42776
-4591.1209
-38.819545
-5784.2647
6051.4969
276.82288
-5488.5515
-4684.607
-130.51913
-45.312771
-50.409137
1651.4588
5644.1466
-468.15093
-1430.3
273.30275
502.60281
-1362.3042
522.38492
-209.15062
6.8573816
-665.65221
-82.696757
-495.83044
-3661.5871
321.10747
-769.72657
-352.92783
-165.62578
-6004.1283
63.396393
-888.16444
-4484.0371
492.9756
1296.7092
-5973.4157
-193.6621
-1040.0307
-8.6903968
1598.2338
1357.2524
-1838.4838
733.34752
6398.6021
1197.2968
-537.80629
498.63305
-90.160437
1059.4733
4304.1499
-241.20007
-255.36506
-729.54343
-6039.9816
-969.08875
1028.2553
53.122183
-33.443246
166.51228
-1063.2091
391.75316
3808.986
-2541.3068
-1529.4234
-63.452649
411.05431
-58.215786
-72.141878
-87.265194
-6575.0442
1500.3704
604.41211
2085.1507
-6491.554
-217.35903
2173.2447
-2557.0111
-2843.3359
631.89942
-2357.9025
-694.17421
-6012.9254
-7815.5149
-7793.0576
2854.8875
-4.5622729
-3103.7739
-1447.8434
-65.22219
206.96133
-639.24409
-212.02248
-1931.6323
15.530697
-1987.7064
-890.82292
42.984279
-2342.6349
238.00811
1914.1274
-743.60903
1619.4412
-1166.4235
-716.64082
1715.7151
-423.5494
-6799.7027
950.20799
-458.16772
-2098.2903
-185.37406
-871.61903
192.09406
-138.51353
114.50586
85.89871
2031.0434
-10.786439
-897.66664
538.03538
25.415627
-215.58435
-296.44177
-2788.305
3026.7612
-73.400439
162.49853
-628.0648
-27.589465
-8.3303928
-186.77789
6427.8477
46.677235
-1496.7425
-5290.5647
4379.1944
-1184.3667
-527.28398
-83.658741
754.01636
2772.0971
-175.24681
-1634.7856
-1994.6158
1490.8028
418.54254
1046.5408
-20.569048
-16.380929
1684.3891
-288.42157
-464.66174
-1690.8517
-2005.0376
23.887251
-1895.4803
4526.2436
-158.71035
-37.577185
-792.43824
-338.98416
-1071.7016
-8.4126475
-473.3753
1125.6731
183.10839
-5190.6907
-6917.1961
-1157.6577
-297.91754
-5349.2155
5992.4401
-855.47076
-865.40693
146.6783
132.6918
-929.79577
84.511164
-1864.1282
1158.3083
-1.3180151
-129.30058
1044.0512
-59.786944
1335.4343
1178.83
1020.9152
-1130.8931
-11.473591
1064.7876
-2161.6046
453.98206
-975.39652
-147.98178
1325.1363
-8.0455518
3.8915903
856.91442
-61.992708
284.07636
-6854.9811
749.13312
383.00271
-2706.4666
-436.91907
40.739848
-427.91975
593.88383
-184.57505
-863.92527
1008.2127
-290.81264
-586.53006
2222.4373
-18.149902
-14.47809
5570.7608
2705.5597
-1123.4237
-156.09502
-1289.9463
-536.26001
470.255
1177.9806
-411.4642
-1302.7855
17.433349
-44.795083
-1261.7742
1597.8208
-935.39236
-121.37362
1384.86
-892.05237
43.318743
-6.1278929
-4053.1474
-743.34424
69.383669
-4157.7663
-1180.3325
1118.7707
5940.1451
3.9810679
-13.012095
59.679573
-3294.5202
-20.965392
68.589264
21.850041
-32.037
-49.660518
-5416.2407
-1143.1233
74.474278
84.943489
-927.8898
-1528.84
-6832.9697
3045.8358
8.6712739
1425.2175
-343.0359
1904.7778
1910.6203
-1310.5449
-5312.9651
1609.7159
-1111.4507
-1485.806
544.22662
1631.8293
729.19029
946.25571
-394.96752
-1921.2562
1700.5228
-224.92304
51.449128
-4.0115686
668.22268
161.78497
-15.294434
1115.1072
-92.203286
1186.5657
-45.234903
-77.230221
209.19969
690.63919
-892.26659
-8.8558895
30.033511
-282.13653
-2135.0899
-1.6821179
-2210.353
-72.145307
-137.07413
544.60244
-176.97101
3883.5971
831.30427
-294.76496
1573.5939
166.17404
3205.3781
741.16323
-1172.5783
-670.17547
-2860.4094
-50.689133
-181.20236
75.871606
-2295.7611
-3645.0569
-336.16198
-165.95801
-41.195306
-75.715609
3707.7327
956.73755
-45.783133
-4410.5839
190.11545
-200.3329
-1947.3535
212.42635
3676.1098
1249.0031
-802.85811
129.54362
-6002.3301
-61.839081
-805.17734
2.5899646
-13.198129
-77.780083
-354.07422
101.10591
555.52085
-617.73669
838.8298
1213.4283
137.87141
114.69135
41.268615
-2798.9092
-340.23612
-4328.0193
2297.2036
329.47199
-1140.1616
-88.155706
2079.2109
-1853.7734
-7.4945941
-1120.5288
-177.20107
-96.792033
5.4390256
-180.82042
-1568.419
39.05262
-5961.4762
-199.84241
220.62086
273.23939
-203.18498
-1007.8344
-568.56949
69.757219
-738.05038
2090.9346
-786.01454
-2040.4023
4036.1572
-13.685089
-1225.4607
792.32044
-158.1302
-638.153
1293.7823
-966.15143
1770.7197
-5527.7795
-2865.9962
-921.8603
-259.42108
-175.86339
-103.35867
479.80585
22.816504
-3535.9246
-1241.7932
-101.62389
93.159762
138.67764
787.7233
438.73299
5404.4005
49.494625
838.65326
-43.020167
-1242.7238
-2722.5615
-699.59008
-218.8953
-864.9278
37.50055
1721.686
-703.19164
-154.47972
-706.67641
-13.01408
-349.9231
42.063962
-792.07375
444.89438
-1265.5961
1390.7515
-46.348088
1420.425
-517.27398
-717.33213
-20.674707
13.999365
1148.5701
2033.1888
-21.718756
262.88266
-6502.767
1111.0711
-39.815161
-197.94034
553.47233
-2548.1096
62.35192
42.19409