/*--------------------------------*- C++ -*----------------------------------*\
| =========                 |                                                 |
| \\      /  F ield         | foam-extend: Open Source CFD                    |
|  \\    /   O peration     | Version:     4.1                                |
|   \\  /    A nd           | Web:         http://www.foam-extend.org         |
|    \\/     M anipulation  |                                                 |
\*---------------------------------------------------------------------------*/
FoamFile
{
    version     2.0;
    format      ascii;
    class       surfaceScalarField;
    location    "0.7";
    object      phi;
}
// * * * * * * * * * * * * * * * * * * * * * * * * * * * * * * * * * * * * * //

dimensions      [0 3 -1 0 0 0 0];

internalField   nonuniform List<scalar> 
6703
(
-0.0042206343
0.021918036
-0.017697402
-0.007997588
0.026981101
-0.023204147
-0.01157923
0.032388973
-0.028807331
-0.015774409
0.038476318
-0.034281138
-0.020592856
0.045608519
-0.040790072
-0.026098266
0.053961662
-0.048456252
-0.032357449
0.063718372
-0.05745919
-0.039441245
0.075088364
-0.068004567
-0.047434292
0.088302246
-0.0803092
-0.056440345
0.10361743
-0.09461138
-0.066585514
0.1213252
-0.11118003
-0.078020446
0.14176116
-0.13032623
-0.090921007
0.16532961
-0.15242905
-0.10550364
0.19255762
-0.17797499
-0.1220269
0.22418725
-0.20766399
0.26122083
-0.24278381
-0.14046392
-0.0030621057
0.024980142
-0.0061274749
0.03004647
-0.0091442316
0.035405729
-0.012702579
0.042034666
-0.016855078
0.049761018
-0.021717489
0.058824073
-0.027408762
0.069409644
-0.03405866
0.081738262
-0.041813306
0.096056893
-0.050840446
0.11264457
-0.061338472
0.13182323
-0.073550421
0.15397311
-0.087778755
0.17955794
-0.1043848
0.20916367
-0.12373762
0.24354006
0.28355505
-0.14607184
-0.0011490453
0.026129187
-0.0029825536
0.031879978
-0.0050881997
0.037511376
-0.0076142659
0.044560732
-0.010610558
0.052757309
-0.014167865
0.062381381
-0.018381424
0.073623203
-0.023362238
0.086719076
-0.029237171
0.10193183
-0.036150819
0.11955822
-0.044268657
0.13994106
-0.053783016
0.16348747
-0.064923079
0.190698
-0.077964127
0.22220472
-0.093210487
0.25878642
0.30131311
-0.11096855
-0.00043486991
0.026564057
-0.0016067085
0.033051817
-0.0028433729
0.03874804
-0.0043745545
0.046091913
-0.006207867
0.054590622
-0.0084126992
0.064586213
-0.011054649
0.076265152
-0.014213591
0.089878018
-0.017981543
0.10569978
-0.022464549
0.12404123
-0.027784418
0.14526093
-0.034080232
0.16978328
-0.041508466
0.19812624
-0.05023672
0.23093298
-0.060408171
0.26895788
0.31284958
-0.071944644
0.00020323463
0.026360822
-0.00038177618
0.033636828
-0.00083011589
0.03919638
-0.0014485041
0.046710301
-0.0021825151
0.055324633
-0.003079217
0.065482915
-0.004168703
0.077354638
-0.0054945441
0.091203859
-0.0071078513
0.10731309
-0.0090700147
0.12600339
-0.011454015
0.14764493
-0.014345734
0.172675
-0.017844402
0.20162491
-0.022060623
0.2351492
-0.027113805
0.27401106
0.31916512
-0.033429348
0.00086933396
0.025491487
0.00094549469
0.033560668
0.0012711676
0.038870707
0.0015748525
0.046406616
0.001945082
0.054954403
0.0023618327
0.065066164
0.0028299199
0.076886551
0.003344135
0.090689644
0.0038965076
0.10676071
0.0044726683
0.12542723
0.005050608
0.14706699
0.005598991
0.17212662
0.0060755284
0.20114837
0.0064241369
0.23480059
0.0065989838
0.27383621
0.31921954
0.0065445675
0.0015701555
0.02392133
0.0024133932
0.032717431
0.0035215381
0.037762563
0.0047891395
0.045139014
0.0062853159
0.053458227
0.0080338535
0.063317626
0.010069652
0.074850753
0.012427507
0.088331788
0.015142459
0.10404576
0.018247554
0.12232213
0.021772491
0.14354206
0.02574257
0.16815654
0.030179071
0.19671187
0.035097935
0.22988172
0.040522798
0.26841135
0.31338992
0.046352415
0.0022814498
0.021639878
0.0039740229
0.031024859
0.0058557644
0.035880823
0.008092084
0.042902694
0.01071417
0.05083614
0.013797014
0.060234782
0.017402753
0.071245013
0.021603657
0.084130884
0.026474442
0.099174974
0.032091935
0.11670464
0.038533533
0.13710046
0.045876091
0.16081398
0.054195429
0.18839253
0.063559967
0.22051719
0.074020538
0.25795078
0.30187915
0.085531315
0.0030505339
0.018589343
0.00574644
0.028328953
0.0084552833
0.033171981
0.011664787
0.039693191
0.015402322
0.047098605
0.019794628
0.055842476
0.02493514
0.066104501
0.030930533
0.078135491
0.037892588
0.092212919
0.045938984
0.10865824
0.055193032
0.12784641
0.065785248
0.15022177
0.077858864
0.17631891
0.091578374
0.20679768
0.10713767
0.24239148
0.28425147
0.12476535
0.0041121457
0.014477195
0.0080273769
0.024413721
0.011761738
0.029437621
0.016020674
0.035434256
0.020891894
0.042227384
0.026554835
0.050179534
0.033148253
0.059511082
0.040815494
0.070468249
0.049704502
0.08332391
0.059970399
0.098392344
0.07177734
0.11603947
0.085303783
0.13669532
0.1007564
0.1608663
0.11840178
0.18915229
0.1386251
0.22216816
0.26068297
0.1621936
0.0044930099
0.0099841844
0.010603702
0.018303027
0.01639151
0.023649813
0.022244151
0.029581616
0.0284672
0.036004335
0.03540734
0.043239394
0.043320939
0.051597483
0.052424439
0.061364749
0.062918946
0.072829403
0.074999217
0.086312073
0.088856763
0.10218192
0.10468478
0.12086731
0.12268756
0.14286352
0.14309321
0.16874664
0.16612611
0.19913526
0.23448593
0.19232315
0.0079267493
0.0020574359
0.015400574
0.010829201
0.021561322
0.017489065
0.027743822
0.023399117
0.034427596
0.029320562
0.041861713
0.035805278
0.05023241
0.043226786
0.059690606
0.051906553
0.070341347
0.062178662
0.082239713
0.074413707
0.095393915
0.089027721
0.1097761
0.10648512
0.12534377
0.12729586
0.14206898
0.15202143
0.15986603
0.18133821
0.21560918
0.17874279
-0.00029232508
-0.017754627
0.018046952
-0.0022598734
-0.021269553
0.023237102
-0.0059021583
-0.025310184
0.028952469
-0.010155771
-0.030080153
0.034333765
-0.015192858
-0.035678438
0.040715525
-0.021138763
-0.042230252
0.048176158
-0.028128898
-0.049873886
0.05686402
-0.036314165
-0.058760574
0.066945842
-0.04584254
-0.06905595
0.078584325
-0.056851782
-0.080941558
0.0919508
-0.0694667
-0.094617926
0.10723284
-0.083796378
-0.11031144
0.12464111
-0.099941847
-0.12828753
0.144433
-0.11805321
-0.14885954
0.16697091
-0.13851271
-0.17236304
0.19282253
-0.19924965
0.22312531
-0.16238838
-0.0027258161
-0.015028811
-0.0061842649
-0.017811104
-0.010396952
-0.021097497
-0.01549058
-0.024986525
-0.021605097
-0.029563922
-0.028905215
-0.034930134
-0.037581539
-0.041197562
-0.047852363
-0.04848975
-0.059966876
-0.056941437
-0.074208826
-0.066699609
-0.090900367
-0.077926385
-0.11040685
-0.090804951
-0.13314489
-0.10554949
-0.15958469
-0.12241974
-0.19019172
-0.14175601
-0.16405225
-0.22538912
-0.0032033916
-0.01182542
-0.0071161575
-0.013898339
-0.011808643
-0.016405012
-0.017417347
-0.01937782
-0.024102671
-0.022878598
-0.032051144
-0.026981661
-0.041477483
-0.031771223
-0.05262673
-0.037340503
-0.065776609
-0.043791557
-0.08124045
-0.051235768
-0.099371493
-0.059795342
-0.12056982
-0.069606624
-0.14529268
-0.080826624
-0.17406961
-0.093642817
-0.20755598
-0.10826963
-0.12488724
-0.24672099
-0.003294495
-0.008530925
-0.0073902532
-0.0098025803
-0.012358818
-0.011436447
-0.01833026
-0.013406379
-0.025468757
-0.015740101
-0.033968152
-0.018482265
-0.044051818
-0.021687557
-0.055973513
-0.025418808
-0.070018516
-0.029746555
-0.086504985
-0.034749299
-0.10578605
-0.040514277
-0.12825462
-0.047138051
-0.1543546
-0.05472665
-0.18459427
-0.063403145
-0.21949356
-0.073370347
-0.085066239
-0.25931455
-0.0036228869
-0.0049080382
-0.0080246564
-0.0054008108
-0.013292373
-0.006168731
-0.01958379
-0.0071149614
-0.027085706
-0.0082381848
-0.036012435
-0.009555536
-0.046607626
-0.011092366
-0.059146254
-0.01288018
-0.073936616
-0.014956193
-0.091322966
-0.017362949
-0.11168857
-0.020148673
-0.13546088
-0.02336574
-0.16311433
-0.027073202
-0.19519292
-0.031324553
-0.23250493
-0.03605834
-0.040872915
-0.27669825
-0.0011487351
0.026139844
-0.024991108
-0.002982462
0.031895458
-0.030061732
-0.0050882231
0.037532197
-0.035426436
-0.0076142953
0.044589624
-0.042063552
-0.010610308
0.052798284
-0.049802272
-0.014166594
0.062438434
-0.058882148
-0.018377674
0.073700084
-0.069489004
-0.023353442
0.086817693
-0.081841925
-0.029219333
0.10204979
-0.0961839
-0.036118605
0.11968569
-0.11278642
-0.044216767
0.14005832
-0.13196016
-0.053709861
0.16356697
-0.15407387
-0.06483642
0.19071627
-0.17958971
-0.077883327
0.22216596
-0.20911905
-0.093151367
0.25874293
-0.24347489
0.30132939
-0.2836068
-0.11087396
-0.004870159
-3.7879252e-05
-0.010233727
-3.7242638e-05
-0.016365456
-3.7001784e-05
-0.02344433
-3.608797e-05
-0.031648647
-3.3867229e-05
-0.041174365
-2.9818567e-05
-0.052243214
-2.3516615e-05
-0.065108666
-1.472767e-05
-0.080061276
-3.5838271e-06
-0.09743343
9.2061005e-06
-0.11760432
2.2215176e-05
-0.14100348
3.3426248e-05
-0.16811711
4.0426496e-05
-0.19948121
3.954627e-05
-0.23556084
2.1287141e-05
-3.6269522e-05
-0.27639748
-0.0049670729
0.0049291937
-0.010414194
0.005409878
-0.016631381
0.0061801861
-0.023800429
0.0071329599
-0.032099574
0.0082652777
-0.041722973
0.0095935806
-0.052888919
0.011142429
-0.065845741
0.012942093
-0.080877217
0.015027892
-0.098307666
0.017439656
-0.11850743
0.020221981
-0.14189632
0.023422315
-0.1689472
0.027091305
-0.20017415
0.031266499
-0.23603418
0.035881313
0.040658791
-0.27672924
-0.0036415067
0.0085707005
-0.008082375
0.0098507462
-0.013397411
0.011495222
-0.019741279
0.013476828
-0.02729855
0.015822549
-0.036281048
0.018576079
-0.046929324
0.021790705
-0.05951445
0.02552722
-0.074339793
0.029853235
-0.09174324
0.034843103
-0.11209951
0.040578246
-0.13582474
0.047147546
-0.16338127
0.054647837
-0.19530224
0.063187473
-0.23233991
0.072918982
0.084137992
-0.27581911
-0.0032857662
0.011856467
-0.0073732237
0.013938204
-0.012332045
0.016454043
-0.018290192
0.019434975
-0.025409527
0.022941884
-0.033881002
0.027047554
-0.043924204
0.031833907
-0.055787928
0.037390944
-0.069751123
0.04381643
-0.086124344
0.051216325
-0.10525257
0.059706471
-0.127522
0.069416983
-0.15337675
0.080502585
-0.18334775
0.09315847
-0.21802558
0.10759681
0.12386194
-0.25774952
-0.0031823869
0.015038854
-0.0070696524
0.017825469
-0.011730479
0.021114869
-0.017299714
0.02500421
-0.023935793
0.029577963
-0.031822824
0.034934584
-0.041172649
0.041183732
-0.052227157
0.048445452
-0.065261213
0.056850486
-0.080587027
0.066542138
-0.098561617
0.077681061
-0.11959933
0.090454699
-0.14418798
0.10509124
-0.17290941
0.12187989
-0.20657772
0.14126512
0.16423443
-0.24695021
-0.0027139976
0.017752852
-0.0061569818
0.021268453
-0.010349895
0.025307783
-0.015418891
0.030073205
-0.021503454
0.035662526
-0.028768125
0.042199255
-0.037404073
0.04981968
-0.047631775
0.058673154
-0.059705758
0.068924469
-0.073920909
0.080757289
-0.090620519
0.09438067
-0.11020754
0.11004172
-0.13316461
0.1280483
-0.16007734
0.14879263
-0.1915251
0.17271289
0.20014113
-0.2274318
-0.00027561158
0.018028464
-0.0022330076
0.023225849
-0.0058696084
0.028944384
-0.010115855
0.034319452
-0.015145225
0.040691896
-0.021083852
0.048137882
-0.028068513
0.056804341
-0.036252527
0.066857168
-0.045788397
0.078460339
-0.056821044
0.091789936
-0.069485779
0.10704541
-0.083903773
0.12445972
-0.10017942
0.14432395
-0.11842068
0.16703389
-0.13884417
0.19313638
0.22344984
-0.16215288
0.0079288202
-0.0099747939
0.0020459806
0.015407059
-0.018298463
0.01082021
0.021572354
-0.023649759
0.017484462
0.027757803
-0.029585876
0.023400427
0.034443212
-0.036015078
0.029329666
0.041877419
-0.043259135
0.035824928
0.05024589
-0.051629143
0.043260671
0.0596981
-0.061410863
0.051958651
0.070336675
-0.072890495
0.062251919
0.082212901
-0.086383983
0.074507756
0.095329524
-0.10225216
0.089135535
0.10965125
-0.12091106
0.10658934
0.12512471
-0.1428401
0.12736663
0.14169239
-0.16859589
0.15202821
0.1591838
-0.1987324
0.18124099
-0.23379318
0.21473608
0.1782409
0.0044995739
-0.01447436
0.01061794
-0.024416838
0.016413455
-0.029445275
0.022274251
-0.035446671
0.028506301
-0.042247129
0.035456662
-0.050209496
0.043382006
-0.059554488
0.052498726
-0.070527583
0.063007473
-0.083399243
0.075102319
-0.09847883
0.088974834
-0.11612467
0.10482195
-0.13675818
0.12286302
-0.16088117
0.14337149
-0.18910435
0.166706
-0.22206691
-0.26077626
0.19368907
0.0041177379
-0.018592093
0.0080390472
-0.028338152
0.011779011
-0.03318524
0.016044294
-0.039711953
0.020923118
-0.047125952
0.026595156
-0.055881535
0.033199235
-0.066158566
0.040878369
-0.078206716
0.049779674
-0.092300548
0.060056919
-0.10875608
0.071872739
-0.12794049
0.085405044
-0.15029048
0.10086287
-0.176339
0.11851712
-0.2067586
0.13874397
-0.24229376
-0.284217
0.16218471
0.003053633
-0.021645725
0.0057531103
-0.031037629
0.0084653044
-0.035897436
0.011678949
-0.042925598
0.015421596
-0.050868598
0.019820068
-0.060280007
0.024967726
-0.071306224
0.030970795
-0.084209785
0.037940142
-0.099269894
0.045991993
-0.11680793
0.055248024
-0.13719653
0.065838159
-0.16088062
0.077908653
-0.18840949
0.091633187
-0.22048314
0.10722812
-0.25788869
-0.30194894
0.12496006
0.0022830157
-0.02392874
0.0039771457
-0.032731759
0.0058604689
-0.03778076
0.0080989138
-0.045164042
0.010723742
-0.053493426
0.013809953
-0.063366218
0.017419532
-0.074915803
0.021624296
-0.088414549
0.026498049
-0.10414365
0.032116157
-0.12242603
0.038554205
-0.14363457
0.045887689
-0.1682141
0.05419283
-0.19671463
0.063539714
-0.22983002
0.073981229
-0.26833021
-0.31339715
0.085429441
0.0015710864
-0.025499825
0.0024149099
-0.033575585
0.0035238355
-0.038889685
0.0047925621
-0.046432769
0.0062903029
-0.054991166
0.0080408797
-0.065116794
0.0100791
-0.076954024
0.012439463
-0.090774911
0.015156361
-0.10686055
0.018261793
-0.12553147
0.021784171
-0.14715695
0.025747952
-0.17217788
0.030175173
-0.20114185
0.035084809
-0.23473966
0.040510102
-0.2737555
-0.31921834
0.04633129
0.00087019247
-0.026370017
0.00094668207
-0.033652075
0.0012730305
-0.039216034
0.0015776925
-0.046737431
0.0019493456
-0.055362819
0.0023680916
-0.06553554
0.0028387835
-0.077424716
0.0033561712
-0.091292299
0.0039120447
-0.10741642
0.0044915566
-0.12611098
0.005072036
-0.14773743
0.0056216387
-0.17272749
0.0060983808
-0.2016186
0.0064484078
-0.23508968
0.0066327713
-0.27393986
-0.31915529
0.0065697201
0.00020402739
-0.026574044
-0.00038078729
-0.033067261
-0.00082842693
-0.038768394
-0.0014458102
-0.046120047
-0.0021782907
-0.054630339
-0.0030726878
-0.064641143
-0.0041588491
-0.076338554
-0.0054800334
-0.089971115
-0.007087081
-0.10580937
-0.0090412512
-0.12415681
-0.011415752
-0.14536293
-0.01429722
-0.16984602
-0.017785883
-0.19812993
-0.021991463
-0.2308841
-0.027026389
-0.26890494
-0.31285504
-0.033326634
-0.00043420021
-0.0016060037
-0.0028422001
-0.0043726231
-0.0062046775
-0.0084073871
-0.011045857
-0.014199279
-0.017958859
-0.022429979
-0.02773459
-0.034013643
-0.041427307
-0.050145453
-0.060307462
-0.071833116
-0.0030583492
-0.021932759
-0.0061239491
-0.026996132
-0.0091432967
-0.032407088
-0.012704209
-0.03850264
-0.016859541
-0.04564694
-0.021724524
-0.054017164
-0.027417035
-0.063796493
-0.034064903
-0.075194057
-0.041811336
-0.088437467
-0.050820512
-0.10377724
-0.06128852
-0.12149215
-0.073462005
-0.14190039
-0.087660126
-0.16539159
-0.10427775
-0.19250143
-0.12373176
-0.22402087
-0.26099821
-0.14634034
-0.0042161571
-0.017716601
-0.0079973287
-0.02321496
-0.011588362
-0.028816055
-0.015794924
-0.034296078
-0.020627264
-0.040814601
-0.02614865
-0.048495777
-0.032424624
-0.057520519
-0.039523491
-0.06809519
-0.047525876
-0.080435082
-0.056530076
-0.094773039
-0.066657199
-0.11136502
-0.078059026
-0.13049856
-0.09092994
-0.15252067
-0.10553024
-0.17790113
-0.12212903
-0.20742209
-0.24261552
-0.14051172
0.004770162
-0.0030491379
-0.0017210251
0.015421115
6.5762513e-05
-0.010716716
0.027987333
0.0044757306
-0.017041953
0.041294095
0.009369232
-0.022675994
0.054366454
0.015249697
-0.028322055
0.067074575
0.0217266
-0.03443472
0.079427154
0.028988856
-0.041341435
0.0914758
0.037279468
-0.049328114
0.10332992
0.046829582
-0.0586837
0.11517226
0.057885121
-0.069727466
0.12724613
0.070748885
-0.082822746
0.13984759
0.085779721
-0.098381182
0.15334201
0.10336424
-0.11685866
0.16818041
0.12391867
-0.13875708
0.18487972
0.14793675
-0.16463605
0.17596204
-0.19509965
0.20401733
0.0022833612
-0.0053325081
0.0081101029
-0.0057609705
0.017111324
-0.0045254895
0.029223565
-0.0027430086
0.044738537
-0.00026527506
0.061991653
0.004473484
0.079979611
0.011000899
0.097947922
0.019311157
0.11582407
0.028953438
0.13379554
0.039913644
0.15202594
0.052518487
0.1708537
0.066951961
0.19090954
0.083308405
0.21319962
0.10162859
0.23905219
0.12208418
0.1449043
0.27010992
0.0001156512
-0.0054481667
0.0001473955
-0.0057927082
0.0020139841
-0.0063920776
0.0064600629
-0.007189087
0.014373667
-0.0081788795
0.02619534
-0.0073481884
0.042343472
-0.0051472328
0.063115873
-0.0014612425
0.086731782
0.0053375305
0.11111459
0.015530836
0.13481789
0.028815188
0.15808962
0.043680235
0.18165157
0.059746456
0.20672104
0.076559123
0.23464691
0.094158305
0.11255214
0.26699908
0.00034932589
-0.005797492
0.00070400248
-0.0061473843
0.0011402329
-0.006828307
0.0016322164
-0.0076810704
0.0021131416
-0.0086598048
0.0045084679
-0.0097435146
0.010249503
-0.010888267
0.020929162
-0.012140903
0.037446083
-0.011179392
0.059676435
-0.0066995159
0.084505637
0.0039859878
0.10471792
0.023467954
0.12975911
0.034705266
0.15818465
0.048133587
0.1905334
0.06180956
0.074639156
0.22844638
-0.00023240788
-0.0055650816
-0.00093714015
-0.0054426504
-0.0020437528
-0.0057216932
-0.0035806728
-0.0061441497
-0.0055930953
-0.0066473817
-0.0081353217
-0.007201288
-0.01124745
-0.0077761399
-0.01509058
-0.0082977713
-0.017590416
-0.008679558
-0.015393836
-0.0088961024
-0.001755676
-0.0096521725
0.020533873
0.0011784055
0.04340062
0.011838522
0.069813203
0.021721005
0.10174526
0.029877505
0.03575139
0.14063302
-0.0055479166
-1.7161968e-05
-0.010963956
-2.6609244e-05
-0.016647445
-3.8201885e-05
-0.02273937
-5.2222112e-05
-0.029317749
-6.9000255e-05
-0.036430174
-8.8861079e-05
-0.044094127
-0.00011218646
-0.052252164
-0.00013973376
-0.060758574
-0.00017314727
-0.069440768
-0.00021390771
-0.078829093
-0.00026385059
-0.077385039
-0.00026565055
-0.06532604
-0.00022047801
-0.043872812
0.00026777715
-0.016252763
0.0022574533
0.0088740141
0.010624611
-0.0056021321
0.0055849715
-0.011071696
0.0054429546
-0.016817489
0.00570759
-0.02298422
0.0061145076
-0.029651299
0.0065980776
-0.036863747
0.0071235856
-0.044628773
0.0076528397
-0.052866351
0.0080978458
-0.061393775
0.0083542783
-0.069967581
0.0083598986
-0.078668992
0.0084375629
-0.076929251
-0.0020053889
-0.064844649
-0.012305077
-0.042830567
-0.021746304
-0.010776209
-0.029796906
-0.035239745
0.03333755
-0.00023323762
0.005818206
-0.00095190974
0.0061616277
-0.002085789
0.0068414698
-0.0036665236
0.0076952423
-0.0057431484
0.0086747023
-0.0083735046
0.0097539414
-0.0115981
0.010877435
-0.015572155
0.012071899
-0.018136755
0.010918878
-0.015855921
0.0060790664
-0.0025814492
-0.0048369123
0.019073273
-0.023660113
0.042006952
-0.035238755
0.068931085
-0.048670434
0.10151018
-0.062376
-0.075504375
0.14177481
0.00034545208
0.005472747
0.00069481512
0.0058122681
0.0011255474
0.0064107386
0.0016133721
0.007207418
0.0020921987
0.0081958757
0.0044840328
0.0073621073
0.010214704
0.005146764
0.02086295
0.0014236538
0.037267534
-0.005485706
0.059201441
-0.015854841
0.083526172
-0.029161644
0.10387389
-0.044007836
0.1286528
-0.060017662
0.15672012
-0.076737755
0.18849115
-0.094147025
-0.11209038
0.22507715
0.00013291669
0.0053398269
0.00017702875
0.0057681576
0.0020572627
0.004530505
0.0065197625
0.0027449189
0.014453278
0.00026236101
0.026294523
-0.0044791383
0.042459794
-0.011018508
0.063239154
-0.019355708
0.086779222
-0.029025775
0.11094708
-0.040022701
0.13444601
-0.052660569
0.15754504
-0.067106872
0.18096795
-0.08344057
0.20592092
-0.10169072
0.23378591
-0.12201202
-0.14465966
0.26635519
0.0022850171
0.0030548115
0.0081056362
-5.2461421e-05
0.017098599
-0.0044624565
0.029203901
-0.0093603837
0.044714752
-0.015248492
0.061969748
-0.021734136
0.079959051
-0.02900781
0.09791702
-0.037313677
0.11577447
-0.046883228
0.13371287
-0.057961103
0.15189781
-0.070845508
0.17067627
-0.08588533
0.19068934
-0.10345364
0.21295215
-0.12395354
0.23880716
-0.14786703
-0.17557766
0.26972515
0.0047644481
-0.0017096307
0.01541935
-0.010707363
0.027994086
-0.017037191
0.04131055
-0.022676846
0.054392496
-0.028330436
0.067111766
-0.034453405
0.079478057
-0.041374099
0.091543199
-0.049378819
0.10341575
-0.058755778
0.11527615
-0.069821504
0.12736437
-0.082933727
0.13997444
-0.098495398
0.15347287
-0.11695207
0.16831973
-0.13880039
0.18506472
-0.16461201
-0.19516184
0.2046489
0.00035276375
-0.00033106145
0.00048981691
0.0005281305
0.00042995452
0.00011158486
-0.00054326379
-0.0016906621
-0.0035395229
-0.0063609665
-0.010495592
-0.016362103
-0.024467202
-0.035408302
-0.049935918
-0.069269885
0.00035249212
-0.00033035081
0.00048890622
0.0005265934
0.00042751737
0.00010789819
-0.00054860143
-0.0016979499
-0.003548707
-0.0063709463
-0.010503126
-0.016360573
-0.024448248
-0.035378473
-0.049978024
-0.069468227
0.00044919709
-0.00033634982
0.00089646785
0.0016200481
0.002619278
0.003990801
0.0058773722
0.0084572041
0.011953345
0.016639597
0.022841406
0.030935349
0.041349912
0.054577727
0.071206709
0.090780952
0.00044889511
-0.00033641076
0.00089600735
0.0016191305
0.0026176373
0.0039881954
0.0058735464
0.0084519863
0.011946948
0.016633189
0.022838164
0.030942103
0.041379298
0.054643647
0.071345802
0.091855331
0.24300398
-0.53632797
0.29332399
1.2754994
-1.3206355
0.045136128
0.18666574
-0.48445554
0.2977898
1.2754994
-0.33199077
0.050448741
0.28154203
-1.2669456
0.78712995
0.47981562
-0.16840743
0.66048595
-0.49207852
1.1647877
0.44040599
-1.6051937
1.2118217
0.30147259
-1.5132942
0.19143486
-0.26070474
-0.29297871
0.22351048
0.54419379
1.0046264
-1.5488202
-0.54170791
-0.57902418
1.1207321
-1.1497209
0.51057064
0.63915027
-0.25004394
0.60352823
-0.35348429
0.55175133
-0.038880552
-0.51287077
1.09962
-1.1396292
0.04000917
0.070846642
0.2599869
-0.33083354
0.17579532
-0.25545406
0.079658741
0.94117424
-0.34246433
-0.59870991
-0.1656241
-0.16636667
-1.1548283
0.61312043
-1.4218493
1.4085551
0.013294249
0.10903776
1.2784869
-1.3875246
0.0055268888
-0.84973688
0.84420999
0.69821403
0.21231875
-0.91053278
-0.60607747
-0.91243583
1.5185133
0.95731577
-0.31698288
-0.64033289
0.21701599
0.96488431
-1.1819003
-0.34563654
0.83838096
-0.49274442
1.0414529
-0.34323885
0.30417937
-0.21755012
-0.086629245
-0.027162767
1.2550266
-1.2278638
0.96357432
0.0030152547
-0.96658958
0.15716361
-0.91966758
0.76250397
1.326829
-1.1175434
-0.20928557
1.1286313
-1.1968371
0.068205844
-0.7202731
0.87743671
0.84017339
-0.48909909
-0.35107429
-1.2970295
0.25553268
1.0414968
0.38347069
-0.54986113
0.16639044
1.2852071
-0.56469493
-0.7205122
1.1647877
-0.34947786
0.84480066
-0.4953228
1.2118217
-0.1309168
0.56093545
-0.43001866
-0.28498995
1.0017843
-0.71679436
-1.4703564
0.62502345
0.84533294
-1.1647877
1.7485516
-0.58376393
-1.2118217
1.763815
-0.55199332
0.47860581
-0.083128817
-0.395477
-0.58683447
0.26242467
0.3244098
0.21620311
-0.40556961
0.1893665
0.14653994
0.17387605
-0.32041599
-0.47367676
0.85722634
-0.38354958
0.10134785
0.83026608
-0.93161393
0.14617887
-0.28679081
0.14061195
-0.82384939
0.52344962
0.30039977
-1.5781507
0.17200781
1.4061429
1.2903213
-0.45894334
-0.83137799
1.1967586
0.093562707
0.83026916
0.61424489
-1.444514
0.77733704
0.65381322
-1.4311503
-0.36875935
0.75626898
-0.38750963
0.10659426
-0.6028755
0.49628124
-0.99678752
1.0343709
-0.037583341
0.6659273
-1.2081576
0.54223033
0.71346524
0.26116097
-0.97462621
-0.155036
0.93003971
-0.77500371
-1.3821551
1.0971652
-0.35327536
0.92782806
-0.57455271
0.27971295
0.27203838
-0.62829157
0.57097246
0.057319102
0.74324185
0.95743854
-1.7006804
1.3396305
-1.238283
-0.10134756
0.078150669
-0.44729567
0.74713349
-0.29983782
0.98195033
-0.46712508
-0.51482525
1.4964922
-1.3485137
-0.14797848
1.1580066
-1.0279462
-0.13006034
0.44028973
-0.60068892
0.16039919
-0.34199774
0.13259054
0.2094072
0.20408365
-0.5497202
-1.8130218
1.2860975
0.52692438
0.3479735
0.75164651
0.37056617
-1.3668373
0.99627109
-0.67481677
1.1403625
-0.46554569
-0.15683125
-0.92994127
1.0867725
0.43634853
-0.32277616
-0.11357238
0.075634969
1.2639955
0.83742193
-0.0025970199
-0.83482491
-1.1951198
0.48846461
0.70665516
0.079529449
0.55003839
-0.62956784
0.47840097
0.36177241
0.66037424
0.36472242
-1.0250967
0.68868074
-0.26126512
-0.42741562
-0.72562559
-0.80806159
0.46254224
-0.2758765
-0.11592007
-0.23244727
0.34836734
-0.43442832
0.84923046
-0.41480215
-0.46809596
1.2113378
-0.86156526
1.1454219
-0.28385667
-0.9228959
-0.27222387
-0.010732531
1.1393638
1.2401176
-1.1594632
-0.080654426
-0.76317097
-0.38654995
-1.6839975
1.1131899
0.57080757
-1.8140573
1.317446
0.49661124
0.86303269
-0.38792849
-0.4751042
0.20688016
-0.55635802
0.30796549
-0.78164225
0.0067459115
0.63575064
-0.64249655
0.46899515
-0.62403115
-0.22131845
0.60478913
0.28388339
0.65729085
1.0032039
0.49328831
0.58119359
-0.57444768
0.4354375
1.0425354
-1.4779729
1.531411
-0.8786144
-0.65279657
-0.32957075
0.72139989
-0.39182915
-0.0095547594
0.22575787
0.30919493
-0.16265498
0.1300142
0.13669503
-0.26670923
1.6360348
-1.6631976
0.12901009
0.067959815
-0.1969699
0.17504083
-0.034407815
-1.1248439
1.2113653
-0.08652141
-0.31232234
0.20720777
0.10511457
0.59102274
-0.54936247
-0.041660266
-0.84421978
0.76990557
0.074314211
0.29060068
-0.14442181
-0.052235624
0.47837348
-0.42613786
-0.72528725
1.3292094
-0.60392215
0.44988118
0.83532595
1.1902707
-0.52434343
0.51394062
0.34909208
-0.53374984
0.40283304
0.99095875
-1.14779
-0.46455314
0.34863307
0.8456377
0.39447987
0.78917916
-1.6227405
0.83356135
0.46526371
0.25327162
-0.20282288
-0.46092057
0.70392455
1.1970091
-1.1970091
-0.33858714
-0.19316865
1.0305906
0.11892171
-0.56621739
-0.058674177
0.96265396
-0.90397978
-0.61146405
1.4417332
-0.63845175
1.4157888
1.2718663
-0.72911602
-0.54275028
0.62867497
0.4582289
-0.78779965
0.89849291
-1.1797524
0.28125953
0.88555002
-0.88002314
0.13660807
-0.067492448
-1.0289145
1.096407
1.4775201
0.2489099
-1.72643
-0.82916075
1.2645983
-0.62340135
0.70893266
-0.64262081
0.72805025
-0.057607496
0.71798174
0.01227531
0.55246323
-0.56473854
-0.86552538
-0.039209289
0.90473467
0.5412133
-1.2665006
-1.3538781
1.2952039
0.90033113
0.40757817
-1.3079093
-0.11051417
-0.52176644
0.63228062
-0.56564739
1.1098412
-0.91460368
0.34295849
0.5716452
0.57100955
-0.4914801
0.13630442
-0.79554814
0.65924372
0.99740252
-1.1091232
0.11172064
0.87606076
0.39580553
-1.5160817
0.79580863
0.074588147
1.0834184
0.96576358
0.73717166
-1.3432491
-0.14831754
0.58860727
-1.053724
0.83476956
0.21895443
-1.0785171
0.96800296
0.57471902
0.72531973
-1.3000388
0.9106206
0.017207466
-0.64646258
0.782767
-0.31079152
-0.74293248
-0.17453237
-0.33625117
0.51078354
0.45547434
-0.73803563
0.28256129
0.14887291
0.43804185
-0.58691476
-1.0166618
0.25933941
0.75732241
0.16077382
1.19767
-1.3584438
-0.94419519
-0.45676997
1.4009652
0.24723307
0.7100827
-0.25191202
-0.0010001797
0.2529122
-0.95231443
-0.18731475
1.1991666
-1.0901288
1.0951674
-0.097764917
-0.78594742
-0.44938385
1.2353313
-0.68253918
-0.29624581
0.97878499
-0.12043288
0.47634163
-0.35590875
-0.051826605
0.88659616
-0.43002273
-0.51979708
0.94981981
0.55850784
0.00469167
-0.56319951
-0.79419171
0.72514888
0.069042823
-0.99910947
0.55640862
0.44270085
-0.88787479
0.57708328
0.57448181
-1.153506
1.4775201
0.17574741
0.39312689
-0.56887429
1.4531565
-1.161843
-0.29131357
-1.0758502
1.1902843
-0.47681903
-0.8813396
-0.24350434
0.051163732
-0.84046926
0.78930553
-1.0748525
1.2356263
0.57498489
-1.118636
0.54365112
0.54806767
0.73981449
-1.2878822
-0.68117723
0.5347831
-0.70931547
0.34218721
-0.39442283
-1.1676842
-0.51631334
1.044464
-0.11442427
1.0818235
-0.8935608
-0.1882627
0.87397181
0.71947135
-1.5934432
0.20586002
-0.69495911
-0.0089121509
0.18974101
-0.18082885
-0.41502141
0.59076882
-0.51235364
1.3863254
-1.3783856
1.3656756
0.012710001
-0.13971659
0.61809008
0.030723263
-0.28263528
0.37708809
-0.38868577
0.01159768
0.29199501
-1.3892469
1.0972519
-0.46544825
-0.035259872
0.50070812
-0.1385598
-0.7016675
0.8402273
0.61863793
0.29198267
0.25370092
1.0992188
-1.3529197
-0.62190518
0.28565401
1.0298546
0.23141178
-1.2612664
0.02927992
1.1683901
0.58069447
0.46075842
1.325549
-0.2622444
-1.0633046
-0.50268035
-0.12561122
-1.1672367
0.38152617
0.7857105
0.11488753
-0.5886059
0.47371836
-0.82032057
0.81667793
0.0036426464
-0.19200007
1.1555744
1.1640846
-1.7319757
0.56789108
0.63020307
0.3173814
-0.94758447
-0.4523013
-0.042092115
0.49439341
-0.13131524
-0.35875531
0.49007054
0.44050257
0.081006311
1.3721502
-0.47439953
1.0493844
0.36350088
-0.18770556
0.90487056
0.23258062
-1.1374512
0.46654305
-0.45426774
-0.82946916
0.39944642
1.5055062
-0.12508559
1.2689392
-1.1438536
0.11783233
-1.2353757
-1.4388184
0.81236086
0.62645758
1.4397062
-0.42024966
-0.75950278
-1.0827768
-0.21425274
-0.84345089
1.1046119
-0.57645704
-0.69048853
1.1854272
-0.96841116
-1.1220565
1.2316083
-0.10955185
-0.84260599
0.88261516
-0.39398599
-0.40020571
0.11367556
0.96814795
-0.031501638
-0.81271814
-0.57509051
-0.33951317
-0.18322297
1.2486866
-1.0654636
-0.4829416
0.59782914
-0.89328088
0.92842757
-0.035146682
0.0027251733
-1.195533
1.1928078
0.92391373
-0.075683298
-0.84823042
0.50846493
-0.52343042
0.014965494
1.0145897
-1.150523
0.13593329
0.077484816
0.8991081
-0.97659292
0.72676966
-0.61209417
-0.11467549
-0.45195311
0.29741363
0.15453948
0.17331193
-0.33893603
-0.0042374242
-0.93995777
-0.092593824
-0.9041937
-1.1662597
1.2466266
-1.2439014
-0.57717781
-0.24667158
-0.35845795
0.15745415
0.2010038
0.72603077
-0.61717093
-0.10885984
0.21450115
-1.060028
0.84552683
0.0020713239
0.37501676
-0.43282413
-0.032624118
0.65561347
-0.036975537
-0.67555175
-0.94718876
0.77285833
-0.20188586
0.31539933
-1.6360348
1.3206355
1.0634172
-0.59385785
-0.4695593
-0.12960824
-0.69859364
0.82820188
-0.64599244
0.32900956