/*--------------------------------*- C++ -*----------------------------------*\
| =========                 |                                                 |
| \\      /  F ield         | foam-extend: Open Source CFD                    |
|  \\    /   O peration     | Version:     4.1                                |
|   \\  /    A nd           | Web:         http://www.foam-extend.org         |
|    \\/     M anipulation  |                                                 |
\*---------------------------------------------------------------------------*/
FoamFile
{
    version     2.0;
    format      ascii;
    class       volVectorField;
    location    "0.7";
    object      U;
}
// * * * * * * * * * * * * * * * * * * * * * * * * * * * * * * * * * * * * * //

dimensions      [0 1 -1 0 0 0 0];

internalField   nonuniform List<vector> 
4242
(
(163.52089 167.54426 3.5568831e-15)
(178.63088 147.00358 1.0572219e-17)
(173.68198 146.45601 -1.844391e-15)
(174.00866 142.0107 1.4927582e-15)
(172.97062 138.34016 1.9519231e-17)
(172.07228 133.96489 8.6305202e-18)
(171.066 129.07621 0)
(169.95011 123.65753 5.1105286e-16)
(168.72813 117.69726 -8.2964859e-16)
(167.4114 111.20293 3.2680645e-16)
(166.02818 104.2079 -2.1411941e-16)
(164.62222 96.776888 1.8164938e-16)
(163.26158 89.00217 1.8570829e-17)
(162.09941 80.958085 -2.576903e-17)
(161.39209 72.747337 -5.2460685e-17)
(161.01585 64.963721 0)
(188.80586 155.4152 0)
(206.47318 127.89503 -2.2205294e-17)
(199.92109 129.89975 2.130023e-15)
(199.51899 125.81906 -1.7316742e-15)
(197.70888 122.76143 -3.094803e-17)
(196.04356 118.95596 1.0259597e-15)
(194.20159 114.76247 -4.9082765e-17)
(192.21702 110.1146 -1.2902604e-15)
(190.09397 105.00506 1.0354382e-16)
(187.84082 99.44271 4.0281739e-16)
(185.47698 93.455649 0)
(183.03311 87.097347 -3.1871036e-17)
(180.55837 80.44674 -3.4061568e-17)
(178.16078 73.569475 -1.9555026e-16)
(176.00879 66.521775 2.6955411e-16)
(173.9503 59.653502 3.5935505e-17)
(214.2361 142.28874 -6.3813676e-17)
(235.53792 104.92016 -6.9320197e-15)
(227.0126 111.37355 2.7954621e-15)
(226.15326 107.25873 -1.9069788e-17)
(223.56565 104.96545 -1.682975e-15)
(221.07635 101.84152 1.3767686e-15)
(218.29538 98.439521 -1.893794e-17)
(215.28183 94.629019 2.9796346e-17)
(212.03747 90.411724 -1.3516488e-17)
(208.57917 85.791859 -3.6194536e-17)
(204.93928 80.790942 3.773765e-16)
(201.16623 75.453221 -2.8451509e-16)
(197.32629 69.848816 -4.5746786e-16)
(193.51053 64.060457 4.0564238e-16)
(189.81191 58.206587 -5.1955708e-17)
(186.29237 52.422836 -1.4947406e-16)
(236.82494 124.07179 -1.1417807e-17)
(261.02819 74.890476 -8.8310918e-18)
(250.79057 87.085519 -1.6872486e-15)
(249.78027 82.280062 1.4221068e-15)
(246.54023 81.025252 -1.8370283e-17)
(243.377 78.736642 8.7951861e-16)
(239.80533 76.330644 -6.6999185e-16)
(235.9012 73.593831 -1.0785152e-15)
(231.65818 70.54778 6.4493631e-17)
(227.09726 67.189004 1.3841136e-15)
(222.26027 63.530201 -5.436726e-16)
(217.213 59.601139 0)
(212.046 55.450643 3.335893e-17)
(206.8626 51.152385 -2.5877456e-16)
(201.71027 46.877736 1.3191568e-16)
(196.58738 42.625663 -2.7314713e-16)
(251.61768 100.45813 1.1417807e-17)
(277.56242 38.431113 -2.3708019e-15)
(266.23998 57.439885 2.0154468e-15)
(265.28059 51.285443 -1.1762306e-17)
(261.62633 51.459932 2.9477332e-17)
(258.09252 50.081301 -8.4332644e-18)
(254.0681 48.83846 -8.5333965e-16)
(249.64779 47.370145 1.9330332e-17)
(244.81545 45.733968 5.1268189e-16)
(239.59171 43.914488 -3.9579174e-16)
(234.01997 41.913702 3.3358728e-16)
(228.17174 39.741955 0)
(222.14783 37.417938 1.9926585e-16)
(216.06621 34.965791 -1.4768367e-16)
(209.99594 32.457133 4.6960585e-17)
(203.99236 29.573269 0)
(257.11754 72.487468 -1.6478465e-15)
(282.86388 -0.42823589 6.5150587e-16)
(272.03665 24.406655 1.0469523e-15)
(270.91589 17.215399 -8.5052741e-16)
(267.21779 18.893431 1.8576746e-18)
(263.6049 18.47359 2.9404972e-16)
(259.49039 18.468191 2.3325615e-16)
(254.9618 18.359551 -1.0220868e-17)
(250.00055 18.239838 -9.4707772e-18)
(244.62419 18.082673 -3.3393095e-16)
(238.87314 17.879906 3.5196926e-16)
(232.81638 17.621477 -1.3346684e-17)
(226.55276 17.297792 -3.6390192e-17)
(220.2022 16.889775 -8.2868361e-17)
(213.8361 16.484779 -5.6494881e-20)
(207.58558 15.4997 3.8878173e-17)
(252.55131 42.743541 -8.4548323e-16)
(276.65731 -37.831839 -5.9605937e-16)
(268.07389 -9.6727241 1.544896e-15)
(266.47727 -16.654123 -8.2515693e-16)
(263.13013 -13.918509 3.4900818e-16)
(259.69615 -13.276811 3.2563136e-20)
(255.83062 -12.084164 4.3146745e-16)
(251.57294 -10.841476 -1.9564207e-16)
(246.91266 -9.4647976 -2.5212729e-17)
(241.86418 -7.9808515 9.4368059e-17)
(236.46391 -6.4076522 -1.5254717e-16)
(230.77411 -4.7742782 1.2148448e-16)
(224.88418 -3.116576 -3.4334524e-17)
(218.90263 -1.5002822 -1.4666652e-16)
(212.8934 0.17883077 5.8188557e-17)
(206.96148 1.0526707 7.5384375e-17)
(237.46634 14.047571 -1.9818259e-17)
(259.41446 -70.498979 2.3424864e-15)
(254.51765 -42.14265 -1.9535702e-15)
(252.45849 -47.5923 1.5040467e-15)
(249.72316 -44.357567 -1.2643965e-15)
(246.74818 -42.62096 0)
(243.45068 -40.34085 7.7642958e-16)
(239.82722 -37.849137 -6.2997408e-16)
(235.87556 -35.097587 -1.3306809e-17)
(231.60814 -32.109407 0)
(227.05584 -28.913421 -5.4455481e-17)
(222.27002 -25.557251 2.7211748e-17)
(217.32429 -22.10148 -1.8534585e-16)
(212.30536 -18.65838 3.5776727e-16)
(207.27839 -15.124685 -2.5623996e-16)
(202.29268 -12.370261 -7.0486185e-17)
(211.76664 -10.483839 1.4017724e-17)
(232.07311 -95.183865 -8.9235893e-18)
(231.94261 -70.16068 0)
(229.94369 -73.071456 3.0912715e-17)
(227.96951 -69.784101 1.5579775e-17)
(225.75272 -67.071701 8.7146812e-16)
(223.32779 -63.8852 -7.445352e-16)
(220.68397 -60.360228 0)
(217.82376 -56.477053 3.7870326e-18)
(214.75717 -52.257146 -3.8081355e-17)
(211.50598 -47.738483 3.4096432e-17)
(208.10498 -42.98247 1.9270286e-17)
(204.60516 -38.065191 3.9852627e-17)
(201.0625 -33.122874 2.4509078e-16)
(197.54121 -28.081181 -2.9604431e-16)
(194.03141 -23.687501 1.6659192e-16)
(175.27486 -27.164519 0)
(195.44694 -108.0759 3.7393388e-15)
(200.94227 -90.494367 -5.8311407e-15)
(200.30179 -90.647606 2.294324e-15)
(199.34204 -87.553622 -1.544432e-17)
(198.20125 -84.186719 -4.3883418e-17)
(196.94656 -80.374905 1.1164316e-15)
(195.59536 -76.163938 -9.1136418e-16)
(194.16127 -71.542117 -6.1197969e-16)
(192.65198 -66.529317 5.7112945e-16)
(191.07558 -61.16868 0)
(189.4423 -55.528137 -3.5422343e-16)
(187.76817 -49.688846 2.0615388e-16)
(186.06116 -43.781781 0)
(184.34871 -37.755182 0)
(182.57698 -32.026386 0)
(130.17806 -33.007107 1.1806063e-14)
(153.3856 -108.49053 -3.2000724e-15)
(164.53534 -100.50954 0)
(167.145 -99.186321 -1.1358193e-17)
(167.96335 -96.476288 -1.2854096e-15)
(168.2872 -92.943505 1.1013612e-15)
(168.40486 -88.867664 7.8694264e-16)
(168.44478 -84.360227 -1.8115944e-17)
(168.48357 -79.432068 -5.7001454e-16)
(168.55495 -74.1075 2.9310491e-17)
(168.66698 -68.437962 0)
(168.80996 -62.501144 -4.6738765e-16)
(168.96111 -56.389883 9.0638519e-17)
(169.06931 -50.238513 3.005348e-16)
(169.07541 -44.082189 0)
(169.393 -37.182227 3.3365741e-17)
(39.321224 9.5163808 5.1666817e-17)
(73.026073 -59.904606 4.8408462e-15)
(99.10446 -75.432819 -1.6506226e-15)
(112.75469 -81.519737 -1.197127e-15)
(119.83624 -83.328981 9.5510661e-16)
(124.41411 -82.70793 -7.5475981e-16)
(128.06384 -80.644349 6.2710576e-16)
(131.37144 -77.693586 4.4661364e-16)
(134.60904 -74.114597 -4.0441367e-16)
(137.89215 -70.036591 0)
(141.23063 -65.548643 0)
(144.56481 -60.734335 0)
(147.79613 -55.676682 2.6303164e-17)
(150.80163 -50.480047 0)
(153.3964 -45.335031 1.6018771e-16)
(156.11915 -39.226315 -2.9457241e-16)
(104.31818 -148.56652 1.1344834e-15)
(130.05309 -143.24958 8.8185489e-19)
(132.64432 -149.68742 -5.6380869e-16)
(132.5977 -145.76629 4.415162e-16)
(132.51179 -141.98632 5.2640078e-19)
(132.45417 -137.61192 9.2603535e-18)
(132.45863 -132.64747 0)
(132.55391 -127.05776 8.4372437e-17)
(132.76164 -120.81586 -1.0234312e-16)
(133.10797 -113.9303 4.1262383e-17)
(133.61449 -106.44693 -7.2333516e-18)
(134.29344 -98.449368 6.0849828e-18)
(135.16625 -90.04608 -2.2357715e-17)
(136.28772 -81.345253 1.0086069e-17)
(137.59324 -72.549986 1.1008095e-17)
(138.53879 -64.377224 0)
(82.581112 -142.28339 0)
(93.918772 -133.24834 2.7121786e-18)
(93.166585 -131.56344 -3.2608565e-16)
(94.211651 -128.60931 2.5582853e-16)
(95.413075 -125.34235 3.277043e-18)
(96.88027 -121.63399 -2.1788882e-16)
(98.623753 -117.43986 -1.5863853e-17)
(100.65493 -112.72487 3.2774293e-16)
(102.98062 -107.46627 -7.7591262e-18)
(105.59948 -101.65823 -1.2395286e-16)
(108.49757 -95.317926 0)
(111.64653 -88.490393 1.7649482e-17)
(115.01381 -81.244016 1.0564953e-17)
(118.57706 -73.656074 1.2432967e-16)
(122.26843 -65.833762 -1.6572565e-16)
(125.78145 -58.069691 -2.9457418e-17)
(54.339459 -122.55962 -1.5064806e-17)
(61.679949 -116.87838 3.2684617e-15)
(62.330285 -114.62916 -1.2490022e-15)
(63.933544 -111.89483 9.8966661e-18)
(65.873385 -108.8716 7.928752e-16)
(68.180152 -105.48796 -6.2445051e-16)
(70.878476 -101.69584 1.0216747e-17)
(73.990371 -97.459645 -1.6629315e-17)
(77.530904 -92.757022 2.3395474e-18)
(81.502546 -87.582887 2.2112868e-17)
(85.88909 -81.954492 -2.374444e-16)
(90.655084 -75.914181 1.7891533e-16)
(95.761375 -69.52504 3.3197654e-16)
(101.18105 -62.866468 -2.9469796e-16)
(106.82001 -56.067968 3.89781e-17)
(112.2653 -49.403608 1.3515353e-16)
(30.463939 -95.184391 9.3708247e-18)
(34.579047 -91.371807 6.7247622e-18)
(36.111353 -89.079876 1.1445611e-15)
(38.226122 -86.704088 -8.916259e-16)
(40.811535 -84.15138 1.183411e-17)
(43.879517 -81.357449 -5.5123175e-16)
(47.458137 -78.27912 4.0431073e-16)
(51.572878 -74.887151 6.9253489e-16)
(56.238701 -71.164524 -1.256908e-17)
(61.451721 -67.107996 -9.1928512e-16)
(67.181467 -62.730669 3.6542453e-16)
(73.372361 -58.062311 0)
(79.962984 -53.145435 -2.4794135e-17)
(86.891423 -48.037115 2.1188145e-16)
(93.97958 -42.841753 -1.0700281e-16)
(100.68615 -37.749609 2.5085024e-16)
(13.846545 -63.976389 -1.1893921e-17)
(15.779605 -60.222775 2.2972207e-15)
(17.789254 -57.739952 -1.6586617e-15)
(20.302986 -55.563751 8.7632855e-18)
(23.361722 -53.451482 -2.0987843e-17)
(26.988003 -51.302863 5.872819e-18)
(31.215879 -49.064611 6.0344039e-16)
(36.077302 -46.705964 6.2437033e-18)
(41.592033 -44.209803 -3.4963594e-16)
(47.7577 -41.569314 2.882862e-16)
(54.54229 -38.786619 -2.3672434e-16)
(61.889802 -35.869932 0)
(69.743075 -32.827732 -1.5852187e-16)
(78.028825 -29.666016 1.1632736e-16)
(86.454939 -26.420057 -3.9990339e-17)
(94.160307 -23.243311 0)
(214.37209 -142.34452 0)
(235.67023 -104.98041 3.4402082e-15)
(227.16673 -111.43051 -5.5223839e-15)
(226.32301 -107.32982 2.2421213e-15)
(223.7634 -105.04594 1.5151193e-17)
(221.30196 -101.93506 4.8053668e-18)
(218.54633 -98.544172 1.0339853e-15)
(215.54869 -94.741033 -8.7699738e-16)
(212.30312 -90.523862 -6.2723768e-16)
(208.81865 -85.893701 4.7220041e-16)
(205.12315 -80.869756 0)
(201.26887 -75.497632 -2.4327596e-16)
(197.33971 -69.855999 1.9153995e-16)
(193.46208 -64.038122 0)
(189.77915 -58.147175 0)
(186.35691 -52.313775 0)
(5.3712075 -37.889018 2.5017071e-15)
(6.6322458 -32.632139 -7.3128133e-16)
(9.2826744 -29.474741 -9.846396e-16)
(12.459159 -27.047222 7.1273291e-16)
(16.126912 -24.979761 6.7046398e-18)
(20.305948 -23.120047 -2.1501037e-16)
(25.024659 -21.390188 -1.724493e-16)
(30.307812 -19.744185 2.0094195e-18)
(36.169629 -18.151345 2.2041949e-18)
(42.607365 -16.588669 2.4740017e-16)
(49.595233 -15.040409 -2.6464311e-16)
(57.081111 -13.489509 4.6837119e-18)
(64.987798 -11.917256 2.499757e-17)
(73.209771 -10.298026 6.712653e-17)
(81.581712 -8.5999498 4.8884232e-20)
(89.80818 -6.8499182 -3.6754028e-17)
(5.4332782 37.677499 1.2351819e-15)
(6.7132178 32.321086 7.2271642e-16)
(9.3994386 29.192532 -1.4649056e-15)
(12.620798 26.820507 7.06461e-16)
(16.336601 24.817027 -2.7526724e-16)
(20.564493 23.022872 -2.5137598e-20)
(25.330388 21.355938 -3.3203791e-16)
(30.655982 19.766842 1.3971624e-16)
(36.551824 18.221947 1.4794363e-17)
(43.011223 16.695949 -7.8845888e-17)
(50.005162 15.17187 1.1772372e-16)
(57.480076 13.633094 -1.0224616e-16)
(65.358685 12.063323 2.4884144e-17)
(73.530601 10.442456 1.2947302e-16)
(81.808319 8.7532423 -5.2203305e-17)
(89.859049 7.0582936 -7.4411122e-17)
(13.911854 64.169865 1.8573652e-17)
(15.845455 60.451961 -2.3072533e-15)
(17.882613 58.001515 1.6526265e-15)
(20.426495 55.844745 -1.2213224e-15)
(23.51425 53.739624 9.5213201e-16)
(27.167109 51.586616 0)
(31.417509 49.333004 -5.8207411e-16)
(36.295472 46.948414 4.5477914e-16)
(41.818424 44.41596 9.2938935e-18)
(47.981164 41.728836 0)
(54.748777 38.888818 4.1443246e-17)
(62.06341 35.90316 -2.1187261e-17)
(69.866442 32.777648 1.5483156e-16)
(78.074572 29.509688 -3.0643402e-16)
(86.366022 26.113952 2.1990957e-16)
(93.871677 22.726713 6.4496191e-17)
(30.546069 95.539132 -9.3470378e-18)
(34.675919 91.753509 6.7114294e-18)
(36.215374 89.478008 0)
(38.326708 87.103714 -1.8753069e-17)
(40.900668 84.539141 -8.7404683e-18)
(43.949003 81.72143 -5.4980554e-16)
(47.498777 78.608364 4.5545561e-16)
(51.574112 75.171431 0)
(56.188204 71.39433 -4.4381239e-18)
(61.334399 67.274802 2.3812399e-17)
(66.978089 62.827523 -2.460976e-17)
(73.062744 58.083396 -1.1451386e-17)
(79.543729 53.079718 -3.1033218e-17)
(86.397006 47.851895 -1.9693543e-16)
(93.41584 42.481874 2.4004279e-16)
(99.76857 37.255428 -1.4022781e-16)
(54.37216 122.81127 0)
(61.759079 117.12711 -1.64232e-15)
(62.397119 114.88606 2.5026416e-15)
(63.978149 112.14522 -9.6794588e-16)
(65.884949 109.10352 7.8413173e-18)
(68.147409 105.6905 1.9345187e-17)
(70.78957 101.85865 -5.357496e-16)
(73.833073 97.572982 4.2821083e-16)
(77.293252 92.81222 3.2496447e-16)
(81.173132 87.573762 -3.0116805e-16)
(85.456707 81.880183 0)
(90.115017 75.780457 2.2193168e-16)
(95.148278 69.335186 -1.3030974e-16)
(100.61904 62.608915 0)
(106.42482 55.790308 0)
(111.62707 49.49947 0)
(82.537957 142.37453 -8.7395371e-16)
(93.94278 133.31222 3.4300949e-16)
(93.168238 131.63281 0)
(94.191399 128.66451 -6.0006894e-19)
(95.360325 125.3735 2.4666674e-16)
(96.785551 121.63179 -2.0423976e-16)
(98.478657 117.39589 -1.9190918e-16)
(100.45327 112.63214 -1.4005178e-17)
(102.72064 107.32029 1.5520522e-16)
(105.2868 101.45907 -1.266175e-17)
(108.14915 95.073468 0)
(111.29961 88.2181 1.9499285e-16)
(114.746 80.968296 -2.8115729e-17)
(118.51523 73.420103 -1.369993e-16)
(122.52369 65.765197 0)
(126.4491 58.332251 -1.3809396e-17)
(104.13018 148.4872 4.2118814e-17)
(129.9997 143.17599 1.6499082e-15)
(132.58859 149.66294 -6.0796783e-16)
(132.52412 145.72161 -3.9901581e-16)
(132.41376 141.92169 3.175379e-16)
(132.32525 137.52083 -1.9532941e-16)
(132.29428 132.52526 1.4474364e-16)
(132.35306 126.90271 8.4755247e-17)
(132.52884 120.63051 -8.3575188e-17)
(132.85627 113.72343 0)
(133.36839 106.23644 0)
(134.09209 98.26429 0)
(135.06636 89.926128 1.111514e-17)
(136.35493 81.341499 0)
(137.85967 72.715742 -3.1968371e-17)
(138.8872 64.682263 7.4615962e-17)
(39.258226 -9.5984842 5.5717963e-15)
(72.987587 59.84247 1.1376658e-17)
(99.088181 75.408844 -1.6147119e-15)
(112.76984 81.518859 1.2446219e-15)
(119.88047 83.349892 1.7945989e-17)
(124.4857 82.750529 6.282131e-18)
(128.16205 80.70809 0)
(131.49373 77.776469 4.6487093e-16)
(134.74892 74.212053 -7.7166792e-16)
(138.03751 70.140573 3.0966902e-16)
(141.36275 65.64758 -2.2695242e-16)
(144.65878 60.814793 1.9253878e-16)
(147.82407 55.725381 1.6023338e-17)
(150.72989 50.502836 -3.2557062e-17)
(153.25067 45.249262 -8.3026028e-17)
(156.26891 38.3552 0)
(130.19843 32.977362 0)
(153.41709 108.47569 -2.4706261e-17)
(164.58541 100.52877 2.2223996e-15)
(167.21677 99.210929 -1.7298154e-15)
(168.05602 96.512421 -2.9797819e-17)
(168.4025 92.992162 1.0258955e-15)
(168.54336 88.928572 -3.9303995e-17)
(168.60355 84.430995 -1.3114082e-15)
(168.65465 79.507465 9.6882243e-17)
(168.7245 74.178906 4.1953506e-16)
(168.81578 68.493637 0)
(168.91659 62.52743 -3.5185064e-17)
(169.00991 56.37056 -3.9823146e-17)
(169.0559 50.16285 -2.3934701e-16)
(169.04941 43.85721 3.3364378e-16)
(169.00272 37.534226 4.5111601e-17)
(175.34727 27.161749 -9.493881e-17)
(195.52171 108.08761 -7.5519501e-15)
(201.03398 90.529539 2.9538575e-15)
(200.41147 90.682854 -1.9584763e-17)
(199.47258 87.599167 -1.7548599e-15)
(198.35551 84.241992 1.4286493e-15)
(197.12445 80.439608 -1.9322999e-17)
(195.79221 76.235475 3.0459481e-17)
(194.36665 71.615676 -1.4231458e-17)
(192.8493 66.597798 -3.7305909e-17)
(191.24358 61.223704 4.0481587e-16)
(189.55998 55.562155 -3.0444983e-16)
(187.82417 49.696921 -5.0464521e-16)
(186.0595 43.776923 4.4739188e-16)
(184.33267 37.703148 -6.1652925e-17)
(182.48684 32.343118 -1.823857e-16)
(211.87543 10.490942 -1.4035518e-17)
(232.18092 95.206682 -8.9334838e-18)
(232.06661 70.197882 -1.7138192e-15)
(230.08331 73.108167 1.4226239e-15)
(228.13112 69.82997 -1.801196e-17)
(225.93853 67.124818 8.7216659e-16)
(223.5364 63.945655 -6.6044732e-16)
(220.90867 60.425616 -1.067063e-15)
(218.05145 56.54357 5.875926e-17)
(214.96841 52.319532 1.3714754e-15)
(211.67745 47.791105 -5.3913621e-16)
(208.21602 43.020921 0)
(204.64831 38.088113 3.4699802e-17)
(201.05058 33.142871 -2.6794275e-16)
(197.51957 28.049865 1.3706159e-16)
(194.01825 23.875736 -2.9088328e-16)
(237.59495 -14.043031 1.2875941e-17)
(259.54093 70.517697 -2.327617e-15)
(254.661 42.170951 1.9556249e-15)
(252.61704 47.620048 -1.1396519e-17)
(249.90531 44.392871 2.81476e-17)
(246.95491 42.661111 -7.8971931e-18)
(243.67943 40.386551 -8.0214985e-16)
(240.06938 37.898588 1.6466105e-17)
(236.11567 35.148565 4.7830886e-16)
(231.82425 32.158998 -3.7090532e-16)
(227.22288 28.95896 3.1219035e-16)
(222.36767 25.597424 0)
(217.34842 22.138811 1.8891232e-16)
(212.27592 18.703903 -1.4054321e-16)
(207.23942 15.13401 4.6533298e-17)
(202.29273 12.600457 0)
(252.68908 -42.747342 -1.7061514e-15)
(276.79269 37.838731 6.4467667e-16)
(268.22767 9.6870568 1.0269367e-15)
(266.64656 16.66613 -8.2597957e-16)
(263.32467 13.935873 1.5747508e-18)
(259.91575 13.296017 2.8162131e-16)
(256.07193 12.10662 2.2241966e-16)
(251.82586 10.866277 -9.5685363e-18)
(247.15994 9.4915873 -8.8318428e-18)
(242.08198 8.0092105 -3.1508493e-16)
(236.62596 6.4376158 3.3149613e-16)
(230.86058 4.8067973 -1.2342202e-17)
(224.89393 3.1550229 -3.4373905e-17)
(218.86063 1.5455715 -7.7963302e-17)
(212.84192 -0.16617596 -5.2344739e-20)
(206.96371 -0.84429465 3.6786689e-17)
(257.25946 -72.502293 -8.1857137e-16)
(283.00352 0.42048565 -6.037954e-16)
(272.19614 -24.408645 1.5784565e-15)
(271.09139 -17.222479 -8.5138384e-16)
(267.41995 -18.898166 3.6277407e-16)
(263.83273 -18.480023 3.4245717e-20)
(259.74011 -18.474351 4.5322429e-16)
(255.2224 -18.365178 -2.0658502e-16)
(250.25367 -18.243266 -2.6682578e-17)
(244.84488 -18.081692 9.9958905e-17)
(239.03444 -17.871713 -1.6258932e-16)
(232.89895 -17.602943 1.2926072e-16)
(226.55757 -17.26666 -3.6433579e-17)
(220.15667 -16.855161 -1.5626587e-16)
(213.78529 -16.466298 6.199367e-17)
(207.60048 -15.318382 7.9114547e-17)
(251.76107 -100.48571 -1.772579e-17)
(277.70412 -38.454072 2.3912992e-15)
(266.40204 -57.459605 -2.0178677e-15)
(265.45934 -51.312753 1.5737838e-15)
(261.83254 -51.488897 -1.3352122e-15)
(258.32503 -50.115613 0)
(254.32295 -48.876016 8.2714104e-16)
(249.91368 -47.409316 -6.7462175e-16)
(245.07364 -45.771115 -1.3629559e-17)
(239.81681 -43.944751 0)
(234.18477 -41.931412 -5.7773347e-17)
(228.25708 -39.742049 2.8431338e-17)
(222.15503 -37.400615 -1.9458115e-16)
(216.02331 -34.945079 3.7660361e-16)
(209.95584 -32.430208 -2.6645939e-16)
(204.01648 -29.445324 -7.2308681e-17)
(236.96698 -124.11385 1.1433052e-17)
(261.16882 -74.930709 -8.8426248e-18)
(250.95193 -87.12361 0)
(249.95822 -82.329077 -7.8623648e-18)
(246.74603 -81.079865 -1.5469936e-17)
(243.60975 -78.800413 8.3129544e-16)
(240.06143 -76.401417 -7.1748289e-16)
(236.16982 -73.668705 0)
(231.92097 -70.621192 5.3288185e-17)
(227.32886 -67.253328 3.7739284e-17)
(222.43285 -63.576527 3.5018663e-17)
(217.30572 -59.622087 -7.1172394e-17)
(212.05757 -55.44705 4.0480744e-17)
(206.82143 -51.137255 2.4003088e-16)
(201.67995 -46.842605 -2.8539132e-16)
(196.6281 -42.524551 1.6073323e-16)
(188.92426 -155.47966 7.4957169e-15)
(206.58307 -127.97211 -2.8467783e-15)
(200.05411 -129.97125 0)
(199.66607 -125.90666 -1.2231588e-17)
(197.88403 -122.86126 -1.2919424e-15)
(196.24806 -119.07214 1.1149864e-15)
(194.43484 -114.89408 7.7926546e-16)
(192.47213 -110.25824 -2.6361198e-17)
(190.35628 -105.15317 -5.5697408e-16)
(188.08646 -99.58351 2.7563925e-17)
(185.67413 -93.573457 0)
(183.14822 -87.175506 -4.1491927e-16)
(180.57178 -80.473139 9.2648361e-17)
(178.09394 -73.537728 2.570517e-16)
(175.94637 -66.415886 0)
(173.9658 -59.475736 2.3076196e-17)
(163.6163 -167.59034 3.6812243e-17)
(178.70113 -147.07929 4.9817254e-15)
(173.77873 -146.52061 -1.9117057e-15)
(174.11777 -142.09219 -1.4203155e-15)
(173.10826 -138.4356 1.1506026e-15)
(172.24181 -134.07929 -8.7896842e-16)
(171.26935 -129.21067 7.2685516e-16)
(170.18375 -123.8108 4.9290509e-16)
(168.98106 -117.86372 -4.4455286e-16)
(167.66234 -111.37217 0)
(166.24433 -104.36358 0)
(164.76239 -96.897627 0)
(163.29032 -89.065996 1.7332962e-17)
(162.01725 -80.953366 0)
(161.26498 -72.689108 1.0471339e-16)
(160.9627 -64.832116 -1.7816078e-16)
(-39.676653 61.795616 1.0894993e-15)
(19.936381 -13.534973 2.0483006e-18)
(47.154939 -35.75063 -2.1362103e-16)
(66.219412 -47.500436 1.4143884e-16)
(80.586651 -53.585326 1.9545698e-18)
(91.682555 -56.195478 5.0393375e-18)
(100.4492 -56.725424 0)
(107.60027 -56.036821 7.3428724e-17)
(113.6311 -54.648312 -1.2724194e-16)
(118.86821 -52.871531 6.1344735e-17)
(123.53068 -50.879807 -6.6012715e-17)
(127.75841 -48.739187 5.743526e-17)
(131.63061 -46.432881 -8.6671364e-18)
(135.21223 -43.880628 -1.1066688e-17)
(138.44143 -41.112213 -4.6908586e-17)
(141.9338 -37.678863 0)
(-18.643172 46.058433 0)
(-24.082665 37.167299 -7.1278235e-18)
(-3.7947208 16.166139 5.2906135e-16)
(17.670599 -4.3965372 -3.3300444e-16)
(38.917176 -22.933756 -4.6703881e-18)
(56.546805 -35.07834 1.5105295e-16)
(71.435925 -42.467563 1.3270831e-18)
(84.019591 -46.67379 -1.7944881e-16)
(94.496787 -48.750752 6.190079e-18)
(103.14989 -49.363583 6.3718625e-17)
(110.28596 -48.961283 0)
(116.13097 -47.827947 -5.5275229e-18)
(120.87902 -46.113828 -1.1794534e-17)
(124.78456 -43.858204 -5.8473459e-17)
(128.08718 -41.102605 8.6959645e-17)
(131.50919 -37.570154 7.996589e-18)
(-17.117164 53.494895 -1.0730405e-17)
(-23.549342 43.936347 -2.4987223e-15)
(-19.872741 41.314173 1.0788601e-15)
(-17.234833 39.808097 -6.4787299e-18)
(-14.589482 38.80182 -5.5253535e-16)
(-1.382265 24.941201 3.4501354e-16)
(15.595298 7.3474051 -3.7351036e-18)
(34.366676 -10.23451 5.1914567e-18)
(52.058996 -23.71701 -3.0966761e-18)
(67.654826 -32.73026 -5.4453554e-18)
(80.957019 -38.575123 5.6542442e-17)
(91.7157 -42.07203 -3.9404687e-17)
(100.01789 -43.430397 -6.9658336e-17)
(106.36448 -42.934392 6.0644388e-17)
(111.31266 -40.94346 -1.2024402e-17)
(116.35612 -37.263037 -2.6557443e-17)
(-13.656942 57.642894 -2.4578215e-18)
(-16.756755 50.035295 -2.1118127e-18)
(-15.111759 46.619631 -5.2324719e-16)
(-13.776336 43.916833 4.4981145e-16)
(-12.702036 41.491459 -5.0747051e-18)
(-11.295365 39.340649 3.1966477e-16)
(-8.7382154 37.67185 -2.310614e-16)
(-5.4193093 36.019532 -3.8314092e-16)
(4.9816376 25.835654 -9.5254263e-18)
(20.599678 9.5691349 3.6671094e-16)
(38.465571 -8.0013599 -1.2676315e-16)
(51.848816 -22.042411 0)
(62.683347 -31.731383 6.1086233e-18)
(72.309149 -36.486371 -2.7746098e-17)
(80.882415 -37.375449 1.5253832e-17)
(89.76025 -34.947836 -5.6983033e-19)
(-9.3004293 54.84446 2.4578223e-18)
(-9.5352979 47.586424 -4.5907295e-16)
(-9.3294567 43.611269 3.7969781e-16)
(-9.3687852 40.528055 -2.8333472e-18)
(-9.7160319 37.774332 5.8867181e-18)
(-10.332192 35.154573 -1.1029798e-18)
(-11.176371 32.585657 -1.8927425e-16)
(-12.18063 29.924839 -1.2142307e-17)
(-13.355434 26.757159 1.2340357e-16)
(-15.275623 21.956829 -1.4038111e-16)
(-15.693366 13.559671 1.5194865e-16)
(20.199144 -11.521128 0)
(20.827786 -21.499287 3.9682432e-17)
(28.33227 -27.364186 -2.3961697e-17)
(38.185383 -29.516321 1.9759473e-18)
(50.624828 -28.162423 0)
(-6.3921905 40.101333 -6.3883981e-17)
(-7.1154708 30.019584 1.8147736e-17)
(-9.3986017 23.854976 2.9265786e-17)
(-12.017029 18.998902 -2.4020318e-17)
(-14.862742 14.759223 -1.9124422e-18)
(-17.881244 10.848696 9.5676336e-18)
(-21.006777 7.1164448 1.0666636e-17)
(-24.194436 3.4644859 1.2285575e-18)
(-27.525254 -0.18971501 1.2671414e-18)
(-31.132921 -3.9148388 -2.5785821e-17)
(-34.343733 -7.7504415 3.1065856e-17)
(-34.149643 -11.519669 -3.1873314e-18)
(-27.961667 -15.620344 -9.5759311e-18)
(-19.681633 -18.962431 -4.6246224e-18)
(-8.1586906 -20.674872 8.6468726e-21)
(13.995929 -19.820884 -1.8144943e-17)
(-6.4200103 -40.019222 -3.0490962e-17)
(-7.1489882 -29.732922 -2.0640187e-17)
(-9.4509014 -23.446027 4.2303218e-17)
(-12.097358 -18.496521 -2.3514242e-17)
(-14.978416 -14.180746 1.0398986e-17)
(-18.038389 -10.207105 1.1566001e-21)
(-21.210579 -6.4223873 2.0121708e-17)
(-24.447785 -2.7263235 -7.6922632e-18)
(-27.812779 0.96637472 -4.6783205e-19)
(-31.373264 4.717989 9.9156088e-18)
(-34.351119 8.5171613 -1.2455824e-17)
(-33.787488 12.094194 1.1026766e-17)
(-27.698879 15.73352 -9.4579484e-18)
(-19.503321 18.116268 -3.193853e-19)
(-9.1468745 18.190107 -4.1019464e-18)
(13.460172 13.026068 -2.9567349e-17)
(-9.3310778 -54.997852 -3.1139523e-18)
(-9.5400198 -47.647609 4.6708243e-16)
(-9.3353939 -43.636368 -3.8248161e-16)
(-9.3901673 -40.531179 3.1310394e-16)
(-9.7601507 -37.750033 -2.5545098e-16)
(-10.397994 -35.074822 0)
(-11.270495 -32.387184 1.859747e-16)
(-12.359558 -29.490397 -1.4627405e-16)
(-13.664067 -25.92603 -6.2730759e-18)
(-15.330852 -20.558573 0)
(-13.811023 -11.349016 -2.7278086e-17)
(18.444053 12.673675 1.3649838e-17)
(20.253542 22.63722 -4.2156623e-17)
(28.156607 28.380208 3.1954034e-17)
(38.083924 30.645458 -1.1438851e-17)
(52.483983 29.04628 8.9811691e-18)
(-13.71828 -57.887811 2.4793641e-18)
(-16.809659 -50.197549 -2.1331492e-18)
(-15.153743 -46.754539 0)
(-13.817044 -44.038498 9.760522e-18)
(-12.740677 -41.600103 5.6321536e-18)
(-11.32392 -39.41996 3.2391786e-16)
(-8.7467398 -37.689664 -2.6354561e-16)
(-5.4606524 -35.90994 0)
(5.0535825 -25.299009 1.2462508e-19)
(20.940699 -8.5680731 -1.0079761e-17)
(38.469509 8.9997349 7.5072129e-18)
(51.693882 22.896594 4.3436817e-18)
(62.445126 32.373765 5.7120364e-18)
(71.945152 36.973784 2.1725999e-17)
(80.287729 37.761365 -1.887872e-17)
(89.875085 34.891967 1.6538412e-18)
(-17.168002 -53.684976 0)
(-23.583426 -44.057115 1.2600756e-15)
(-19.898102 -41.399599 -2.1661322e-15)
(-17.237226 -39.884458 8.0974746e-16)
(-14.572987 -38.870977 -4.5344779e-18)
(-1.363978 -25.009037 -1.1000453e-17)
(15.640636 -7.3716155 2.3381402e-16)
(34.468699 10.300115 -1.6068085e-16)
(52.168115 23.844648 -9.4298747e-17)
(67.729531 32.935412 7.8004853e-17)
(80.95925 38.847446 0)
(91.631702 42.367342 -4.9953628e-17)
(99.857883 43.715902 2.5994626e-17)
(106.14109 43.166409 0)
(110.99319 41.089785 0)
(116.38316 37.050714 0)
(-18.638319 -46.116504 2.7367872e-15)
(-24.143922 -37.246008 -9.8128502e-16)
(-3.8558113 -16.229984 0)
(17.639518 4.3720043 -2.1696067e-18)
(38.92004 22.96106 -2.1964381e-16)
(56.572861 35.143102 1.5848488e-16)
(71.482825 42.564758 1.1119978e-16)
(84.084648 46.8037 5.2913374e-18)
(94.576021 48.915915 -7.9077854e-17)
(103.23626 49.563323 3.854146e-18)
(110.36631 49.185218 0)
(116.18888 48.056411 -9.8817261e-17)
(120.89934 46.320923 1.0601431e-17)
(124.7614 44.011146 7.160488e-17)
(127.93609 41.235131 0)
(131.48988 37.483138 1.3509389e-17)
(-39.930874 -62.056666 3.1708904e-17)
(19.822504 13.41083 8.9751135e-16)
(47.090035 35.679559 -2.2964572e-16)
(66.188143 47.462736 -1.3602656e-16)
(80.584707 53.578024 9.9381059e-17)
(91.708295 56.218361 -8.7593695e-17)
(100.50182 56.778539 6.5089664e-17)
(107.67866 56.1197 7.1434624e-17)
(113.73202 54.758697 -7.3998375e-17)
(118.98434 53.004232 0)
(123.64883 51.025731 0)
(127.85928 48.885567 0)
(131.69364 46.563702 2.134411e-17)
(135.22312 43.980242 0)
(138.34115 41.242581 8.2834874e-17)
(142.57368 37.197934 -1.5823721e-16)
(129.0102 144.69103 0)
(132.79236 150.70273 0)
(134.02471 146.29531 0)
(134.42726 142.72824 2.1877443e-18)
(134.95115 138.53784 -1.6611956e-17)
(135.57163 133.72436 2.0934721e-17)
(136.30876 128.28383 0)
(137.17046 122.17939 -4.2012444e-18)
(138.16084 115.40599 0)
(139.278 108.00799 0)
(140.51092 100.07502 0)
(141.85552 91.733452 1.0640622e-17)
(143.35853 83.106681 0)
(145.04319 74.3994 2.3472927e-17)
(146.60896 66.45254 0)
(129.0724 -144.75931 0)
(132.85133 -150.72627 0)
(134.0983 -146.34146 0)
(134.52613 -142.7937 2.1920198e-18)
(135.08087 -138.62962 -1.5574193e-17)
(135.73696 -133.84667 2.3179167e-17)
(136.51025 -128.43855 0)
(137.40251 -122.36264 4.1985535e-18)
(138.40842 -115.60758 0)
(139.51329 -108.20819 0)
(140.69118 -100.24292 0)
(141.92715 -91.828224 -1.0631865e-17)
(143.28092 -83.086308 0)
(144.82903 -74.281855 9.150906e-18)
(146.45375 -66.406188 0)
(71.976854 55.948682 0)
(98.301319 72.840889 0)
(110.6388 79.936536 0)
(117.32384 81.625191 2.09404e-18)
(121.61407 80.653196 -1.5720009e-17)
(124.85242 78.302369 2.0136902e-17)
(127.69305 75.138048 0)
(130.47648 71.42588 -4.2880241e-18)
(133.35345 67.320614 0)
(136.35211 62.931669 0)
(139.41874 58.348946 0)
(142.45375 53.645146 7.9925721e-18)
(145.3374 48.902384 0)
(147.78344 44.39176 5.1880975e-17)
(150.78541 38.56346 0)
(72.022228 -56.010437 0)
(98.320145 -72.866978 0)
(110.62534 -79.939849 0)
(117.28227 -81.605665 2.0891423e-18)
(121.54558 -80.611199 -1.4379678e-17)
(124.7576 -78.238146 2.2642834e-17)
(127.57422 -75.052951 0)
(130.33961 -71.323644 4.2915464e-18)
(133.20981 -67.208218 0)
(136.21929 -62.819355 0)
(139.32043 -58.248557 0)
(142.4149 -53.569222 -8.0095323e-18)
(145.38956 -48.841128 0)
(148.00046 -44.287544 4.2845469e-17)
(150.79196 -39.068238 0)
(103.99546 148.98113 6.7327709e-20)
(104.18558 -149.05849 -6.7357967e-20)
(37.233941 -10.758112 5.9342281e-19)
(37.317521 10.676736 -5.8974525e-19)
(151.70471 15.029912 0)
(158.59283 0.15791512 0)
(141.36917 -25.72771 0)
(158.36128 0.15389254 0)