/*--------------------------------*- C++ -*----------------------------------*\
| =========                 |                                                 |
| \\      /  F ield         | foam-extend: Open Source CFD                    |
|  \\    /   O peration     | Version:     4.1                                |
|   \\  /    A nd           | Web:         http://www.foam-extend.org         |
|    \\/     M anipulation  |                                                 |
\*---------------------------------------------------------------------------*/
FoamFile
{
    version     2.0;
    format      ascii;
    class       volVectorField;
    location    "0.2";
    object      U;
}
// * * * * * * * * * * * * * * * * * * * * * * * * * * * * * * * * * * * * * //

dimensions      [0 1 -1 0 0 0 0];

internalField   nonuniform List<vector> 
4242
(
(109.40111 104.356 3.4694854e-15)
(164.49172 146.84495 1.0252108e-17)
(173.58414 148.53964 -1.7509272e-15)
(173.21149 145.73946 1.4051474e-15)
(172.50574 141.92087 1.8516252e-17)
(171.62933 137.69586 7.8412444e-18)
(170.63874 132.97093 0)
(169.51888 127.73894 4.6041137e-16)
(168.26919 122.00716 -7.4091898e-16)
(166.90501 115.78172 2.8842023e-16)
(165.45863 109.09434 -1.7943187e-16)
(163.98395 102.00302 1.5185783e-16)
(162.5644 94.590408 1.790233e-17)
(161.38607 86.932858 -1.9621178e-17)
(160.73586 79.108584 -3.172226e-17)
(160.64474 71.831973 0)
(114.83794 84.077783 0)
(186.13171 128.4879 -2.1489003e-17)
(198.24766 130.2128 2.0404168e-15)
(197.55525 128.18779 -1.6699946e-15)
(196.08227 125.132 -2.941004e-17)
(194.35036 121.72401 9.7767743e-16)
(192.46346 117.87815 -5.3629659e-17)
(190.42431 113.60219 -1.2110519e-15)
(188.24509 108.8952 1.0160707e-16)
(185.94482 103.76428 3.6951485e-16)
(183.55336 98.237575 0)
(181.11608 92.361934 -2.7739526e-17)
(178.70039 86.206586 -2.7834225e-17)
(176.45052 79.829519 -1.5488655e-16)
(174.63305 73.32618 2.0980863e-16)
(173.09045 66.941376 2.7032768e-17)
(122.70429 66.723842 -4.0457928e-17)
(206.59215 107.97276 -6.616592e-15)
(223.53711 109.87252 2.633531e-15)
(222.57888 108.74321 -1.7634675e-17)
(220.27248 106.46717 -1.6020949e-15)
(217.61878 103.91861 1.31909e-15)
(214.73603 101.01767 -1.7572262e-17)
(211.624 97.775831 2.7494607e-17)
(208.30674 94.179257 -1.3215814e-17)
(204.81975 90.221069 -3.2778918e-17)
(201.21527 85.91048 3.4000762e-16)
(197.56567 81.27248 -2.5581857e-16)
(193.96398 76.353893 -3.9421015e-16)
(190.53827 71.209668 3.4716899e-16)
(187.44653 65.963995 -4.1613041e-17)
(184.78072 60.82347 -1.1461013e-16)
(122.49619 46.383948 -1.2459497e-17)
(215.52254 80.789234 -7.6284953e-18)
(239.10004 82.837307 -1.4270667e-15)
(239.97878 83.029706 1.2442914e-15)
(237.61496 81.897883 -1.6106591e-17)
(234.62486 80.502054 8.194981e-16)
(231.28402 78.849232 -6.3621329e-16)
(227.66016 76.987788 -1.0167163e-15)
(223.76357 74.87888 6.4619531e-17)
(219.62181 72.493543 1.2838674e-15)
(215.29505 69.817832 -4.9963664e-16)
(210.86868 66.845562 0)
(206.45392 63.585735 2.9679838e-17)
(202.18857 60.054732 -2.2415739e-16)
(198.17183 56.384556 1.133259e-16)
(194.35619 52.807604 -2.2575223e-16)
(110.48137 25.728916 1.3192811e-17)
(210.08909 50.722518 -1.9771908e-15)
(242.20227 52.633641 1.4841334e-15)
(247.53247 54.106924 -8.8207914e-18)
(246.2463 54.43025 2.1788423e-17)
(243.3951 54.327512 -6.0444496e-18)
(240.00307 54.031936 -6.5088549e-16)
(236.28898 53.640143 1.5977827e-17)
(232.29691 53.121439 4.01982e-16)
(228.05317 52.43817 -3.1341603e-16)
(223.60898 51.549234 2.675099e-16)
(219.04085 50.409314 0)
(214.44924 48.981483 1.6268523e-16)
(209.96362 47.2154 -1.2220374e-16)
(205.67646 45.101705 3.9385812e-17)
(201.51342 42.787653 0)
(80.458119 7.9186167 -1.8829682e-15)
(180.47249 21.915423 5.0405364e-16)
(223.44146 23.172807 6.669422e-16)
(237.8308 25.596675 -5.097077e-16)
(241.07846 27.701342 7.4516235e-19)
(240.25235 29.226221 1.7490548e-16)
(237.93307 30.42176 1.4118922e-16)
(235.0175 31.484172 -5.9262813e-18)
(231.78628 32.448988 -5.5184967e-18)
(228.32006 33.300687 -2.1254934e-16)
(224.66176 33.994045 2.2794951e-16)
(220.86104 34.461635 -7.9156519e-18)
(216.98545 34.63316 -2.3981051e-17)
(213.12693 34.427144 -5.675555e-17)
(209.35825 33.768679 -3.9839514e-20)
(205.57859 32.795351 2.8558129e-17)
(22.212682 -0.23371723 -9.5675227e-16)
(118.94183 2.4663391 -4.5633085e-16)
(174.71851 1.7817601 8.4516696e-16)
(204.12846 3.521181 -4.0294057e-16)
(218.54409 6.4928466 1.6263818e-16)
(224.67493 9.4689889 1.6352114e-20)
(226.47028 12.12375 2.0748069e-16)
(226.08538 14.484207 -9.5063923e-17)
(224.62682 16.59986 -1.1463705e-17)
(222.63204 18.50509 5.2548043e-17)
(220.34707 20.206583 -8.5297658e-17)
(217.88347 21.670869 7.2640431e-17)
(215.30171 22.833 -1.9234683e-17)
(212.65337 23.60601 -9.5126067e-17)
(209.96766 23.871803 3.8997621e-17)
(207.10993 23.664279 5.5392901e-17)
(-53.121851 10.301284 -1.9703338e-17)
(15.683681 2.6432697 2.0750459e-15)
(89.796518 -4.4565093 -1.11077e-15)
(137.56354 -6.6456683 6.7660136e-16)
(169.14803 -5.9070441 -5.0359243e-16)
(189.30225 -3.5711328 0)
(201.47415 -0.50517822 3.0451348e-16)
(208.296 2.7531226 -2.5000364e-16)
(211.67884 5.8766492 -5.0062356e-18)
(212.95211 8.6971442 0)
(213.00431 11.139709 -2.6711685e-17)
(212.38969 13.172484 1.4306107e-17)
(211.41989 14.764712 -1.0784626e-16)
(210.24636 15.870526 2.2179508e-16)
(208.90537 16.404246 -1.6839485e-16)
(207.29238 16.494809 -5.2059277e-17)
(-52.332324 17.330282 1.2162129e-17)
(-75.175671 24.668351 -1.1161456e-17)
(-30.625162 14.348967 0)
(35.238394 1.9843577 2.1005672e-17)
(87.659283 -5.3329845 7.8974798e-18)
(125.23189 -7.6832841 3.6730456e-16)
(152.83609 -7.192422 -2.8662878e-16)
(172.55719 -5.0688952 0)
(186.16836 -2.0532398 1.4593929e-18)
(195.17435 1.2932283 -1.6502518e-17)
(200.85814 4.5346215 1.5556301e-17)
(204.27624 7.3371435 1.0674015e-17)
(206.22462 9.4694823 2.1666253e-17)
(207.22577 10.804971 1.5540575e-16)
(207.55736 11.279284 -2.0385575e-16)
(207.33284 11.170692 1.2284723e-16)
(-35.161496 16.21235 0)
(-55.659521 24.974349 4.0163928e-15)
(-63.578338 28.826209 -7.3187788e-15)
(-68.842465 32.069575 3.2988735e-15)
(-25.850752 19.575792 -1.6699554e-17)
(28.038123 5.9713785 -3.5150086e-17)
(75.112373 -2.7515048 6.8594429e-16)
(110.45764 -5.5222128 -4.5827824e-16)
(137.97007 -5.0583842 -2.9890052e-16)
(159.03831 -2.866068 2.6300811e-16)
(174.97971 0.13778483 0)
(186.87082 3.1962277 -1.9734007e-16)
(195.47611 5.6815909 1.1190805e-16)
(201.37707 7.1929075 0)
(205.0927 7.549324 0)
(207.16538 7.1001367 0)
(-16.455152 8.4804895 1.0800814e-14)
(-28.767537 14.055379 -4.0474856e-15)
(-41.424469 21.833125 0)
(-53.968817 29.570168 -1.7796671e-17)
(-59.511621 33.610767 -2.176172e-15)
(-59.760461 36.20872 2.2228334e-15)
(-30.609187 26.693449 1.3049279e-15)
(14.945739 13.166758 5.0781028e-18)
(61.486716 2.3897981 -5.0806911e-16)
(98.31775 -0.48464915 1.9931192e-17)
(128.87397 0.52404424 0)
(154.2718 2.2575088 -3.5787531e-16)
(174.25478 3.5172755 2.7884806e-17)
(188.94747 3.9415214 2.502565e-16)
(198.98291 3.4705671 0)
(205.38759 2.5469549 5.0339211e-17)
(21.829413 -21.71207 5.1421104e-18)
(8.292448 -11.037221 1.0181876e-14)
(-20.354314 16.314945 -3.8313342e-15)
(-40.770079 34.948136 -2.8967776e-15)
(-49.520035 43.390384 2.17529e-15)
(-51.613168 46.59855 -1.6690236e-15)
(-48.99128 47.356637 1.3309901e-15)
(-41.806006 47.66805 9.5124557e-16)
(-26.695025 46.600159 -7.5592886e-16)
(6.4699688 40.234847 0)
(53.85947 30.212657 0)
(96.978854 22.537665 0)
(131.8862 15.206076 5.3135886e-17)
(159.26002 8.7758593 0)
(179.87253 3.4034486 2.8212191e-16)
(194.68603 -0.7712156 -5.315329e-16)
(79.949104 -96.668045 -2.7246497e-16)
(112.79173 -130.14959 -2.7830726e-18)
(118.19605 -131.10713 2.3408586e-16)
(118.75584 -129.08108 -1.9044352e-16)
(118.77162 -125.9398 -6.8839565e-18)
(118.79819 -122.22263 1.8541984e-18)
(118.90021 -117.97546 0)
(119.11077 -113.16271 -1.8032815e-16)
(119.458 -107.75954 3.3175954e-16)
(119.97819 -101.77414 -1.3925907e-16)
(120.70423 -95.2463 1.3859625e-16)
(121.66257 -88.249967 -1.1648691e-16)
(122.88943 -80.880336 -2.0222438e-17)
(124.43922 -73.199095 2.9888455e-17)
(126.24114 -65.41694 7.8075664e-17)
(127.65915 -58.318667 0)
(53.813921 -83.732416 0)
(77.933574 -115.67855 1.0030824e-17)
(82.646686 -116.84196 -1.0496245e-15)
(83.926038 -114.50659 8.3546465e-16)
(85.181156 -111.53794 1.4226912e-17)
(86.677252 -108.13627 -5.8586277e-16)
(88.429483 -104.29166 -1.212283e-17)
(90.459042 -99.98016 8.1113494e-16)
(92.782453 -95.189428 -3.5337775e-17)
(95.409861 -89.922618 -2.8503318e-16)
(98.341542 -84.20308 0)
(101.5656 -78.077939 3.0401028e-17)
(105.07077 -71.609061 3.3044018e-17)
(108.83357 -64.85008 2.4447369e-16)
(112.79833 -57.916045 -3.3776358e-16)
(116.6581 -51.074196 -5.1565332e-17)
(35.076697 -72.09901 -6.148355e-18)
(50.378605 -98.654623 5.073945e-15)
(54.108002 -99.59304 -1.9521499e-15)
(55.986289 -97.462062 1.3957431e-17)
(58.010276 -94.81721 1.2352006e-15)
(60.378264 -91.801474 -9.8041413e-16)
(63.115164 -88.395397 1.4472211e-17)
(66.24632 -84.574905 -2.3514708e-17)
(69.790789 -80.327191 9.0780135e-18)
(73.75687 -75.655372 3.1192606e-17)
(78.137414 -70.583014 -3.6079896e-16)
(82.90949 -65.156432 2.6782612e-16)
(88.052965 -59.438356 5.0475804e-16)
(93.549608 -53.498067 -4.4580659e-16)
(99.330627 -47.482642 6.7146533e-17)
(105.02459 -41.609711 2.2306963e-16)
(18.727867 -53.268464 1.0856302e-17)
(27.362588 -73.281311 8.1049215e-18)
(30.402382 -73.999089 1.4658824e-15)
(32.776265 -72.26986 -1.1608361e-15)
(35.462867 -70.167093 1.4844465e-17)
(38.594241 -67.799496 -7.2631166e-16)
(42.203427 -65.14741 5.3312429e-16)
(46.317841 -62.192423 9.1665936e-16)
(50.95409 -58.92555 -1.3469311e-17)
(56.110697 -55.35011 -1.2194599e-15)
(61.761982 -51.484375 4.843621e-16)
(67.860393 -47.361733 0)
(74.356288 -43.026754 -3.5142891e-17)
(81.196759 -38.538423 2.926454e-16)
(88.226929 -33.946384 -1.4733428e-16)
(94.928211 -29.509368 3.5785304e-16)
(7.2761704 -30.570436 -1.2823587e-17)
(11.529511 -43.050448 2.6699537e-15)
(14.151129 -43.326605 -1.9759512e-15)
(16.888117 -42.012833 1.1011297e-17)
(20.086821 -40.523795 -2.6141206e-17)
(23.818857 -38.918801 7.1418467e-18)
(28.119847 -37.174381 7.4051514e-16)
(33.019948 -35.274765 9.7867503e-18)
(38.536789 -33.212922 -4.2807973e-16)
(44.667196 -30.990067 3.5648093e-16)
(51.381743 -28.615723 -2.9224841e-16)
(58.63122 -26.10566 0)
(66.36344 -23.476723 -2.0037519e-16)
(74.499004 -20.706679 1.4696039e-16)
(82.75276 -17.9148 -5.3209773e-17)
(90.321629 -15.147234 0)
(105.71177 -56.530877 0)
(181.42643 -95.0319 2.3527449e-15)
(198.49937 -97.973511 -3.7208674e-15)
(198.46636 -97.15677 1.5430738e-15)
(196.62934 -95.256101 1.0398123e-17)
(194.48198 -93.056008 3.9517912e-18)
(192.13807 -90.531103 6.7635688e-16)
(189.60816 -87.688388 -5.7349434e-16)
(186.9203 -84.504155 -3.8785463e-16)
(184.10633 -80.97634 2.9060773e-16)
(181.21548 -77.113043 0)
(178.31434 -72.937071 -1.2553274e-16)
(175.4949 -68.491149 1.035051e-16)
(172.89238 -63.817641 0)
(170.62127 -58.984846 0)
(168.63647 -54.170116 0)
(1.3815829 -7.5843032 2.0843632e-15)
(3.5204792 -11.264715 -8.275452e-16)
(6.1111474 -10.152939 -1.1716759e-15)
(9.1092066 -8.6907022 8.6419537e-16)
(12.605567 -7.5159591 8.7454142e-18)
(16.646781 -6.5318951 -2.6182732e-16)
(21.268195 -5.6561101 -2.0981138e-16)
(26.499698 -4.8441333 1.9277008e-18)
(32.358072 -4.0692514 2.1598146e-18)
(38.839099 -3.313598 2.9764761e-16)
(45.911398 -2.5644672 -3.1779241e-16)
(53.514543 -1.8122753 4.6657591e-18)
(61.552235 -1.04854 2.9360393e-17)
(69.917364 -0.25744468 8.105166e-17)
(78.395018 0.61527038 5.9581045e-20)
(86.727184 1.4542518 -4.6151305e-17)
(2.7932343 24.08279 9.317272e-16)
(5.498019 34.736334 7.1437384e-16)
(8.2369379 34.902492 -1.5344959e-15)
(11.339796 33.817655 7.6275998e-16)
(14.895619 32.70596 -3.0173517e-16)
(18.950801 31.58398 -2.8000714e-20)
(23.541733 30.41075 -3.6981054e-16)
(28.697227 29.159502 1.5525697e-16)
(34.433368 27.812257 1.5915061e-17)
(40.747693 26.356659 -8.9265737e-17)
(47.613203 24.785213 1.3264164e-16)
(54.977091 23.09492 -1.164782e-16)
(62.765233 21.284339 2.7311814e-17)
(70.874827 19.340476 1.4947054e-16)
(79.151063 17.289034 -6.0592348e-17)
(87.24644 15.120608 -8.8265975e-17)
(10.543425 48.214169 1.584077e-17)
(16.017628 66.461552 -2.1343151e-15)
(18.894073 67.165595 1.5919392e-15)
(21.60306 65.680174 -1.2152466e-15)
(24.710164 63.911365 9.659478e-16)
(28.319134 61.954713 0)
(32.467191 59.7903 -6.0734352e-16)
(37.185961 57.401897 4.7760836e-16)
(42.495835 54.781018 9.6532084e-18)
(48.397855 51.927651 0)
(54.867519 48.851056 4.515728e-17)
(61.860949 45.568924 -2.3243663e-17)
(69.340142 42.099884 1.7286214e-16)
(77.262768 38.480632 -3.4663779e-16)
(85.349107 34.689945 2.5084151e-16)
(92.727423 30.973963 7.5816939e-17)
(24.058424 71.106732 -8.6793102e-18)
(34.866188 96.674852 6.3641509e-18)
(38.307462 97.672865 0)
(40.604247 95.7256 -1.8824937e-17)
(43.164596 93.315688 -8.9616466e-18)
(46.149204 90.579267 -5.6872694e-16)
(49.588082 87.498155 4.7506016e-16)
(53.509618 84.052104 0)
(57.931873 80.230078 -4.6158419e-18)
(62.854913 76.033587 2.5829076e-17)
(68.252818 71.48046 -2.6741893e-17)
(74.080015 66.604286 -1.2931654e-17)
(80.295705 61.447284 -3.455658e-17)
(86.902123 56.039205 -2.2470221e-16)
(93.699906 50.517698 2.7703691e-16)
(99.928321 45.074047 -1.6372042e-16)
(42.291475 88.893699 0)
(60.768719 120.76541 -1.6296985e-15)
(65.022764 121.91479 2.531161e-15)
(66.770805 119.57991 -1.0003914e-15)
(68.630718 116.64326 8.1592182e-18)
(70.810705 113.28234 2.0721862e-17)
(73.330124 109.47844 -5.7757456e-16)
(76.214145 105.20386 4.6380983e-16)
(79.481073 100.44224 3.5697759e-16)
(83.137523 95.193782 -3.3112576e-16)
(87.171846 89.481862 0)
(91.559498 83.354181 2.5224576e-16)
(96.297423 76.872047 -1.4708575e-16)
(101.46367 70.102076 0)
(106.98265 63.171725 0)
(111.94552 56.745276 0)
(62.817569 99.226254 -1.1650563e-15)
(91.064617 136.15764 4.2360408e-16)
(96.389991 137.47576 0)
(97.490272 134.97357 -2.7860365e-20)
(98.552648 131.74115 2.9926926e-16)
(99.826397 128.02931 -2.5122923e-16)
(101.32298 123.82494 -2.3421657e-16)
(103.06425 119.09742 -1.8038002e-17)
(105.06697 113.82899 1.9045527e-16)
(107.34298 108.01892 -1.4627902e-17)
(109.89563 101.69105 0)
(112.72256 94.897955 2.4734457e-16)
(115.83646 87.713854 -3.0672761e-17)
(119.29058 80.253446 -1.7649813e-16)
(123.03242 72.66006 0)
(126.81092 65.245847 -2.1847879e-17)
(91.423766 111.68326 3.2238808e-17)
(128.78119 149.23409 1.2160838e-15)
(134.9809 150.46451 -4.6717225e-16)
(135.36191 148.404 -2.9752086e-16)
(135.10401 144.98218 2.4408237e-16)
(134.82148 140.94095 -1.3159071e-16)
(134.57708 136.31516 9.5775161e-17)
(134.4047 131.06489 4.0122019e-17)
(134.33262 125.1631 -4.2817427e-17)
(134.39609 118.61582 0)
(134.6329 111.47194 0)
(135.07708 103.82197 0)
(135.77672 95.783593 4.4777855e-18)
(136.82849 87.505959 0)
(138.14716 79.193064 -7.3126059e-17)
(139.15174 71.369002 1.5408327e-16)
(-21.304333 -19.55329 5.6637255e-15)
(-40.997869 -37.683696 1.9351633e-17)
(-45.220604 -40.996986 -4.0652411e-15)
(-43.789102 -39.576831 3.3514148e-15)
(-41.247228 -37.201269 4.3423099e-17)
(-38.173431 -34.334435 3.5274245e-17)
(-34.569413 -31.025385 0)
(-30.307001 -27.360999 1.7464164e-15)
(-24.900457 -23.189447 -3.9027395e-15)
(-2.4929671 -12.856043 1.6216838e-15)
(48.77696 1.1593562 -8.0100447e-16)
(83.498205 8.9013026 4.5923237e-16)
(108.1825 15.201225 -5.7399904e-18)
(125.9415 19.224203 -4.886217e-17)
(137.95334 19.886597 -1.3796605e-16)
(148.09611 14.414194 0)
(-15.77585 -11.27661 0)
(-37.107305 -27.058232 -3.5939157e-17)
(-44.81134 -32.345613 3.773491e-15)
(-45.134252 -32.814983 -3.2730413e-15)
(-42.757044 -31.824115 -6.634418e-17)
(-39.24023 -30.608822 2.4823004e-15)
(-34.270153 -29.885337 1.995303e-18)
(-22.176367 -26.575917 -3.0071667e-15)
(21.528342 -14.29497 1.1230367e-16)
(65.658163 -3.027987 5.6965275e-16)
(98.75177 4.1052863 0)
(124.64712 8.0505683 -3.0991555e-17)
(144.33784 9.7961563 -5.0356734e-17)
(158.01753 9.7096335 -2.3518607e-16)
(166.34054 8.1051781 3.3232307e-16)
(171.04946 4.2685936 3.8583307e-17)
(-11.488985 -5.1510816 -3.4753403e-18)
(-34.314568 -17.473257 -1.0049011e-14)
(-45.012593 -22.581832 4.0832111e-15)
(-46.640357 -23.424404 -2.7269035e-17)
(-43.57967 -23.616407 -2.8921565e-15)
(-28.388608 -20.624586 1.9381374e-15)
(15.845245 -10.820169 -1.7698509e-17)
(64.164824 -1.8894959 2.1994197e-17)
(99.979325 1.7521805 -1.5955755e-17)
(127.51574 2.5146586 -1.9850539e-17)
(148.41707 1.9156589 2.4285171e-16)
(163.51367 0.55781678 -1.7156184e-16)
(173.73111 -1.1300817 -3.152075e-16)
(179.95996 -2.8769706 2.8025147e-16)
(183.0494 -4.5936552 -4.8865085e-17)
(183.9764 -6.4234817 -1.4186599e-16)
(-20.541592 -5.7813493 -1.1281885e-17)
(-42.56833 -13.783432 -9.2114172e-18)
(-50.530585 -16.981567 -2.0755357e-15)
(-31.772007 -13.592011 1.5136986e-15)
(23.239918 -4.9333778 -1.2983253e-17)
(74.707408 1.1103088 4.9537864e-16)
(109.874 2.1287725 -2.8874485e-16)
(135.60388 0.57850618 -4.3469314e-16)
(154.76807 -1.928879 7.6230073e-18)
(168.66077 -4.6878347 5.3996948e-16)
(178.26174 -7.3176429 -2.1572349e-16)
(184.39325 -9.5867744 0)
(187.81405 -11.358274 1.8290541e-17)
(189.22989 -12.611783 -1.4196712e-16)
(189.26012 -13.427148 7.4150395e-17)
(188.45476 -14.018207 -1.7732012e-16)
(-32.58401 -5.3007541 1.1152567e-17)
(-44.526257 -8.6192146 -2.4957415e-15)
(23.461693 -3.0058438 1.3022796e-15)
(83.464664 0.59881823 -5.6091828e-18)
(121.09275 0.12196236 1.0771419e-17)
(146.91451 -2.2712026 -2.6934651e-18)
(164.97428 -5.3058035 -2.5651117e-16)
(177.26079 -8.4750086 -7.0139274e-19)
(185.238 -11.506597 1.5386434e-16)
(190.03188 -14.195384 -1.3090272e-16)
(192.5374 -16.392767 1.1310403e-16)
(193.45219 -18.042743 0)
(193.28887 -19.163582 8.2607701e-17)
(192.41541 -19.822763 -6.3508533e-17)
(191.10176 -20.096841 2.4595299e-17)
(189.51768 -20.09223 0)
(-13.131498 0.34680161 -1.5743405e-15)
(76.253888 -2.5683008 4.452943e-16)
(127.50453 -4.2510413 4.5811165e-16)
(159.33294 -6.9054822 -3.0322515e-16)
(178.89002 -10.333142 -3.9058937e-19)
(190.31807 -13.765623 9.2281731e-17)
(196.5449 -16.847196 7.4415347e-17)
(199.47592 -19.498144 -2.2660417e-18)
(200.38514 -21.701199 -2.1817612e-18)
(200.0742 -23.471734 -1.189979e-16)
(199.0225 -24.838777 1.314624e-16)
(197.51269 -25.835655 -3.7636838e-18)
(195.69884 -26.477607 -1.4148614e-17)
(193.68671 -26.772311 -3.5520856e-17)
(191.57115 -26.696624 -2.4869611e-20)
(189.36272 -26.272571 1.8468592e-17)
(56.129292 -5.6864974 -7.590787e-16)
(137.93597 -17.9734 -3.7432017e-16)
(181.64264 -21.558769 7.4535702e-16)
(201.27751 -24.887942 -3.6460071e-16)
(208.93924 -27.852964 1.4965994e-16)
(211.11305 -30.074642 1.3137811e-20)
(210.78104 -31.723786 1.8825933e-16)
(209.29276 -33.01095 -8.7157123e-17)
(207.2396 -34.03642 -1.1553218e-17)
(204.84603 -34.828639 4.4503765e-17)
(202.21168 -35.378256 -7.3083266e-17)
(199.4084 -35.664049 5.9731162e-17)
(196.49037 -35.640349 -1.6898141e-17)
(193.54304 -35.268711 -7.4424949e-17)
(190.66695 -34.501432 2.9851856e-17)
(187.80834 -33.476362 3.7488961e-17)
(89.614995 -20.416915 -1.5506729e-17)
(176.94896 -43.312786 1.5424913e-15)
(209.24067 -47.223791 -1.1042965e-15)
(217.56982 -49.474507 8.2478632e-16)
(218.14204 -50.540094 -7.0204511e-16)
(216.40807 -50.896064 0)
(213.92066 -50.928779 4.4409382e-16)
(211.0811 -50.791472 -3.692116e-16)
(207.99794 -50.491399 -7.9185794e-18)
(204.68061 -49.990445 0)
(201.18683 -49.253666 -3.1816589e-17)
(197.59568 -48.255118 1.5630664e-17)
(193.98045 -46.950554 -1.0673454e-16)
(190.46502 -45.310294 2.0750445e-16)
(187.16198 -43.322352 -1.4531433e-16)
(183.92617 -41.137536 -3.8102597e-17)
(104.88922 -39.076654 9.5276541e-18)
(188.63758 -71.040786 -5.8191863e-18)
(212.35303 -74.509565 0)
(214.7191 -75.085762 -5.1194756e-18)
(212.95814 -74.374152 -1.0014981e-17)
(210.42915 -73.261524 5.5112328e-16)
(207.60617 -71.917113 -4.8954074e-16)
(204.54144 -70.373179 0)
(201.26284 -68.595101 3.6103192e-17)
(197.76303 -66.535165 2.4933255e-17)
(194.13646 -64.186476 2.3165976e-17)
(190.47976 -61.549554 -4.3930823e-17)
(186.87926 -58.617918 2.492381e-17)
(183.47475 -55.412597 1.3408619e-16)
(180.35298 -52.026852 -1.5013552e-16)
(177.38418 -48.659881 8.158321e-17)
(101.32711 -73.560756 5.5598113e-15)
(165.94557 -114.66162 -1.8413236e-15)
(177.78231 -116.94752 0)
(177.31452 -115.0233 -7.0224747e-18)
(175.97681 -112.18885 -7.7879162e-16)
(174.45557 -109.0215 6.7146286e-16)
(172.82838 -105.45288 4.4153324e-16)
(171.10336 -101.492 -3.0450847e-17)
(169.30012 -97.12887 -3.0098146e-16)
(167.43642 -92.37395 1.4931396e-17)
(165.54281 -87.25036 0)
(163.66193 -81.804121 -1.5786624e-16)
(161.86522 -76.098916 5.5751178e-17)
(160.29708 -70.171988 8.093959e-17)
(159.11536 -64.038254 0)
(158.21878 -58.127423 -3.6978498e-18)
(94.618237 -89.542437 2.0139979e-17)
(144.00859 -128.61473 2.7090918e-15)
(153.03944 -130.92809 -1.0430286e-15)
(153.09067 -128.51018 -7.3609243e-16)
(152.73598 -125.12315 5.9096335e-16)
(152.26138 -121.31722 -4.2104088e-16)
(151.71211 -117.03466 3.4934681e-16)
(151.08311 -112.29141 2.0470359e-16)
(150.37725 -107.07129 -1.7972283e-16)
(149.60092 -101.38711 0)
(148.77906 -95.265784 0)
(147.95321 -88.760664 0)
(147.20294 -81.943366 -8.3878987e-18)
(146.70155 -74.85444 0)
(146.71449 -67.614889 -3.3876603e-17)
(146.92676 -60.807705 7.931758e-17)
(18.775026 -22.780162 6.734863e-15)
(-4.3390032 8.5240036 2.0194809e-17)
(-28.978646 40.643245 -3.0710405e-15)
(-43.183226 59.690794 2.2995009e-15)
(-49.398899 69.497688 3.0562311e-17)
(-50.231352 73.529727 2.0162833e-17)
(-47.650294 74.128919 0)
(-42.71598 72.688218 1.0273631e-15)
(-35.879497 69.883473 -1.7717934e-15)
(-27.525437 66.069687 7.6396507e-16)
(-16.884206 60.293529 -6.8359586e-16)
(10.82226 48.161965 5.0113991e-16)
(55.575811 31.899402 1.343501e-17)
(99.499338 17.637172 -6.929394e-17)
(137.07191 5.0513022 -1.9793062e-16)
(166.78299 -5.2215331 0)
(-7.0395145 11.806506 0)
(-33.069966 59.0664 -3.5274224e-17)
(-48.384395 84.623526 3.0010401e-15)
(-54.561265 97.18315 -2.3083721e-15)
(-55.530374 102.48519 -4.2350336e-17)
(-53.818178 103.73835 1.524261e-15)
(-50.482402 102.757 -1.6998386e-17)
(-45.820655 100.36609 -2.1622597e-15)
(-39.776122 96.830691 1.228754e-16)
(-32.06205 92.080892 7.8161286e-16)
(-22.0827 85.84502 0)
(-8.546405 77.661098 -7.8138774e-17)
(13.978151 63.232112 -1.1303535e-16)
(54.229952 38.435691 -6.9827775e-16)
(94.273367 14.774841 7.9305576e-16)
(129.30291 -4.3859642 1.0345226e-16)
(-17.73551 40.972525 -1.5079954e-17)
(-40.425623 94.723147 -9.1434623e-15)
(-50.998315 115.43687 3.3601102e-15)
(-53.088596 122.02499 -2.1165259e-17)
(-52.021695 123.12755 -2.195043e-15)
(-49.877471 122.0075 1.8487954e-15)
(-47.059568 119.79208 -2.47868e-17)
(-43.542557 116.7301 4.1852803e-17)
(-39.174483 112.76982 -3.0717176e-17)
(-33.711288 107.69603 -6.0588193e-17)
(-26.805122 101.19387 8.3289599e-16)
(-18.139747 92.862815 -6.3868264e-16)
(-7.0950824 81.970768 -1.4111165e-15)
(11.778358 63.869751 1.3844291e-15)
(46.661271 32.787891 -2.1788702e-16)
(81.475353 2.9010872 -5.8077717e-16)
(-19.181605 64.712892 -1.3080436e-17)
(-35.890178 119.69991 -8.8468203e-18)
(-42.683711 134.17552 -1.8420194e-15)
(-43.165205 136.02101 1.6066313e-15)
(-42.320176 134.7237 -2.011041e-17)
(-41.205477 132.45158 1.1658339e-15)
(-39.810952 129.51318 -9.1753593e-16)
(-38.069109 125.8218 -1.6750286e-15)
(-35.8866 121.21411 1.2037955e-17)
(-33.123236 115.43063 2.543485e-15)
(-29.590483 108.12847 -1.08335e-15)
(-25.100343 98.768133 0)
(-19.947708 86.988864 1.1096366e-16)
(-11.305249 70.367972 -1.0724335e-15)
(9.8499518 44.175347 5.9135173e-16)
(40.201202 11.055073 -1.1969533e-15)
(-12.814569 77.630048 1.277942e-17)
(-22.58919 128.30495 -2.2908296e-15)
(-26.96605 137.60262 1.8828679e-15)
(-27.597872 137.19257 -1.2442949e-17)
(-27.921512 135.27165 2.9596234e-17)
(-28.272498 132.7299 -7.5480427e-18)
(-28.604446 129.54616 -8.9748733e-16)
(-28.890733 125.59321 -1.5694805e-17)
(-29.080815 120.69422 5.6854091e-16)
(-29.086908 114.60844 -5.1472834e-16)
(-28.781533 106.99584 4.479538e-16)
(-28.012878 97.383226 0)
(-26.945811 85.136482 4.0819846e-16)
(-25.42134 69.874131 -3.4919208e-16)
(-21.427002 51.298087 2.1737307e-16)
(1.922925 20.222551 0)
(-3.4316665 79.816403 -1.3350402e-15)
(-7.0518763 121.36171 4.9181933e-16)
(-9.9838065 127.13185 7.6378892e-16)
(-11.508283 126.55986 -6.1495359e-16)
(-13.053701 124.92276 -6.2084083e-18)
(-14.81666 122.73637 2.1139866e-16)
(-16.783774 119.96501 1.7799254e-16)
(-18.948351 116.50506 -9.8618894e-19)
(-21.280885 112.21395 -6.3826973e-19)
(-23.715137 106.90019 -2.9565973e-16)
(-26.119282 100.3096 3.3986018e-16)
(-28.322987 92.074311 7.9864394e-19)
(-30.071397 81.680134 -3.5215051e-17)
(-31.29821 68.650783 -1.254375e-16)
(-31.099858 51.606805 -1.1067478e-19)
(-26.098041 29.564652 1.3681994e-16)
(5.2001344 70.044191 -5.4107355e-16)
(5.8451502 101.05767 -4.0045609e-16)
(3.6053289 105.42266 9.3384562e-16)
(1.3825979 105.35096 -4.9404724e-16)
(-1.1025579 104.46721 2.0441707e-16)
(-3.9675791 103.14596 2.2120457e-20)
(-7.2183272 101.37613 2.7078605e-16)
(-10.854973 99.097044 -1.1549117e-16)
(-14.85062 96.219572 -1.0085889e-17)
(-19.135857 92.621637 7.7983458e-17)
(-23.566177 88.133075 -1.178102e-16)
(-27.947489 82.519191 1.1695489e-16)
(-31.853448 75.393886 -2.296768e-17)
(-34.953589 66.428376 -1.893713e-16)
(-36.194445 54.214712 8.9794698e-17)
(-34.144375 38.281322 1.6523144e-16)
(9.4328476 50.222815 -1.0356728e-17)
(12.000164 71.248736 1.3544025e-15)
(10.147379 74.852003 -1.0267818e-15)
(7.5308783 75.635585 7.9872917e-16)
(4.4490323 75.844131 -6.4597707e-16)
(0.86764995 75.781643 0)
(-3.2238496 75.480476 4.2925117e-16)
(-7.8204615 74.935923 -3.4320381e-16)
(-12.885275 74.127631 -6.4925917e-18)
(-18.329035 73.018561 0)
(-23.976462 71.547391 -4.0087128e-17)
(-29.524587 69.592327 2.1889329e-17)
(-34.526287 66.849923 -1.8167462e-16)
(-38.152414 62.972614 4.0786969e-16)
(-39.876722 56.370709 -3.3248443e-16)
(-39.860491 46.608796 -1.2660059e-16)
(6.5647707 23.889345 7.1616624e-18)
(8.4781527 35.362679 -5.5211758e-18)
(6.7394068 38.663497 0)
(4.0075445 40.489723 1.7429922e-17)
(0.670221 41.993788 8.7819517e-18)
(-3.2342626 43.432924 4.6540111e-16)
(-7.7039898 44.890469 -3.8715576e-16)
(-12.715107 46.413772 0)
(-18.201649 48.043364 1.4313246e-18)
(-24.015324 49.834393 -2.7221092e-17)
(-29.886184 51.855201 2.514743e-17)
(-35.437937 54.071725 1.8817907e-17)
(-39.983102 56.207975 3.7561583e-17)
(-42.622839 57.818095 2.6468545e-16)
(-42.635209 57.402408 -3.4691742e-16)
(-40.543844 53.907958 2.3155931e-16)
(-4.0884605 -4.7093076 0)
(-5.411054 -2.0017161 3.1171265e-15)
(-7.2999129 1.5774819 -4.4096357e-15)
(-9.9945921 4.7699292 1.6022702e-15)
(-13.329951 7.8371804 -9.5309338e-18)
(-17.215162 10.960733 -3.1508295e-17)
(-21.527126 14.306391 7.7757262e-16)
(-26.113227 17.992468 -6.1170526e-16)
(-30.738223 22.136071 -4.6868548e-16)
(-35.146102 26.9102 4.2532279e-16)
(-38.984882 32.480858 0)
(-41.317346 38.848747 -3.6135991e-16)
(-40.931958 45.882525 1.9888242e-16)
(-36.486258 52.898221 0)
(-28.943201 56.590004 0)
(-20.375758 56.067298 0)
(-18.288574 -27.063637 9.7786523e-15)
(-27.598989 -39.069985 -4.0656794e-15)
(-29.253862 -38.339367 0)
(-29.687489 -35.17064 -1.8392617e-17)
(-29.952511 -31.158036 -1.6627283e-15)
(-30.109942 -26.390432 1.3692207e-15)
(-30.111507 -20.850822 1.0476629e-15)
(-29.778643 -14.510886 4.2402482e-17)
(-28.986582 -7.1330771 -7.8572289e-16)
(-28.044236 1.4656647 3.6857242e-17)
(-26.253863 12.229643 0)
(-22.160026 25.121681 -1.0091478e-15)
(-10.522394 36.948048 1.4823169e-16)
(8.4314774 46.841602 7.3859574e-16)
(25.023394 51.882324 0)
(47.470228 48.107262 9.7118598e-17)
(-22.971092 -27.41373 4.2913223e-18)
(-37.600861 -43.910525 9.1349794e-15)
(-39.236135 -44.888261 -3.6889184e-15)
(-37.972649 -42.828656 -3.0258347e-15)
(-36.232648 -40.192022 2.5138354e-15)
(-34.281695 -37.151946 -2.1973272e-15)
(-32.007732 -33.604717 1.8418044e-15)
(-29.209339 -29.4114 1.5717981e-15)
(-25.446254 -24.389952 -1.5187844e-15)
(-20.810107 -17.514128 0)
(-15.99958 -7.5746941 0)
(-4.7012478 6.7250389 0)
(42.519162 19.912309 2.0075267e-16)
(67.60695 35.402903 0)
(82.67871 38.443349 3.8776904e-16)
(100.47052 31.146014 -5.7817679e-16)
(128.30727 147.94871 0)
(135.10128 149.75565 0)
(136.10449 147.9345 0)
(136.56419 144.63789 1.877234e-18)
(136.95755 140.81011 -1.4155848e-17)
(137.41452 136.4042 1.7402466e-17)
(137.96481 131.38712 0)
(138.61091 125.73522 -3.8984014e-18)
(139.35653 119.42573 0)
(140.20551 112.49225 0)
(141.15927 105.01214 0)
(142.23058 97.102329 1.0105333e-17)
(143.48877 88.879355 0)
(145.04699 80.625097 8.553352e-18)
(146.5716 73.035078 0)
(113.55678 -130.58572 0)
(119.2999 -131.99079 0)
(120.2247 -130.1717 0)
(120.72201 -127.13325 5.7410795e-19)
(121.2208 -123.59118 -3.4029344e-18)
(121.83536 -119.49155 4.9713038e-18)
(122.59287 -114.83592 0)
(123.51025 -109.57263 3.6573049e-18)
(124.59499 -103.70272 0)
(125.84642 -97.259347 0)
(127.25209 -90.3165 0)
(128.81057 -82.978752 -9.5960372e-18)
(130.58323 -75.349807 0)
(132.56162 -67.613303 -3.956247e-17)
(134.58798 -60.902397 0)
(-37.3047 -43.284724 0)
(-38.927941 -44.258524 0)
(-37.714217 -42.346239 0)
(-36.034482 -39.800908 1.2955637e-17)
(-34.114756 -36.882727 -9.9411912e-17)
(-31.827169 -33.459497 1.5102705e-16)
(-28.924177 -29.363889 0)
(-25.249348 -24.10631 -1.1982363e-18)
(-19.605248 -17.571347 0)
(-11.098701 -9.7135093 0)
(26.609433 3.7375337 0)
(92.779573 16.635084 -6.1604317e-19)
(110.45556 23.306277 0)
(123.16973 24.820234 1.2642351e-16)
(134.51233 19.692286 0)
(-3.0947877 6.2615472 0)
(-27.337483 37.504766 0)
(-42.343933 56.531923 0)
(-48.87807 66.348246 7.1934488e-18)
(-49.80926 70.213318 -5.2438725e-17)
(-47.12139 70.54811 7.5721959e-17)
(-41.808196 68.82239 0)
(-34.121235 65.91254 -3.8288012e-18)
(-24.243659 62.86997 0)
(4.6377767 52.652833 0)
(66.045382 32.471188 0)
(111.44796 20.144454 2.693498e-18)
(145.6586 11.241303 0)
(171.06275 3.9599242 1.3396997e-16)
(189.5102 -1.9423994 0)
(90.500214 110.28198 7.5458895e-20)
(81.00474 -97.65282 -7.0051927e-20)
(-22.884992 -27.200999 2.7065361e-20)
(23.781507 -23.454382 1.1043182e-19)
(153.20354 -18.206122 0)
(167.2647 -0.41954231 0)
(135.79785 -22.844277 0)