/*--------------------------------*- C++ -*----------------------------------*\
| =========                 |                                                 |
| \\      /  F ield         | foam-extend: Open Source CFD                    |
|  \\    /   O peration     | Version:     4.1                                |
|   \\  /    A nd           | Web:         http://www.foam-extend.org         |
|    \\/     M anipulation  |                                                 |
\*---------------------------------------------------------------------------*/
FoamFile
{
    version     2.0;
    format      ascii;
    class       volVectorField;
    location    "2.5";
    object      U;
}
// * * * * * * * * * * * * * * * * * * * * * * * * * * * * * * * * * * * * * //

dimensions      [0 1 -1 0 0 0 0];

internalField   nonuniform List<vector> 
4393
(
(146.0489 -0.156503 0)
(146.5975 -0.16293698 0)
(147.0118 -0.1659511 0)
(147.45302 -0.16960183 0)
(147.90407 -0.17400969 0)
(148.36986 -0.17926015 0)
(148.8526 -0.18527504 0)
(149.35444 -0.1919081 0)
(149.87699 -0.19895368 0)
(150.42114 -0.20614875 0)
(150.98694 -0.2131731 0)
(151.57338 -0.21965255 0)
(152.17825 -0.22516775 0)
(152.79805 -0.22927 0)
(153.42788 -0.23150439 0)
(154.06149 -0.23143762 0)
(154.69139 -0.22868564 0)
(155.30905 -0.22293508 0)
(155.90508 -0.21395434 0)
(156.46956 -0.2015937 0)
(156.99221 -0.18577845 0)
(157.46262 -0.16650103 0)
(157.87046 -0.14381872 0)
(158.20564 -0.117862 0)
(158.4586 -0.088857108 0)
(158.62065 -0.057159579 0)
(158.68448 -0.023276076 0)
(158.64488 0.012126564 0)
(158.49853 0.047973235 0)
(158.24628 0.08284877 0)
(157.89311 0.11530702 0)
(157.44834 0.14393707 0)
(156.92537 0.16751054 0)
(156.3408 0.18513467 0)
(155.71333 0.19635097 0)
(155.0623 0.20115492 0)
(154.40646 0.19994209 0)
(153.76286 0.19340542 0)
(153.14622 0.1824142 0)
(152.56855 0.16790047 0)
(152.03911 0.15076882 0)
(151.56467 0.13183513 0)
(151.14978 0.11179339 0)
(150.79719 0.091217226 0)
(150.50827 0.070610787 0)
(150.28348 0.050432472 0)
(150.12222 0.030837468 0)
(150.02092 0.011723074 0)
(149.97389 -0.0031700228 0)
(149.47194 -0.39491476 0)
(149.94134 -0.40586635 0)
(150.28758 -0.41396607 0)
(150.65757 -0.42450815 0)
(151.03721 -0.43760789 0)
(151.43148 -0.45330111 0)
(151.84274 -0.47131764 0)
(152.27326 -0.49121205 0)
(152.72471 -0.51237197 0)
(153.19807 -0.53401638 0)
(153.69348 -0.55519352 0)
(154.20999 -0.57478881 0)
(154.74548 -0.59154961 0)
(155.29645 -0.60413162 0)
(155.85801 -0.61116763 0)
(156.42389 -0.6113516 0)
(156.98653 -0.60352309 0)
(157.53727 -0.58673318 0)
(158.06664 -0.56027895 0)
(158.56461 -0.52370446 0)
(159.02077 -0.47678027 0)
(159.42465 -0.41948053 0)
(159.76578 -0.3519779 0)
(160.03397 -0.27467251 0)
(160.2195 -0.18826597 0)
(160.31345 -0.093877198 0)
(160.3083 0.0068450085 0)
(160.19843 0.11165834 0)
(159.98172 0.21748518 0)
(159.65888 0.32051335 0)
(159.23466 0.41654776 0)
(158.71823 0.50139295 0)
(158.12299 0.57135835 0)
(157.46573 0.62373676 0)
(156.76535 0.65710932 0)
(156.04147 0.67140889 0)
(155.31302 0.66776014 0)
(154.59716 0.64817293 0)
(153.90862 0.61518105 0)
(153.25934 0.57150305 0)
(152.6585 0.5197721 0)
(152.11272 0.46235044 0)
(151.62645 0.40122599 0)
(151.20242 0.33800173 0)
(150.84201 0.27399615 0)
(150.54554 0.21026766 0)
(150.31218 0.14710529 0)
(150.14086 0.084344861 0)
(150.03531 0.028580558 0)
(149.73739 -0.62939368 0)
(150.19159 -0.6385706 0)
(150.52687 -0.65072031 0)
(150.88501 -0.66771111 0)
(151.25284 -0.68939174 0)
(151.63542 -0.71554001 0)
(152.03526 -0.74564632 0)
(152.45473 -0.77895191 0)
(152.89563 -0.81443463 0)
(153.35911 -0.850793 0)
(153.84544 -0.88643716 0)
(154.35385 -0.91949887 0)
(154.88235 -0.94787076 0)
(155.42757 -0.96928368 0)
(155.98467 -0.98142417 0)
(156.54738 -0.98208084 0)
(157.10806 -0.96929253 0)
(157.65797 -0.94146404 0)
(158.18754 -0.89742409 0)
(158.68661 -0.83642211 0)
(159.14472 -0.7580853 0)
(159.55126 -0.66237107 0)
(159.89571 -0.54955188 0)
(160.16766 -0.42026155 0)
(160.35713 -0.27562243 0)
(160.45481 -0.11745665 0)
(160.45263 0.051463195 0)
(160.34438 0.22725294 0)
(160.1264 0.40485495 0)
(159.79877 0.57802907 0)
(159.36598 0.73967599 0)
(158.83741 0.88259883 0)
(158.22711 1.0004399 0)
(157.55291 1.088546 0)
(156.83491 1.1445114 0)
(156.09388 1.1682799 0)
(155.34967 1.1618476 0)
(154.6201 1.1287114 0)
(153.9202 1.073232 0)
(153.26196 1.0000463 0)
(152.6544 0.91360625 0)
(152.10385 0.8178697 0)
(151.61442 0.7161337 0)
(151.18849 0.61100873 0)
(150.82718 0.50451244 0)
(150.53034 0.39807288 0)
(150.29671 0.29220454 0)
(150.12702 0.1872053 0)
(150.02928 0.087413776 0)
(149.82993 -0.85840967 0)
(150.2762 -0.86818679 0)
(150.60689 -0.88443533 0)
(150.96021 -0.90797672 0)
(151.32346 -0.93842255 0)
(151.70181 -0.97532221 0)
(152.09796 -1.0179329 0)
(152.51447 -1.0651978 0)
(152.95336 -1.1157037 0)
(153.41601 -1.1676448 0)
(153.90293 -1.2188014 0)
(154.41357 -1.2665464 0)
(154.94611 -1.3078958 0)
(155.49728 -1.3396154 0)
(156.06222 -1.3583908 0)
(156.63452 -1.3610453 0)
(157.20631 -1.344765 0)
(157.76854 -1.3072739 0)
(158.31127 -1.2469183 0)
(158.82403 -1.162652 0)
(159.29606 -1.053958 0)
(159.71652 -0.92076062 0)
(160.07456 -0.76338796 0)
(160.35947 -0.58262773 0)
(160.56077 -0.37990577 0)
(160.66846 -0.15759507 0)
(160.67364 0.080594069 0)
(160.56908 0.32929724 0)
(160.35013 0.58129827 0)
(160.01601 0.82757868 0)
(159.57083 1.0577952 0)
(159.02428 1.2613673 0)
(158.39144 1.4289111 0)
(157.69177 1.5535891 0)
(156.94728 1.6319471 0)
(156.18053 1.6640467 0)
(155.41286 1.6529779 0)
(154.66304 1.603996 0)
(153.94658 1.5235519 0)
(153.2755 1.4184203 0)
(152.65854 1.2950353 0)
(152.10159 1.1590617 0)
(151.60818 1.0151826 0)
(151.1802 0.86707314 0)
(150.81825 0.71749257 0)
(150.52164 0.56832287 0)
(150.28881 0.42059242 0)
(150.12121 0.2753475 0)
(150.02715 0.13502558 0)
(149.93892 -1.0819503 0)
(150.37711 -1.0932723 0)
(150.70246 -1.1137397 0)
(151.05041 -1.1439484 0)
(151.40865 -1.183339 0)
(151.78247 -1.2312719 0)
(152.17479 -1.2867841 0)
(152.58842 -1.348531 0)
(153.02568 -1.4147157 0)
(153.48825 -1.4830292 0)
(153.97695 -1.5506107 0)
(154.49154 -1.6140467 0)
(155.03044 -1.6694264 0)
(155.59049 -1.7124782 0)
(156.16684 -1.7387977 0)
(156.75286 -1.7441533 0)
(157.34035 -1.7248087 0)
(157.91977 -1.6777757 0)
(158.48071 -1.6009273 0)
(159.01225 -1.4929608 0)
(159.50327 -1.3532605 0)
(159.94259 -1.1817475 0)
(160.31906 -0.97880076 0)
(160.62154 -0.74531333 0)
(160.83897 -0.48292643 0)
(160.96048 -0.19445195 0)
(160.97602 0.11557315 0)
(160.877 0.44040861 0)
(160.65725 0.77075451 0)
(160.31472 1.0946355 0)
(159.85287 1.3980362 0)
(159.28173 1.6664148 0)
(158.61786 1.8868023 0)
(157.88307 2.0498081 0)
(157.10209 2.1508396 0)
(156.3001 2.1902455 0)
(155.50046 2.1725458 0)
(154.72327 2.1051453 0)
(153.98459 1.9969415 0)
(153.29645 1.8571162 0)
(152.66714 1.6942487 0)
(152.10183 1.5157729 0)
(151.60332 1.3277343 0)
(151.17272 1.1347784 0)
(150.80995 0.94026453 0)
(150.51371 0.74638681 0)
(150.28219 0.55444175 0)
(150.11706 0.36561715 0)
(150.02586 0.18119233 0)
(150.07649 -1.302951 0)
(150.50472 -1.31631 0)
(150.82324 -1.3411829 0)
(151.16438 -1.3782814 0)
(151.51625 -1.4269412 0)
(151.88433 -1.4863906 0)
(152.27176 -1.5554853 0)
(152.68167 -1.6326269 0)
(153.11673 -1.715663 0)
(153.57904 -1.8017985 0)
(154.06983 -1.8875312 0)
(154.58926 -1.9686338 0)
(155.13607 -2.0402084 0)
(155.70733 -2.0968473 0)
(156.29815 -2.1329272 0)
(156.90166 -2.1430233 0)
(157.50916 -2.1223632 0)
(158.1105 -2.0671831 0)
(158.69463 -1.9748782 0)
(159.25004 -1.8439242 0)
(159.76515 -1.6736483 0)
(160.22843 -1.4639798 0)
(160.62838 -1.2153027 0)
(160.95342 -0.92849891 0)
(161.19179 -0.60523996 0)
(161.33155 -0.24854906 0)
(161.36114 0.13642452 0)
(161.27019 0.54165203 0)
(161.05039 0.95566172 0)
(160.69784 1.3632365 0)
(160.21494 1.7460856 0)
(159.61207 2.084871 0)
(158.90778 2.3622192 0)
(158.12713 2.5656596 0)
(157.29869 2.6893647 0)
(156.45114 2.7342645 0)
(155.61059 2.7068429 0)
(154.79877 2.6172584 0)
(154.0324 2.4774017 0)
(153.32335 2.2992819 0)
(152.67921 2.0939003 0)
(152.10416 1.8706088 0)
(151.59994 1.636863 0)
(151.16662 1.3982521 0)
(150.80317 1.1586723 0)
(150.50754 0.92055151 0)
(150.27748 0.6852307 0)
(150.11443 0.45353921 0)
(150.02513 0.22567276 0)
(150.24333 -1.5149128 0)
(150.66 -1.530604 0)
(150.9702 -1.5601506 0)
(151.30294 -1.6044733 0)
(151.64694 -1.662834 0)
(152.00783 -1.7343726 0)
(152.38907 -1.8178031 0)
(152.79415 -1.9113112 0)
(153.22619 -2.0124228 0)
(153.68776 -2.1178791 0)
(154.18067 -2.2235383 0)
(154.70559 -2.3243301 0)
(155.26171 -2.4142974 0)
(155.84638 -2.4867748 0)
(156.45474 -2.5347542 0)
(157.07958 -2.5514386 0)
(157.71159 -2.5308753 0)
(158.33976 -2.4684616 0)
(158.9522 -2.3611429 0)
(159.53666 -2.2072659 0)
(160.08103 -2.0062062 0)
(160.57343 -1.757968 0)
(161.00204 -1.4629275 0)
(161.35486 -1.1218402 0)
(161.61936 -0.73618848 0)
(161.78236 -0.30890676 0)
(161.83045 0.15456196 0)
(161.7509 0.64516081 0)
(161.53252 1.1493539 0)
(161.16872 1.6483678 0)
(160.66021 2.1188352 0)
(160.01761 2.535431 0)
(159.26211 2.8751739 0)
(158.42322 3.1217393 0)
(157.5347 3.267934 0)
(156.62999 3.3156979 0)
(155.73869 3.274224 0)
(154.88454 3.1572319 0)
(154.08491 2.9802984 0)
(153.35126 2.7587567 0)
(152.69013 2.5063247 0)
(152.10436 2.234398 0)
(151.59425 1.9518489 0)
(151.15854 1.6651487 0)
(150.79505 1.3786522 0)
(150.50078 1.094956 0)
(150.27284 0.81535754 0)
(150.11214 0.54028884 0)
(150.02456 0.26916631 0)
(150.43875 -1.7254232 0)
(150.84135 -1.7434638 0)
(151.14158 -1.7777055 0)
(151.46428 -1.82936 0)
(151.79881 -1.8976652 0)
(152.15099 -1.9817283 0)
(152.52461 -2.0801783 0)
(152.92361 -2.1910438 0)
(153.35163 -2.3115832 0)
(153.81186 -2.4381158 0)
(154.30676 -2.5658759 0)
(154.8377 -2.6889262 0)
(155.40448 -2.8001693 0)
(156.00486 -2.891528 0)
(156.63403 -2.9543847 0)
(157.28442 -2.9803144 0)
(157.94584 -2.9619705 0)
(158.60621 -2.89381 0)
(159.25248 -2.7723626 0)
(159.87151 -2.5959731 0)
(160.45059 -2.3642111 0)
(160.9775 -2.0772437 0)
(161.44023 -1.7354193 0)
(161.82644 -1.3392085 0)
(162.12287 -0.88960215 0)
(162.31495 -0.38902794 0)
(162.38701 0.15723887 0)
(162.32337 0.73946622 0)
(162.10896 1.3421774 0)
(161.73338 1.94273 0)
(161.19461 2.5116547 0)
(160.50329 3.0159744 0)
(159.68399 3.4253634 0)
(158.77235 3.7185539 0)
(157.80919 3.8868759 0)
(156.83422 3.9339774 0)
(155.88146 3.8728718 0)
(154.977 3.7219814 0)
(154.1387 3.5015019 0)
(153.3772 3.2307236 0)
(152.6975 2.9264239 0)
(152.10061 2.6021562 0)
(151.58495 2.2681656 0)
(151.14761 1.9316697 0)
(150.78497 1.5973063 0)
(150.49295 1.2676449 0)
(150.26784 0.94373493 0)
(150.10983 0.62551188 0)
(150.02402 0.31173437 0)
(150.66219 -1.921045 0)
(151.0492 -1.9416728 0)
(151.33789 -1.9810149 0)
(151.64881 -2.0405626 0)
(151.97212 -2.1195445 0)
(152.31385 -2.2170817 0)
(152.67819 -2.331778 0)
(153.06956 -2.4615709 0)
(153.49222 -2.6035169 0)
(153.95009 -2.7535664 0)
(154.44648 -2.9063553 0)
(154.98362 -3.0550569 0)
(155.56213 -3.1913398 0)
(156.18036 -3.3055239 0)
(156.83368 -3.3870848 0)
(157.51403 -3.4256155 0)
(158.21014 -3.4120776 0)
(158.90842 -3.3398598 0)
(159.59436 -3.2051558 0)
(160.25367 -3.0065365 0)
(160.87299 -2.7440211 0)
(161.43989 -2.4181163 0)
(161.94234 -2.0291682 0)
(162.36787 -1.5771965 0)
(162.70264 -1.0623266 0)
(162.93057 -0.4859283 0)
(163.03337 0.14753806 0)
(162.99172 0.8282698 0)
(162.78538 1.5392588 0)
(162.3985 2.2537516 0)
(161.82486 2.9348977 0)
(161.07447 3.5397205 0)
(160.17633 4.0279842 0)
(159.17447 4.3718913 0)
(158.11936 4.5612108 0)
(157.05902 4.6023797 0)
(156.03299 4.5138332 0)
(155.06991 4.3202484 0)
(154.18778 4.0476349 0)
(153.39582 3.7199938 0)
(152.69681 3.357529 0)
(152.08924 2.9760377 0)
(151.56919 2.5870517 0)
(151.13168 2.1983642 0)
(150.77141 1.8146979 0)
(150.483 1.4383937 0)
(150.2618 1.0700617 0)
(150.10717 0.70902264 0)
(150.02341 0.35333294 0)
(150.91341 -2.1185671 0)
(151.2815 -2.1416591 0)
(151.5568 -2.1859505 0)
(151.85405 -2.2533014 0)
(152.16426 -2.3429941 0)
(152.49367 -2.4542315 0)
(152.84687 -2.5856732 0)
(153.22882 -2.7352589 0)
(153.6445 -2.8999418 0)
(154.09873 -3.075393 0)
(154.59582 -3.2557108 0)
(155.1391 -3.4331866 0)
(155.7303 -3.5981773 0)
(156.36861 -3.7391898 0)
(157.04972 -3.8434233 0)
(157.76503 -3.8980124 0)
(158.50183 -3.8918097 0)
(159.24453 -3.8169625 0)
(159.97659 -3.6694665 0)
(160.6823 -3.4484697 0)
(161.34765 -3.154822 0)
(161.96015 -2.7896234 0)
(162.50808 -2.3532612 0)
(162.97923 -1.8450905 0)
(163.35941 -1.2638765 0)
(163.63114 -0.60918506 0)
(163.77308 0.11624374 0)
(163.76152 0.90344728 0)
(163.56949 1.7345451 0)
(163.17346 2.5786429 0)
(162.56057 3.3900015 0)
(161.7391 4.1123542 0)
(160.74374 4.6917325 0)
(159.63022 5.0914931 0)
(158.46231 5.2998943 0)
(157.29902 5.3278899 0)
(156.18666 5.2016864 0)
(155.15645 4.9543373 0)
(154.22587 4.61918 0)
(153.40177 4.2257859 0)
(152.6837 3.7981195 0)
(152.0669 3.3542078 0)
(151.54448 2.906663 0)
(151.10898 2.4635702 0)
(150.75314 2.0294457 0)
(150.47013 1.606136 0)
(150.25423 1.1935961 0)
(150.1039 0.79039412 0)
(150.02268 0.39378358 0)
(151.19051 -2.2909255 0)
(151.53868 -2.3166124 0)
(151.79896 -2.3662398 0)
(152.08069 -2.4419997 0)
(152.37584 -2.5432438 0)
(152.69088 -2.6693221 0)
(153.03085 -2.8190419 0)
(153.40129 -2.9904561 0)
(153.80799 -3.1805371 0)
(154.25679 -3.3847938 0)
(154.75325 -3.5968733 0)
(155.30209 -3.8082099 0)
(155.90646 -4.0077692 0)
(156.56681 -4.1819903 0)
(157.27939 -4.3152925 0)
(158.03505 -4.3916521 0)
(158.81916 -4.3971615 0)
(159.61335 -4.322434 0)
(160.3984 -4.1634585 0)
(161.15678 -3.9204875 0)
(161.87379 -3.5957798 0)
(162.53728 -3.1914321 0)
(163.13632 -2.7080051 0)
(163.65952 -2.144006 0)
(164.09284 -1.4962809 0)
(164.41756 -0.76166032 0)
(164.60906 0.060037995 0)
(164.63843 0.96206356 0)
(164.46999 1.9268336 0)
(164.06949 2.9196715 0)
(163.4137 3.8843446 0)
(162.50705 4.7466738 0)
(161.39152 5.4331241 0)
(160.13942 5.8947229 0)
(158.83316 6.1185693 0)
(157.54627 6.1228988 0)
(156.33318 5.9451393 0)
(155.22741 5.6295978 0)
(154.2447 5.2188175 0)
(153.3881 4.7488733 0)
(152.6527 4.2477387 0)
(152.02945 3.7355106 0)
(151.50782 3.2255294 0)
(151.07742 2.7257667 0)
(150.72878 2.2401494 0)
(150.45347 1.7697004 0)
(150.24464 1.3134615 0)
(150.09983 0.86906758 0)
(150.02177 0.43282095 0)
(151.49499 -2.4738444 0)
(151.8188 -2.5022053 0)
(152.06188 -2.5571296 0)
(152.32587 -2.6412521 0)
(152.60371 -2.7540725 0)
(152.902 -2.8951691 0)
(153.22623 -3.0636016 0)
(153.58258 -3.257668 0)
(153.97773 -3.4745132 0)
(154.41872 -3.7096441 0)
(154.91259 -3.9563916 0)
(155.46579 -4.2054081 0)
(156.08337 -4.4442338 0)
(156.76757 -4.6569941 0)
(157.51568 -4.8247288 0)
(158.31801 -4.927318 0)
(159.15738 -4.9471869 0)
(160.01158 -4.8730537 0)
(160.85764 -4.7013043 0)
(161.67564 -4.4342182 0)
(162.45029 -4.0764232 0)
(163.1702 -3.6316521 0)
(163.82599 -3.1008594 0)
(164.4079 -2.481486 0)
(164.90281 -1.7677142 0)
(165.29123 -0.9523236 0)
(165.54522 -0.030500057 0)
(165.62896 0.99512954 0)
(165.49755 2.109012 0)
(165.10114 3.2741385 0)
(164.40039 4.422293 0)
(163.39186 5.4549441 0)
(162.12684 6.2698965 0)
(160.70163 6.8004566 0)
(159.22515 7.0336192 0)
(157.79023 6.999378 0)
(156.46075 6.7514855 0)
(155.27147 6.3493655 0)
(154.23446 5.8470193 0)
(153.3469 5.2879314 0)
(152.59774 4.7041218 0)
(151.97246 4.1173448 0)
(151.4561 3.5410952 0)
(151.0349 2.9826596 0)
(150.69697 2.4448817 0)
(150.4322 1.9275671 0)
(150.23259 1.4285521 0)
(150.09477 0.94433469 0)
(150.02066 0.47010134 0)
(151.82145 -2.6141361 0)
(152.12076 -2.6447314 0)
(152.34508 -2.7047731 0)
(152.58941 -2.7972801 0)
(152.84782 -2.9219226 0)
(153.12706 -3.0786019 0)
(153.43304 -3.2667713 0)
(153.77259 -3.4851593 0)
(154.15337 -3.73131 0)
(154.58378 -4.0009788 0)
(155.07259 -4.2874183 0)
(155.6284 -4.5806745 0)
(156.2587 -4.866924 0)
(156.96827 -5.127784 0)
(157.75619 -5.3401894 0)
(158.61235 -5.4785752 0)
(159.51622 -5.5202414 0)
(160.44011 -5.4513098 0)
(161.35574 -5.2690145 0)
(162.24005 -4.9788739 0)
(163.07734 -4.589095 0)
(163.85785 -4.1057428 0)
(164.57482 -3.5303347 0)
(165.22129 -2.8590042 0)
(165.78633 -2.082485 0)
(166.25048 -1.1879846 0)
(166.5826 -0.1639671 0)
(166.73938 0.99331261 0)
(166.66426 2.2730458 0)
(166.28652 3.6388195 0)
(165.54188 5.0097652 0)
(164.4117 6.2542105 0)
(162.95882 7.2267844 0)
(161.31518 7.8343644 0)
(159.62819 8.0664524 0)
(158.01629 7.9721061 0)
(156.55374 7.628986 0)
(155.27431 7.1167437 0)
(154.18321 6.5034094 0)
(153.26889 5.8405799 0)
(152.51197 5.1639751 0)
(151.89108 4.4962165 0)
(151.38601 3.8500819 0)
(150.97926 3.2313972 0)
(150.65637 2.6413017 0)
(150.40553 2.0779204 0)
(150.21767 1.5375577 0)
(150.08855 1.0153536 0)
(150.01929 0.50521342 0)
(152.17466 -2.7815891 0)
(152.44372 -2.815328 0)
(152.64675 -2.8812264 0)
(152.86888 -2.9828161 0)
(153.10516 -3.1200348 0)
(153.36236 -3.2932091 0)
(153.64674 -3.5023207 0)
(153.96578 -3.7467032 0)
(154.32815 -4.0245183 0)
(154.74375 -4.3320251 0)
(155.22343 -4.6626452 0)
(155.77837 -5.0059992 0)
(156.41922 -5.3469717 0)
(157.15439 -5.6644738 0)
(157.98596 -5.9304062 0)
(158.90397 -6.111772 0)
(159.88345 -6.1784383 0)
(160.88888 -6.1128377 0)
(161.88436 -5.9139514 0)
(162.84261 -5.5927966 0)
(163.74793 -5.1634861 0)
(164.59333 -4.6359247 0)
(165.37601 -4.0129139 0)
(166.09332 -3.289469 0)
(166.73807 -2.4522421 0)
(167.29224 -1.4808996 0)
(167.72185 -0.35406266 0)
(167.97575 0.94198168 0)
(167.98399 2.4052832 0)
(167.64862 4.0054587 0)
(166.867 5.6507764 0)
(165.592 7.1649923 0)
(163.89973 8.3359313 0)
(161.97666 9.0292348 0)
(160.02752 9.2430068 0)
(158.20443 9.0573621 0)
(156.59184 8.5851875 0)
(155.21816 7.9329405 0)
(154.07683 7.1853557 0)
(153.14355 6.4023152 0)
(152.38796 5.6222381 0)
(151.78027 4.8672723 0)
(151.29428 4.1482213 0)
(150.90845 3.4684358 0)
(150.60573 2.8266003 0)
(150.37276 2.218636 0)
(150.19952 1.6389693 0)
(150.08103 1.0811617 0)
(150.01763 0.53768749 0)
(152.54178 -2.8798039 0)
(152.7815 -2.9149408 0)
(152.96176 -2.985074 0)
(153.15971 -3.0941246 0)
(153.3716 -3.2422882 0)
(153.60416 -3.4304016 0)
(153.86398 -3.6591343 0)
(154.15911 -3.9286684 0)
(154.49926 -4.2381296 0)
(154.896 -4.5847365 0)
(155.36254 -4.962601 0)
(155.91315 -5.3614236 0)
(156.56248 -5.7652586 0)
(157.32392 -6.1505965 0)
(158.20449 -6.4836755 0)
(159.19542 -6.7216538 0)
(160.26586 -6.8236475 0)
(161.3687 -6.7667872 0)
(162.45662 -6.5532371 0)
(163.49646 -6.2028059 0)
(164.47319 -5.7384164 0)
(165.38455 -5.1748588 0)
(166.23364 -4.5158103 0)
(167.02423 -3.7542716 0)
(167.75556 -2.8713357 0)
(168.4135 -1.8362747 0)
(168.96247 -0.6139229 0)
(169.34329 0.82335772 0)
(169.472 2.4868585 0)
(169.21629 4.3601536 0)
(168.41528 6.3472031 0)
(166.96902 8.2137634 0)
(164.96627 9.6418758 0)
(162.6795 10.429065 0)
(160.40122 10.595946 0)
(158.32696 10.273422 0)
(156.54861 9.6265363 0)
(155.08116 8.7966259 0)
(153.89884 7.8873994 0)
(152.95927 6.9661159 0)
(152.21794 6.0718565 0)
(151.63504 5.2241939 0)
(151.17781 4.4302244 0)
(150.82062 3.6895488 0)
(150.54402 2.9975263 0)
(150.33333 2.3473114 0)
(150.17788 1.7311079 0)
(150.07212 1.1406983 0)
(150.01568 0.56700788 0)
(152.93699 -3.0310642 0)
(153.14049 -3.0701502 0)
(153.29541 -3.1468611 0)
(153.46664 -3.2656854 0)
(153.65135 -3.4272507 0)
(153.85598 -3.6331077 0)
(154.08727 -3.8848688 0)
(154.3537 -4.1838773 0)
(154.66593 -4.5306118 0)
(155.03721 -4.9237321 0)
(155.4834 -5.3585668 0)
(156.02239 -5.8253331 0)
(156.67363 -6.3075819 0)
(157.4574 -6.7795933 0)
(158.38868 -7.200982 0)
(159.46226 -7.5149754 0)
(160.63985 -7.6635594 0)
(161.85728 -7.614663 0)
(163.05022 -7.3750424 0)
(164.17755 -6.9781601 0)
(165.22681 -6.4605432 0)
(166.20376 -5.8441837 0)
(167.12002 -5.134516 0)
(167.98793 -4.3239735 0)
(168.81607 -3.3897501 0)
(169.59719 -2.2900787 0)
(170.29528 -0.97231008 0)
(170.84295 0.61051027 0)
(171.14351 2.490081 0)
(171.02501 4.6786391 0)
(170.24136 7.0944231 0)
(168.5961 9.433609 0)
(166.18203 11.207698 0)
(163.41157 12.09352 0)
(160.7165 12.166131 0)
(158.34554 11.639646 0)
(156.38986 10.756603 0)
(154.83682 9.7022156 0)
(153.63054 8.5999737 0)
(152.7037 7.5216337 0)
(151.99418 6.5033436 0)
(151.4508 5.559004 0)
(151.034 4.6897282 0)
(150.71437 3.8898441 0)
(150.4705 3.1504318 0)
(150.2869 2.4613164 0)
(150.1526 1.8121683 0)
(150.06175 1.1928356 0)
(150.01342 0.59262947 0)
(153.33169 -3.0768177 0)
(153.50078 -3.1160428 0)
(153.62882 -3.1954246 0)
(153.77115 -3.3198144 0)
(153.926 -3.490147 0)
(154.09947 -3.7086329 0)
(154.29829 -3.9778256 0)
(154.53128 -4.3003125 0)
(154.80995 -4.6781534 0)
(155.1493 -5.1119194 0)
(155.56817 -5.5988999 0)
(156.0887 -6.1307002 0)
(156.73613 -6.6913588 0)
(157.53982 -7.2544051 0)
(158.52746 -7.7735954 0)
(159.70195 -8.1744116 0)
(161.0159 -8.3732962 0)
(162.37902 -8.3244923 0)
(163.70036 -8.0441554 0)
(164.92693 -7.5894205 0)
(166.05132 -7.0193918 0)
(167.09188 -6.3662511 0)
(168.07141 -5.6359785 0)
(169.01247 -4.8188929 0)
(169.93708 -3.8864124 0)
(170.85099 -2.7790474 0)
(171.72207 -1.4149048 0)
(172.4772 0.28402298 0)
(173.01214 2.3776536 0)
(173.11575 4.9213706 0)
(172.42031 7.8764322 0)
(170.55375 10.866632 0)
(167.58159 13.127292 0)
(164.15062 14.105418 0)
(160.92371 14.004723 0)
(158.20685 13.174882 0)
(156.07174 11.973507 0)
(154.4537 10.637666 0)
(153.25146 9.3079469 0)
(152.36449 8.054401 0)
(151.70971 6.9044394 0)
(151.22387 5.8619839 0)
(150.86106 4.9193396 0)
(150.58892 4.0638546 0)
(150.38491 3.2813685 0)
(150.23339 2.5578762 0)
(150.12367 1.8802828 0)
(150.04994 1.2364227 0)
(150.01084 0.6139992 0)
(153.75569 -3.2105224 0)
(153.88268 -3.2554257 0)
(153.98163 -3.342455 0)
(154.09299 -3.4770438 0)
(154.2157 -3.6606987 0)
(154.35516 -3.8966837 0)
(154.51781 -4.1890277 0)
(154.71249 -4.5422735 0)
(154.95118 -4.960997 0)
(155.25029 -5.4489303 0)
(155.63165 -6.0069178 0)
(156.12193 -6.6295719 0)
(156.75262 -7.3027592 0)
(157.56418 -8.0010859 0)
(158.60366 -8.6739732 0)
(159.89074 -9.2230165 0)
(161.368 -9.5216871 0)
(162.90495 -9.4972041 0)
(164.36898 -9.1778297 0)
(165.69041 -8.6551972 0)
(166.87323 -8.0208344 0)
(167.9584 -7.3169002 0)
(168.98529 -6.5442438 0)
(169.98919 -5.6889998 0)
(171.01177 -4.7215349 0)
(172.08125 -3.5675698 0)
(173.17389 -2.1154441 0)
(174.20834 -0.25761736 0)
(175.06621 2.0891929 0)
(175.52436 5.0320931 0)
(175.04923 8.6560119 0)
(172.96252 12.558855 0)
(169.21551 15.5414 0)
(164.85468 16.579558 0)
(160.94683 16.174545 0)
(157.83669 14.893699 0)
(155.53883 13.26554 0)
(153.89572 11.581254 0)
(152.74048 9.9887705 0)
(151.93042 8.5449899 0)
(151.35922 7.259864 0)
(150.95215 6.1217171 0)
(150.65849 5.110788 0)
(150.44443 4.2057096 0)
(150.28758 3.3862391 0)
(150.17313 2.6341903 0)
(150.0913 1.9336069 0)
(150.03677 1.2703394 0)
(150.00798 0.63058293 0)
(154.13603 -3.1946798 0)
(154.22231 -3.2378805 0)
(154.29033 -3.3244941 0)
(154.36798 -3.4608637 0)
(154.45497 -3.6490461 0)
(154.55571 -3.8932512 0)
(154.67605 -4.1987671 0)
(154.82445 -4.5717862 0)
(155.01294 -5.0190317 0)
(155.25899 -5.5471153 0)
(155.5875 -6.1605194 0)
(156.03057 -6.8572038 0)
(156.62673 -7.625048 0)
(157.4296 -8.4414962 0)
(158.5156 -9.2566594 0)
(159.93815 -9.9451352 0)
(161.63227 -10.313356 0)
(163.40427 -10.243879 0)
(165.05397 -9.7924565 0)
(166.48647 -9.1123516 0)
(167.72732 -8.3536485 0)
(168.85533 -7.5750375 0)
(169.93072 -6.7696705 0)
(170.99656 -5.9227071 0)
(172.11532 -5.0183383 0)
(173.3477 -3.9702195 0)
(174.68409 -2.6195441 0)
(176.03287 -0.79605079 0)
(177.28228 1.6461371 0)
(178.24498 4.9155032 0)
(178.21501 9.3274165 0)
(175.983 14.535079 0)
(171.15292 18.674787 0)
(165.44356 19.685658 0)
(160.66921 18.753507 0)
(157.13224 16.799793 0)
(154.72272 14.604311 0)
(153.12358 12.497234 0)
(152.07795 10.610404 0)
(151.39325 8.9683378 0)
(150.94036 7.5513283 0)
(150.63596 6.3253576 0)
(150.42752 5.2552415 0)
(150.28222 4.3094131 0)
(150.1796 3.4610138 0)
(150.10684 2.6875895 0)
(150.05591 1.9704256 0)
(150.02242 1.2935625 0)
(150.00486 0.64189689 0)
(154.44917 -3.302239 0)
(154.48551 -3.3566724 0)
(154.51866 -3.4545543 0)
(154.55834 -3.6033084 0)
(154.60487 -3.8054387 0)
(154.66136 -4.0662377 0)
(154.73285 -4.3925657 0)
(154.82708 -4.7929241 0)
(154.95558 -5.2773983 0)
(155.13606 -5.8576208 0)
(155.39586 -6.5454562 0)
(155.77243 -7.3477131 0)
(156.3106 -8.260061 0)
(157.07565 -9.2697688 0)
(158.18316 -10.34153 0)
(159.74876 -11.327796 0)
(161.7094 -11.924423 0)
(163.76891 -11.919021 0)
(165.61625 -11.407362 0)
(167.11991 -10.628216 0)
(168.3471 -9.8215925 0)
(169.4433 -9.0578405 0)
(170.49719 -8.2998292 0)
(171.55037 -7.5092776 0)
(172.69262 -6.6866677 0)
(174.0481 -5.7210602 0)
(175.64976 -4.3714348 0)
(177.40807 -2.3761618 0)
(179.22605 0.47500086 0)
(181.00097 4.3266749 0)
(181.86788 9.7701144 0)
(179.76964 16.835904 0)
(173.45905 22.958852 0)
(165.74647 23.683951 0)
(159.90419 21.828253 0)
(155.95016 18.869609 0)
(153.54168 15.933064 0)
(152.09817 13.33005 0)
(151.24923 11.129254 0)
(150.75032 9.2935249 0)
(150.45538 7.7579976 0)
(150.27891 6.4592287 0)
(150.17159 5.3438307 0)
(150.10503 4.3692425 0)
(150.06289 3.5020129 0)
(150.03575 2.7157267 0)
(150.01815 1.9892766 0)
(150.00717 1.305239 0)
(150.00155 0.64754233 0)
(154.38531 -3.2264128 0)
(154.36104 -3.2763481 0)
(154.35209 -3.3656569 0)
(154.34548 -3.5056645 0)
(154.34209 -3.7001651 0)
(154.34314 -3.9560682 0)
(154.35202 -4.282221 0)
(154.37465 -4.689835 0)
(154.4205 -5.192667 0)
(154.50529 -5.8074398 0)
(154.65648 -6.5534342 0)
(154.91618 -7.4463659 0)
(155.33501 -8.4870491 0)
(155.98634 -9.6663838 0)
(157.0363 -10.969697 0)
(158.7181 -12.239148 0)
(161.00761 -12.990444 0)
(163.44219 -12.819351 0)
(165.52458 -11.932102 0)
(167.06703 -10.721725 0)
(168.2104 -9.6087533 0)
(169.22024 -8.6682232 0)
(170.23033 -7.7968922 0)
(171.25942 -6.8995247 0)
(172.42045 -6.0540442 0)
(173.93751 -5.1960515 0)
(175.90351 -4.0102298 0)
(178.21013 -2.1967332 0)
(180.68137 0.51389242 0)
(183.37351 4.015088 0)
(185.59558 9.8510449 0)
(184.21843 19.141193 0)
(175.9947 28.862683 0)
(165.32564 28.721179 0)
(158.34142 25.418852 0)
(154.09604 21.018278 0)
(151.90623 17.149383 0)
(150.78834 13.997867 0)
(150.25051 11.488967 0)
(150.00811 9.484554 0)
(149.913 7.857692 0)
(149.88886 6.50987 0)
(149.8968 5.3684179 0)
(149.91719 4.3802705 0)
(149.94031 3.5062463 0)
(149.96157 2.7167922 0)
(149.97892 1.989083 0)
(149.99135 1.3047622 0)
(149.99812 0.64724097 0)
(153.47561 -3.2561417 0)
(153.37705 -3.3298642 0)
(153.30978 -3.4386778 0)
(153.23682 -3.598793 0)
(153.16066 -3.8142981 0)
(153.08018 -4.093002 0)
(152.99649 -4.4446984 0)
(152.91279 -4.8820142 0)
(152.83543 -5.4208812 0)
(152.77658 -6.081575 0)
(152.76201 -6.8904637 0)
(152.83887 -7.8764372 0)
(153.06516 -9.0553834 0)
(153.51259 -10.434101 0)
(154.39402 -12.057065 0)
(156.14055 -13.846327 0)
(158.8497 -15.094565 0)
(161.75874 -14.97829 0)
(164.04123 -13.952289 0)
(165.43468 -12.558992 0)
(166.22819 -11.491841 0)
(166.92114 -10.755766 0)
(167.71744 -10.149321 0)
(168.53755 -9.4729431 0)
(169.45584 -9.01814 0)
(170.86712 -8.848355 0)
(172.96928 -8.292083 0)
(175.65779 -7.0428945 0)
(178.57216 -4.4765432 0)
(182.42926 -0.72728581 0)
(187.15839 7.2307658 0)
(188.24556 20.228467 0)
(177.92812 36.681029 0)
(163.24699 34.969196 0)
(155.5947 29.536038 0)
(151.35119 23.102782 0)
(149.73668 18.092288 0)
(149.1848 14.388259 0)
(149.09723 11.621624 0)
(149.18648 9.5029441 0)
(149.33031 7.8291582 0)
(149.47858 6.4656285 0)
(149.61204 5.3226115 0)
(149.72459 4.3389851 0)
(149.81557 3.4717862 0)
(149.88647 2.6897353 0)
(149.93934 1.9692822 0)
(149.97543 1.2918439 0)
(149.99467 0.6408676 0)
(150.27861 -3.1552679 0)
(150.03198 -3.2213438 0)
(149.86063 -3.3060061 0)
(149.67254 -3.4358295 0)
(149.47246 -3.6160309 0)
(149.25557 -3.8554382 0)
(149.01942 -4.1649125 0)
(148.76261 -4.559225 0)
(148.48548 -5.0584066 0)
(148.19176 -5.6900261 0)
(147.89692 -6.4944197 0)
(147.64242 -7.5277667 0)
(147.48317 -8.84317 0)
(147.45914 -10.471257 0)
(147.78384 -12.507505 0)
(149.20302 -15.035363 0)
(152.18258 -17.053632 0)
(155.43125 -16.589298 0)
(157.5861 -14.746134 0)
(158.33639 -12.183461 0)
(158.23481 -10.348645 0)
(158.16906 -9.1901403 0)
(158.40396 -8.4350463 0)
(158.60251 -7.5247577 0)
(158.71873 -7.0237654 0)
(159.66765 -7.017618 0)
(161.78113 -5.9947867 0)
(164.94962 -4.8735823 0)
(168.68335 -1.9567619 0)
(175.06207 4.1667692 0)
(184.04686 12.175431 0)
(189.65396 24.095431 0)
(176.92314 49.629303 0)
(157.54553 45.387774 0)
(150.91436 34.317507 0)
(147.40324 24.793055 0)
(146.95732 18.491098 0)
(147.31608 14.34994 0)
(147.83444 11.452162 0)
(148.32309 9.3129413 0)
(148.73401 7.6556658 0)
(149.06588 6.318789 0)
(149.32881 5.2029575 0)
(149.53445 4.2439436 0)
(149.69303 3.3981255 0)
(149.81295 2.6344619 0)
(149.90068 1.9299354 0)
(149.95989 1.266572 0)
(149.99131 0.62847587 0)
(143.5099 -2.9198268 0)
(143.10987 -3.0121921 0)
(142.7997 -3.1137181 0)
(142.45147 -3.2633165 0)
(142.07688 -3.4659029 0)
(141.66672 -3.7316156 0)
(141.21292 -4.0727749 0)
(140.70609 -4.5065458 0)
(140.13586 -5.0566961 0)
(139.49026 -5.7559303 0)
(138.76264 -6.6519252 0)
(137.97551 -7.8156718 0)
(137.18231 -9.320744 0)
(136.39285 -11.178066 0)
(135.76004 -13.444299 0)
(136.50386 -16.54064 0)
(140.14376 -19.65662 0)
(144.25781 -18.174224 0)
(146.43866 -15.446628 0)
(146.26447 -11.967184 0)
(144.63857 -10.768965 0)
(143.25526 -10.900758 0)
(142.63852 -11.370379 0)
(142.04304 -10.884922 0)
(141.16563 -10.369116 0)
(141.99173 -10.532128 9.2157707e-18)
(143.27224 -11.921802 -2.039663e-19)
(145.57726 -13.589594 0)
(146.66477 -7.4755453 1.0016067e-17)
(144.0282 -14.51005 -7.4990622e-18)
(161.53017 -10.135072 4.4273292e-18)
(180.41243 5.4383807 -9.8916345e-18)
(167.93166 72.289495 6.3471827e-18)
(142.12824 58.029221 0)
(140.66652 37.126152 0)
(141.63428 24.706923 0)
(143.57067 17.830773 0)
(145.29833 13.69264 0)
(146.55469 10.912849 0)
(147.47727 8.891306 0)
(148.16032 7.3301404 0)
(148.67269 6.0680695 0)
(149.06042 5.0101301 0)
(149.35481 4.0963442 0)
(149.57745 3.2864568 0)
(149.74366 2.551973 0)
(149.86425 1.8717968 0)
(149.94526 1.2294452 0)
(149.98814 0.61031299 0)
(129.54799 -2.8693143 0)
(128.76409 -2.9446575 0)
(128.16038 -3.0084926 0)
(127.4861 -3.1100022 0)
(126.76119 -3.2511097 0)
(125.96659 -3.4389884 0)
(125.08413 -3.6816047 0)