# Probe 0 (0.012 0 0)
# Probe 1 (0.05 0 0)
#         Probe               0               1
#          Time
         3.0005               0               0
          3.001               0               0
         3.0015               0               0
          3.002               0               0
         3.0025               0               0
          3.003               0               0
         3.0035               0               0
          3.004               0               0
         3.0045               0               0
          3.005               0               0
         3.0055               0               0
          3.006               0               0
         3.0065               0               0
          3.007               0               0
         3.0075               0               0
          3.008               0               0
         3.0085               0               0
          3.009               0               0
         3.0095               0               0
           3.01               0               0
         3.0105               0               0
          3.011               0               0
         3.0115               0               0
          3.012               0               0
         3.0125               0               0
          3.013               0               0
         3.0135               0               0
          3.014               0               0
         3.0145               0               0
          3.015               0               0
         3.0155               0               0
          3.016               0               0
         3.0165               0               0
          3.017               0               0
         3.0175               0               0
          3.018               0               0
         3.0185               0               0
          3.019               0               0
         3.0195               0               0
           3.02               0               0
         3.0205               0               0
          3.021               0               0
         3.0215               0               0
          3.022               0               0
         3.0225               0               0
          3.023               0               0
         3.0235               0               0
          3.024               0               0
         3.0245               0               0
          3.025               0               0
         3.0255               0               0
          3.026               0               0
         3.0265               0               0
          3.027               0               0
         3.0275               0               0
          3.028               0               0
         3.0285               0               0
          3.029               0               0
         3.0295               0               0
           3.03               0               0
         3.0305               0               0
          3.031               0               0
         3.0315               0               0
          3.032               0               0
         3.0325               0               0
          3.033               0               0
         3.0335               0               0
          3.034               0               0
         3.0345               0               0
          3.035               0               0
         3.0355               0               0
          3.036               0               0
         3.0365               0               0
          3.037               0               0
         3.0375               0               0
          3.038               0               0
         3.0385               0               0
          3.039               0               0
         3.0395               0               0
           3.04               0               0
         3.0405               0               0
          3.041               0               0
         3.0415               0               0
          3.042               0               0
         3.0425               0               0
          3.043               0               0
         3.0435               0               0
          3.044               0               0
         3.0445               0               0
          3.045               0               0
         3.0455               0               0
          3.046               0               0
         3.0465               0               0
          3.047               0               0
         3.0475               0               0
          3.048               0               0
         3.0485               0               0
          3.049               0               0
         3.0495               0               0
           3.05               0               0
         3.0505               0               0
          3.051               0               0
         3.0515               0               0
          3.052               0               0
         3.0525               0               0
          3.053               0               0
         3.0535               0               0
          3.054               0               0
         3.0545               0               0
          3.055               0               0
         3.0555               0               0
          3.056               0               0
         3.0565               0               0
          3.057               0               0
         3.0575               0               0
          3.058               0               0
         3.0585               0               0
          3.059               0               0
         3.0595               0               0
           3.06               0               0
         3.0605               0               0
          3.061               0               0
         3.0615               0               0
          3.062               0               0
         3.0625               0               0
          3.063               0               0
         3.0635               0               0
          3.064               0               0
         3.0645               0               0
          3.065               0               0
         3.0655               0               0
          3.066               0               0
         3.0665               0               0
          3.067               0               0
         3.0675               0               0
          3.068               0               0
         3.0685               0               0
          3.069               0               0
         3.0695               0               0
           3.07               0               0
         3.0705               0               0
          3.071               0               0
         3.0715               0               0
          3.072               0               0
