/*--------------------------------*- C++ -*----------------------------------*\
| =========                 |                                                 |
| \\      /  F ield         | foam-extend: Open Source CFD                    |
|  \\    /   O peration     | Version:     4.1                                |
|   \\  /    A nd           | Web:         http://www.foam-extend.org         |
|    \\/     M anipulation  |                                                 |
\*---------------------------------------------------------------------------*/
FoamFile
{
    version     2.0;
    format      ascii;
    class       volScalarField;
    location    "0.1";
    object      p;
}
// * * * * * * * * * * * * * * * * * * * * * * * * * * * * * * * * * * * * * //

dimensions      [0 2 -2 0 0 0 0];

internalField   nonuniform List<scalar> 
4242
(
-0.66793355
-0.65564118
-0.6438177
-0.62204021
-0.59094734
-0.55516745
-0.51637876
-0.47350704
-0.42804478
-0.3806381
-0.33239596
-0.28465487
-0.23885688
-0.19669913
-0.15960634
-0.12446523
-0.69270724
-0.67678137
-0.66543018
-0.64873325
-0.62649197
-0.60068886
-0.57176414
-0.53883175
-0.50246345
-0.46267932
-0.42007081
-0.37550364
-0.33008838
-0.28529001
-0.24285188
-0.20269606
-0.86349961
-0.84046543
-0.82513192
-0.80381142
-0.77687061
-0.74577772
-0.71136243
-0.67327295
-0.63190433
-0.58724243
-0.53970196
-0.48985662
-0.43848546
-0.38656772
-0.33538478
-0.28702678
-1.1056452
-1.0748833
-1.0554403
-1.0273219
-0.99286339
-0.95287522
-0.90831103
-0.85909743
-0.80562675
-0.7481762
-0.6874587
-0.62435285
-0.5599379
-0.49535909
-0.43176047
-0.37176983
-1.2984806
-1.2612092
-1.2397665
-1.206835
-1.1677106
-1.1219406
-1.0705584
-1.0135374
-0.95113724
-0.88373736
-0.8121874
-0.73759854
-0.66137263
-0.58504173
-0.5100017
-0.43757191
-1.4135125
-1.3712764
-1.3485468
-1.3123615
-1.2709831
-1.2221325
-1.1671893
-1.1061126
-1.0390499
-0.9663808
-0.88893193
-0.80784944
-0.72463516
-0.64102868
-0.55880297
-0.48047528
-1.4565044
-1.4113066
-1.3880618
-1.3504482
-1.3086237
-1.2586877
-1.2025029
-1.140017
-1.0713246
-0.99681288
-0.91728403
-0.83388384
-0.74812516
-0.66180389
-0.57668377
-0.49557928
-1.4319662
-1.3860955
-1.3627974
-1.3254663
-1.2845985
-1.2354884
-1.1801504
-1.1185905
-1.0508935
-0.97746031
-0.89907999
-0.81689346
-0.73239416
-0.64736807
-0.56348062
-0.48394222
-1.3424973
-1.29866
-1.2756763
-1.2401015
-1.201384
-1.1549942
-1.1025508
-1.0441944
-0.98003623
-0.910484
-0.8363086
-0.7586324
-0.67892517
-0.59898767
-0.52048883
-0.44665259
-1.1949043
-1.1559672
-1.133787
-1.1011306
-1.0656668
-1.0236783
-0.97602304
-0.92297274
-0.8646762
-0.80152184
-0.73423479
-0.66387187
-0.59181304
-0.51977487
-0.44938358
-0.38368741
-0.9970438
-0.96558719
-0.94555631
-0.9172787
-0.88647814
-0.85057174
-0.80957886
-0.76378512
-0.71336464
-0.6586757
-0.60039107
-0.53947816
-0.47715145
-0.41482501
-0.35360957
-0.29476662
-0.78839429
-0.76479132
-0.7470923
-0.72485283
-0.69979409
-0.67041701
-0.63642933
-0.59806805
-0.55552804
-0.50921645
-0.45988453
-0.40856938
-0.35650755
-0.30506882
-0.25540749
-0.20615872
-0.17186911
-0.15534917
-0.15209809
-0.14754634
-0.13513643
-0.11914925
-0.10347459
-0.086194013
-0.067912471
-0.049273881
-0.030878855
-0.013459954
0.0021445194
0.014990402
0.025102532
0.03535257
0.039773958
0.062261658
0.065912253
0.064666501
0.070902364
0.082522592
0.09351281
0.1043963
0.11487889
0.1243316
0.13221219
0.13793883
0.14090229
0.14043443
0.13626525
0.13020016
0.24143311
0.25932849
0.26611368
0.26793038
0.27113246
0.2757202
0.27939722
0.28217134
0.28385383
0.28384558
0.28158091
0.2765105
0.26807894
0.2557337
0.23963177
0.22253098
0.40807782
0.41701761
0.41867326
0.41584034
0.41427374
0.4152227
0.41536932
0.41390855
0.41045358
0.4044335
0.39526905
0.38241301
0.36532379
0.34356666
0.31774704
0.2912287
0.5160154
0.51811441
0.51681078
0.51451521
0.51355622
0.51193149
0.50857321
0.50328004
0.49552092
0.48471933
0.47032139
0.45182634
0.42877077
0.40097219
0.36993905
0.34078309
-0.86420324
-0.84115965
-0.82583388
-0.80452092
-0.77758845
-0.74650524
-0.71209711
-0.67401255
-0.6326438
-0.58797409
-0.54041807
-0.49055217
-0.43916108
-0.38727443
-0.3363634
-0.28849622
0.54623269
0.54552755
0.54442843
0.54286102
0.54060924
0.53728897
0.53249464
0.52579283
0.51669753
0.50469782
0.48930623
0.47010918
0.44681044
0.41935616
0.3883054
0.35539195
0.54688309
0.54616832
0.54505925
0.54347431
0.54119496
0.53783592
0.53299011
0.52622247
0.51704715
0.5049572
0.48947436
0.47020002
0.44686709
0.4195028
0.38886304
0.35689737
0.51654166
0.51861415
0.51729835
0.51499284
0.51401707
0.51236199
0.50896382
0.50361669
0.49578762
0.48490219
0.47041386
0.45183356
0.42872105
0.40097058
0.37024933
0.34162667
0.40766772
0.41662018
0.41830135
0.41550314
0.41396656
0.41491104
0.4150366
0.41354076
0.41002872
0.40392625
0.39465585
0.38165621
0.36429112
0.34197997
0.31575137
0.29111649
0.2402726
0.25841905
0.26536218
0.26723988
0.27046562
0.27508298
0.27878639
0.2815871
0.28329445
0.28331142
0.28108221
0.27604842
0.26751924
0.25468801
0.23839024
0.22523313
0.03968719
0.062158154
0.065746498
0.06444641
0.07069817
0.082423572
0.093512855
0.10451032
0.1151267
0.1247368
0.13280703
0.13875794
0.14194605
0.14167584
0.13786596
0.131964
-0.17095637
-0.15455218
-0.15134132
-0.14679686
-0.13439544
-0.11838708
-0.10270091
-0.085397849
-0.067086905
-0.048418264
-0.030000823
-0.012584656
0.0029544809
0.015611525
0.025345633
0.035323776
-0.78765387
-0.76406963
-0.74636445
-0.72412634
-0.69906769
-0.66969328
-0.6357088
-0.59735013
-0.55481089
-0.50849623
-0.45915417
-0.40781533
-0.35569733
-0.30413901
-0.25398082
-0.20515936
-0.99652762
-0.96508532
-0.94504373
-0.91676737
-0.88596601
-0.85006587
-0.80908277
-0.76330256
-0.71290061
-0.65823722
-0.59998917
-0.53913213
-0.4768976
-0.41476152
-0.35388193
-0.29671229
-1.1946811
-1.1557483
-1.1335563
-1.1009005
-1.0654356
-1.0234549
-0.97581131
-0.92277687
-0.86450135
-0.80137425
-0.7341221
-0.66380265
-0.59179519
-0.51982198
-0.449386
-0.38384905
-1.3425035
-1.2986614
-1.2756682
-1.2400938
-1.2013775
-1.1549979
-1.1025691
-1.0442316
-0.98009764
-0.91057595
-0.83643902
-0.75881154
-0.67917034
-0.59933549
-0.52092763
-0.44766917
-1.4320845
-1.3862057
-1.3629038
-1.3255753
-1.2847146
-1.2356193
-1.1803004
-1.1187633
-1.0510928
-0.97769005
-0.89934396
-0.81719572
-0.73274285
-0.64777015
-0.56389267
-0.48470179
-1.4566314
-1.4114285
-1.388188
-1.3505823
-1.3087731
-1.2588593
-1.2027003
-1.1402434
-1.0715823
-0.99710371
-0.91760853
-0.83424242
-0.74852029
-0.66222703
-0.57712365
-0.49634633
-1.4136269
-1.3713899
-1.3486749
-1.3125059
-1.2711513
-1.222331
-1.167421
-1.10638
-1.0393542
-0.96672215
-0.889309
-0.8082615
-0.72508114
-0.64149455
-0.55931694
-0.48124547
-1.2986458
-1.261375
-1.2399542
-1.2070451
-1.1679488
-1.1222115
-1.0708636
-1.0138787
-0.95151513
-0.88415158
-0.81263767
-0.7380871
-0.66190039
-0.58560352
-0.5106703
-0.43850076
-1.1060127
-1.075247
-1.0558231
-1.0277237
-0.99328651
-0.953322
-0.90878145
-0.85959237
-0.80614593
-0.7487192
-0.68802689
-0.62495229
-0.56057565
-0.49605392
-0.43264597
-0.37297529
-0.69376645
-0.67783636
-0.6664858
-0.64978518
-0.6275409
-0.60173435
-0.57279538
-0.53983796
-0.50342949
-0.46358559
-0.42089536
-0.37622528
-0.33070154
-0.28586777
-0.24359328
-0.20333231
-0.6693303
-0.6570329
-0.64517426
-0.62331833
-0.59213924
-0.55628448
-0.51741352
-0.4744592
-0.42891031
-0.38141065
-0.33307079
-0.28523841
-0.23939418
-0.19733491
-0.16063711
-0.12619547
-0.41653375
-0.40656083
-0.39167396
-0.37200789
-0.35158073
-0.32970764
-0.30612043
-0.28113401
-0.25504786
-0.22816065
-0.20081638
-0.17340599
-0.14640124
-0.12039624
-0.096498892
-0.074922084
-0.250129
-0.24423905
-0.23398991
-0.22287234
-0.21116465
-0.19740115
-0.18124284
-0.16300615
-0.1429938
-0.12157166
-0.09928981
-0.076863849
-0.055121089
-0.034910572
-0.017232465
-0.0026198465
-0.081657732
-0.073917616
-0.066603547
-0.060170814
-0.052366754
-0.042066433
-0.029680242
-0.015856127
-0.00099491524
0.014512607
0.03012396
0.045169263
0.058928861
0.070772173
0.080275283
0.087960147
0.078419873
0.082609077
0.084532304
0.088727538
0.09557485
0.10465204
0.11523374
0.12653735
0.13788101
0.1486115
0.15804895
0.1655109
0.17036845
0.17212862
0.17047357
0.16587005
0.21812206
0.22054404
0.22182267
0.22382261
0.22762564
0.23272705
0.23872131
0.24505151
0.25098216
0.25573541
0.2585445
0.25868308
0.25553244
0.24868532
0.23803543
0.22426462
0.31031207
0.31166764
0.31241242
0.31370904
0.3162059
0.32003856
0.32479895
0.3294658
0.33306234
0.33460229
0.33318698
0.32808699
0.31877993
0.30497669
0.28660042
0.26380957
0.31023371
0.31159281
0.31233801
0.31363402
0.3161319
0.31996712
0.32473381
0.32941046
0.33302052
0.33457943
0.33319204
0.32813579
0.31890297
0.30524029
0.28715796
0.26517335
0.21797344
0.22041145
0.22169325
0.22368906
0.22749381
0.23260325
0.2386093
0.24495475
0.25090438
0.25567953
0.25851054
0.25866348
0.25549983
0.24856427
0.23759435
0.22309876
0.078500046
0.082683998
0.084604388
0.088797646
0.095658964
0.10476012
0.11537358
0.12671858
0.13811641
0.14891849
0.15845282
0.16605049
0.17110694
0.17318679
0.17205217
0.1688979
-0.081216168
-0.073446627
-0.066134759
-0.059705272
-0.051894114
-0.04157757
-0.029167313
-0.015309462
-0.00040108143
0.015172355
0.030876232
0.046052519
0.060001652
0.072134818
0.081958265
0.090316321
-0.24923142
-0.24332986
-0.23308609
-0.22198432
-0.21029261
-0.19654258
-0.18039386
-0.16216112
-0.14214475
-0.12070806
-0.09839872
-0.075931438
-0.054131742
-0.033852279
-0.016220504
-0.0002608191
-0.41537176
-0.40541794
-0.39054322
-0.37089821
-0.35049279
-0.32864498
-0.30508503
-0.28012559
-0.25406376
-0.22719577
-0.19986355
-0.17245799
-0.14545011
-0.11947672
-0.095817652
-0.073758149
-0.19433318
-0.40519243
-0.41548208
-0.35704711
-0.32137105
-0.30285258
-0.27354671
-0.2429343
-0.2111003
-0.17871609
-0.14694565
-0.11697399
-0.09029188
-0.067391767
-0.043529638
-0.19414537
-0.40641355
-0.41661397
-0.35793229
-0.32225921
-0.30368274
-0.27434177
-0.24369048
-0.21180653
-0.17936504
-0.14753021
-0.11748888
-0.090739731
-0.067675301
-0.044299701
-0.41584399
-0.549579
-0.51988338
-0.50257427
-0.47791717
-0.45019933
-0.42023054
-0.38754436
-0.35250773
-0.31572362
-0.27788932
-0.23981451
-0.20256797
-0.16723558
-0.12662014
-0.41671044
-0.55058617
-0.52080367
-0.50348316
-0.47879622
-0.45105077
-0.42105722
-0.38835079
-0.35330156
-0.31651688
-0.27869879
-0.24067161
-0.20341575
-0.16845456
-0.13266751
-0.077565426
-0.077075814
-0.35874235
-0.35934502
0.016127242
-0.030248104
0.099730696
-0.028559075
-0.0052329389
0.0039970383
0.0062282607
0.019566216
0.01902667
-0.028574687
-0.034880476
0.00013131482
0.061307553
-0.053176368
0.0099641219
-0.05514226
-0.0228047
-0.079384545
-0.022846956
-0.080652675
-0.02433954
0.063961507
0.021088034
0.025877842
0.039494303
0.0045532166
-0.016600315
-0.082261053
-0.034572593
-0.14838529
0.0051256309
-0.020538592
-0.035360849
-0.053658868
0.052209818
-0.025793916
0.00092421233
0.048202694
-0.038488004
-0.025389548
0.044245055
0.00063499551
0.019177925
-0.14423148
0.018610974
0.12725136
-0.0095519392
0.035369852
0.015326884
0.014894987
-0.17513568
0.22313764
0.061521058
-0.034993872
-0.16495087
-0.041467758
-0.037509163
0.007394634
0.024749465
-0.014880921
-0.012061985
0.015417018
0.014151696
-0.023009302
-0.19076226
-0.019416201
0.0033756859
-0.0043496119
-0.036073687
-0.010559177
0.007758347
-0.039660794
0.010334202
-0.0007160564
-0.00090223225
0.021444748
-0.0051131013
0.0085211804
-0.0019334209
-0.0023179131
0.024071936
-0.12315332
-0.15869655
-0.014031776
-0.028144561
-0.040365945
0.02285603
-9.968826e-05
-0.15067824
-0.0008573417
-0.015499353
0.0031475366
0.14197775
-0.049924461
0.041926806
0.050953861
3.3740161e-05
0.11272338
-0.16625723
0.056766888
-0.00061916453
-0.022237736
0.0039461351
0.00071733483
-0.020735696
-0.059065624
-0.033933566
-0.0005888251
-0.038275548
-0.15388643
-0.20032597
0.073740683
-0.039113128
0.040872879
-0.089125023
-0.0016835488
0.085556107
0.0006727527
-0.00036315571
0.077252886
0.070896314
-0.043900416
0.14093777
-0.034673
-0.084504728
0.20081175
-0.014940885
-0.13213781
0.0019635853
0.064388712
-0.051055722
0.036339301
0.00033324659
0.00050341816
0.0026885941
-0.050165834
0.11774521
-5.0140349e-05
-0.17095227
-0.01818991
0.04077097
-0.023368498
-0.015424344
0.0063970475
-0.00013790143
-6.5464421e-05
-0.013654725
-0.0034128613
-0.0070198717
0.013086726
0.012137766
-0.013371378
0.0074623719
0.084482184
-0.0011801427
0.035784788
-0.14273861
-0.016309654
-0.0023868061
0.0007092209
-0.39639217
-0.39492475
0.045436726
0.065944626
-0.012708507
-0.00017339894
-0.0074040524
0.011271834
-0.074706025
-6.9496664e-05
-0.056205397
0.13349369
0.012472236
0.0012749765
-0.011586095
0.044936972
-0.0062427123
-0.00026177623
-0.017486303
0.018462435
0.01429602
-0.068666279
-0.052183046
0.0072858171
0.012032408
0.019667952
0.041569388
0.011675521
0.024692676
-0.021269113
-0.00097672042
0.0021752253
-0.092040303
0.11720263
-0.018149725
0.026997763
0.0014352193
0.0049428788
0.0083359718
0.14965076
0.013734898
0.0099552885
-0.086445673
-0.0094195316
0.067773051
0.025283796
0.056467087
-0.0023520318
0.082960933
0.00060810381
-0.015760701
-0.0055533761
-0.0092295222
0.0056940207
-0.00083691427
0.0004382215
-0.00084982365
0.036490488
0.048537531
0.036219925
-0.029336757
-0.039491464
-0.003918775
-0.00048925317
-0.029651638
0.12416254
0.068479924
-0.00036337069
-0.046609303
0.032198379
0.12855509
0.0998238
-0.001052067
-0.060625899
-0.10244066
0.0062230146
-0.0028775403
0.038504213
-0.023997743
-0.0009474431
0.0046702253
0.00057296724
0.01116874
-0.057609462
0.095525182
-0.01824958
-0.049560118
0.025080689
0.0018347111
-0.064871788
0.013287606
0.13906875
0.00062697228
0.00046765898
-0.0053545352
0.000306438
0.057462438
0.0092904302
-0.00074907783
-0.021616824
-0.027307816
8.2006992e-05
-0.00066888366
-0.0012240914
-0.018643161
-0.00076706287
0.0041719018
-0.033323389
0.0012503983
-0.024766138
-0.00075884736
-0.021465841
-0.0079423608
0.06029125
-0.069380414
-0.0014059429
0.086850544
0.069881189
-0.0057898635
0.0024931264
0.040523871
0.00079906181
0.0042273004
-0.13501548
0.10463696
-0.017157225
0.0031427875
-0.013198216
0.011176104
-0.0039443114
0.013310889
0.06622394
-0.13114185
0.00014858514
0.087491882
-0.043235625
0.0058050186
0.041536891
0.0092038547
-0.033528084
0.013147335
-0.099604928
-0.068842551
0.10176731
0.13822424
-0.046743182
0.0081745702
-0.0068658696
-0.017555828
0.047167747
-0.07503226
-0.028964363
0.0025726792
-0.034453389
-0.012301184
0.00078235823
0.010050943
0.0036624575
0.16838316
-0.026069035
-0.11754664
0.054376211
0.0001451848
-0.00068619424
0.0046673593
-0.019049719
-0.12245734
0.0018678911
0.0021582532
-4.0245468e-05
0.22180517
0.038898685
-0.018824302
0.033403685
-0.034702886
-0.10191698
-0.026197421
0.0011151886
-0.0011879244
0.0039205821
-0.14709309
-0.041701981
0.0030672422
0.076335137
6.3948457e-06
0.002121822
-0.14202462
0.011955657
-0.068736724
0.00046541947
0.00084021024
-0.19613833
0.030115229
0.0090022089
-0.0040719419
-0.13907619
-0.033542243
0.0087296432
-0.062448095
0.022449186
0.012236034
0.027854483
0.00035662687
-0.17725859
0.1109917
0.051163449
0.012466592
-0.12295593
0.0013506547
0.062742036
-0.13519389
-0.16933236
0.14577958
-0.0088457947
0.0095193217
0.01378407
0.052169875
-0.057587069
-0.16500958
0.011239854
-0.046229029
0.065189337
0.051097562
0.037688
-0.056731619
-0.012201891
0.0089476366
5.0983405e-05
0.0071181262
-0.21747642
0.00053875173
0.010179518
-0.21280277
0.0012431536
0.010159038
-0.021474513
0.0015800995
0.042198412
0.20316501
-0.035967349
0.00025180429
-0.026105243
0.004041357
-0.10504767
0.031874591
-0.01000657
-0.015419766
-0.0035664347
0.027279348
0.0012310634
-0.013985003
0.02640089
-0.00072395165
-0.0074548103
-0.010456797
0.011127386
0.012626009
-0.00010495924
-0.02353925
0.0010249715
-0.026946454
0.0026367618
-0.015233443
0.02249968
0.068481006
0.1040488
-0.10478218
0.00076918219
0.056370254
0.0039233965
0.014143396
0.012334255
-0.033458005
-0.035521165
0.20289242
0.0064285921
0.0025120079
-0.10656218
-0.10341143
-0.018141889
-0.14716009
-0.052562441
-0.028742281
0.0022948504
-0.11578064
-0.03809048
0.00056131731
0.00015241284
-0.016794988
0.033215811
0.0011726125
-0.050769312
-0.11250064
0.00051481702
-0.057724068
0.0088826402
-0.045078661
-0.007838545
0.00034466487
0.013860567
0.015402094
0.076596044
0.0078517482
-0.02831955
0.0091250199
0.027562039
0.023427273
0.044414509
0.056281022
-0.023375391
0.17137765
6.5606016e-05
0.094414114
-0.0040577089
-0.0049032346
-0.033066573
-0.0012250745
4.524605e-05
0.22948573
-0.00043836381
-0.02954318
-0.072083596
-0.040164431
5.6561728e-05
-0.06891828
-0.15968957
0.0031812363
0.037768679
0.021348007
-0.18308936
0.11693864
0.00018711855
-0.054812816
-0.026067863
-0.15528953
0.012761833
-0.0064431723
0.015669337
0.00072457744
-0.011343459
0.016859601
-0.008373708
0.096370525
0.011598266
0.0099357557
-0.049056715
-0.37670944
-0.020744778
0.00024523269
0.076314622
0.0010192698
-0.0015886212
-0.032341735
-0.01618871
-0.069738254
-0.37527994
-0.0025010871
0.024419136
-0.0053868789
0.029774248
-0.0013246609
-0.028973287
0.021982385
-0.0033734267
-0.17863056
-0.013556906
-0.085226522
0.0183576
-0.12839426
0.068372184
0.012830133
-0.14428053
0.065366448
0.0059527841
-0.19955815
0.062208169
0.016824629
0.017137903
0.026211089
0.023716713
-0.34853582
-0.046995728
-0.12191572
0.00097295586
-0.11794356
0.15353003
0.030172544
0.029350888
0.013787255
-0.044572382
-0.02673951
0.0038286782
-0.00018235078
0.059853841
-0.099596443
-0.033049768
0.0044826067
-0.34832053
0.10126353
-0.089562358
-0.049765589
-0.010541459
-0.12696981
-0.089811607
-0.0011094481
-0.21046545
-0.019160938
0.0013937214
0.024439633
0.026343383
-0.029442147
-0.10359144
-0.12310408
0.063939986
0.09728326
0.091351404
0.015105615
0.0076335168
0.028244009
0.055672753
0.10268034
0.043473157
0.13909746
0.0012049758
0.02275023
0.041744477
0.0010096545
-0.017715662
0.012607516
0.035813504
0.068214094
0.014138046
-0.21231851
0.022962705
-0.0056822623
0.22906329
0.030435323
-0.00030913711
0.21939226
0.065251272
-0.019102569
-0.031732883
0.11531299
0.21798907
-0.08757897
0.022619023
0.051836995
-0.0018265304
0.12690754
0.050818239
0.057094831
-0.034628753
1.1488955e-05
0.1249604
0.058671757
0.22875422
0.016061629
0.0022725685
0.021356237
-0.045724
0.017026895
-0.035966684
-0.18843696
0.22731278
-0.00025772314
-0.00050474496
-0.024175651
0.10451219
0.08333294
-0.068150492
-0.093081774
0.0051882725
0.052319337
-0.075922422
-0.18369932
-0.046478001
-0.077754065
0.012885844
0.012213825
-0.0013364472
0.0086540448
-0.0088464051
0.076268261
-0.018503913
-0.051173722
0.035009737
-0.032969908
-0.0081711701
-0.11792943
0.18706998
-0.088133394
0.012552687
-0.00035745573
0.0064935274
0.024277196
-0.013916235
0.21466221
-0.019953717
0.00030458803
0.037689889
-0.00018392007
-0.18284293
-0.00093517936
-0.036412298
0.0011768813
-0.024066051
0.020082512
-0.12231651
0.095169402
-0.079455983
0.0016669862
0.019099085
-0.081207091
0.073181879
-0.0013371235
0.10236993
0.016546943
0.27275828
0.033393872
-0.018021795
-0.17896528
0.16257475
-0.092558004
0.0002954707
0.0013040357
-0.00087702724
0.0024244682
-0.14669855
0.029472025
0.021006989
0.099949066
-0.32077501
0.0017211897
0.052957923
-0.00068248014
-0.32155564
0.07224405
0.00085801536
-0.085604466
0.00075711851
0.0031420771
0.058966155
-0.041667678
-0.22797389
0.018334491
-0.018369478
3.464121e-05
0.00014131158
-0.029795896
-0.044955607
0.044857039
-0.0093880589
0.11220282
-0.011628976
0.09147955
-0.23319418
-0.0039992232
-0.019294128
-0.22803086
0.027832504
0.059938055
7.3826788e-05
-0.030588524
-0.00084274996
0.052119101
0.045304953
-0.04702219
0.011026646
0.00035833891
-0.0315123
0.10167629
0.12078837
0.025285821
0.027414305
0.1139406
0.0017664408
-0.2225866
0.039548716
-0.0082288949
-0.060577182
-0.0039629463
-0.012809974
-0.024468854
-0.001098841
0.042318496
-0.041421681
0.0073676283
-0.00024323523
-0.086943403
-0.034947622
-0.016872922
-0.033900973
-0.012969526
-0.12496861
-0.089305598
-0.086777328
0.026801734
-0.076525564
0.10596417
0.004613035
0.018354948
-0.032124999
0.020054406
-0.12156536
0.014172978
-0.039886634
-0.1300822
-0.038205507
-0.0078563946
-0.080621241
-0.031608867
-0.012712092
0.001935417
-0.028518675
0.05180467
-0.0044206121
0.0015356661
0.022568398
0.054978211
-0.043727033
0.10186059
-0.05526291
0.32192771
0.080132692
-0.053258713
-0.015911581
0.0002764522
0.021938377
0.071427744
-0.027947927
0.0011689553
0.00015268417
0.0061069437
0.03880948
-0.00098106861
0.00089009874
-0.0024864586
-0.00011691771
0.098315589
-0.00056754279
0.047302111
0.069366359
0.059241086
0.055676623
0.043832181
0.02190983
0.0004435806
0.029057917
-0.016109367
-0.011837418
8.0601638e-06
0.0021200633
0.10452818
-0.041143895
-0.094758471
0.022052691
0.061706891
-0.014164265
0.067343828
0.029920953
-0.030502043
0.12658465
0.0026971584
-0.0070405781
-0.0031464666
0.0001087174
-2.2412905e-05
-0.0066691995
0.0033071042
0.22574043
-0.0088823688
-0.016195991
0.039212621
0.0036981495
0.0053618077
0.00086960972
-0.00010526671
0.062488022
-0.02805293
-0.022828965
0.0014235044
0.028888957
0.0055249588
0.015404369
-0.010724899
-0.00028529407
0.00059932645
0.038795041
0.050472928
0.031474988
-0.03512693
0.00022616524
0.0064602556
-0.055952643
0.017907193
0.0037792056
-0.016361991
0.2100953
-0.040330454
0.20840186
-0.073199504
-0.049329548
0.0071852776
-0.019929311
0.026643083
0.00097371754
0.081379052
0.0087685775
0.052183742
-0.0064328217
-0.039902911
-0.027639738
-0.2185745
0.017042068
-0.00058957346
-0.019582766
0.060639405
-0.03819271
0.110753
-0.01687128
-0.011352916
0.049926154
0.020131364
0.005791566
0.011038378
-0.0071230523
-0.21436122
0.0056556806
0.31609714
-0.15859434
-0.046214783
0.0059658788
0.1817276
0.023855713
-0.22871367
-0.032732186
0.0008935405
-0.018205381
-0.037684368
-0.20496848
-0.01153015
0.02428726
-0.20111328
-0.043463951
0.071525167
0.0055266554
-0.0054749967
-0.010421271
0.0094492323
0.03632883
4.1202981e-05
0.025259189
0.0034842625
-0.00024981614
-0.020292611
0.06847297
0.042917188
0.10490893
0.056301776
-0.08751361
-0.15432106
0.049555564
-0.050229384
0.005427957
-0.20222864
-0.070997674
-0.034786609
-0.028353061
-0.061583147
0.05997944
-0.013234234
0.0004095533
-0.029857381
-0.0064402899
0.1757628
-0.01820151
0.0034049988
0.0037651435
-0.2079801
-0.024476585
0.0021409596
0.00060938225
0.00049331725
0.029710601
0.017231459
0.28362262
0.0062377162
0.00073804706
-0.0029731937
-0.0065216001
-0.19137572
-0.09606616
-0.026970096
-0.042149186
-0.048903335
0.099528249
0.16338319
-0.17379098
0.00038440786
0.072206463
-0.21119716
-0.014070147
0.035489169
-0.16239262
-0.15273995
0.03455453
0.0015168187
0.026097011
-0.00029382796
0.011898031
-0.05458378
0.056945961
0.1245114
-0.16010833
0.0032559752
0.14188753
-0.0032798865
0.025642592
-0.0072370508
0.086380164
-0.00038935427
-0.0097679273
0.0042160795
0.00067909219
-0.0083013176
-0.070296119
0.25898825
-0.13308856
-0.083069823
-0.0029496033
-0.11237652
0.16303395
-0.092865091
0.23125447
-0.043991191
-0.095316031
0.0012604234
0.018188841
0.014003462
-0.050096027
0.0063647799
-0.13757795
0.027853652
0.047117734
0.11664786
-0.063427975
-0.042809939
0.057604551
-0.022636588
0.0035285917
-0.0042971264
-0.21769814
-0.13793518
-0.018492713
-0.0248611
-0.03395016
0.0014539089
0.025509965
0.069358337
0.027875368
-0.14390159
0.0010794105
-0.088662735
0.02589997
0.003382125
0.11925185
0.22617411
0.00032578876
0.059087099
-0.016167716
0.070977962
0.0074199531
-0.016147128
0.035124716
0.15691477
-0.41263353
0.076478563
-0.0016889116
-0.11729225
0.00030165259
-0.41104761
-0.00097128089
0.039166252
-0.044384278
0.00026593288
0.031927707
-0.0091479596
0.012948364
-0.1517021
-0.23405502
-0.0044133192
0.011707416
0.0026216102
-0.0059808383
0.099966024
-0.10785319
-0.10582816
0.19507578
0.0014016285
-0.11301458
0.0028150455
0.032182897
0.040263074
-0.12829153
0.0090925391
0.0099455646
-0.011678237
-0.0069921412
-0.051224611
-6.9921749e-05
0.0016658512
-0.18857865
0.011043444
0.0043623647
-0.026796318
-0.0082859819
-0.27477201
-0.0050951171
0.19565001
-0.2708913
0.093587262
-0.12754591
-0.0017895972
0.069855586
-0.0011177736
-0.022759432
-0.37390664
-0.036362289
0.25801024
0.0028669962
-0.18381268
-0.10937499
0.028573806
-0.37200016
0.029699743
-0.0061746239
0.10911889
0.0061507508
0.012463452
-0.0014621447
0.08019422
-0.032329659
0.00017507538
-0.0036701852
-0.14022126
3.4325508e-05
0.016912048
-0.035194366
-0.027584152
0.0020503419
0.00039795455
0.051205412
0.3242551
-0.0032431279
0.13503646
-0.028081558
0.080905929
0.02064283
0.026859033
0.20108928
-0.0016218953
0.10385121
0.15071572
-0.050067083
0.14498974
-0.1790728
-0.034431511
-1.5533705e-05
0.028206769
-0.0055571871
0.00012533899
-0.013038272
0.0066236005
0.014671991
-0.06929663
0.28384812
-0.083577778
0.054306423
-0.17458191
0.045548864
0.03301985
-0.042524287
0.12919629
0.23432302
0.031245805
0.033564881
-0.0064620398
-0.0015167434
0.014654425
-0.010853791
-0.0051945254
-0.31820451
-0.31608438
0.0005251444
-0.015413721
-0.0057602864
0.00099436479
-0.021482757
-0.0021798865
-0.0042040963
-0.098230042
0.0006088152
-0.0342016
-0.045882033
-4.4311648e-05
-0.032415305
0.028030335
-0.0271313
0.0014398117
0.019141112
-0.40095232
0.073899882
0.0011253627
0.031412661
0.064050814
-0.061357198
-0.39929487
-0.00052699675
0.0081689373
-0.059508166
0.036235814
-0.0050447066
-0.32219489
-4.3750924e-05
0.10130549
-0.02277452
0.00054331705
-0.00027501268
-0.015979136
-0.31836048
0.182588
0.0012566389
-0.042126521
2.0092027e-05
-0.037863498
-0.15624437
0.048783466
0.084679087
-0.0018887078
0.036940498
-0.0017972772
-0.069364676
-0.15190195
0.0052935806
-0.010491346
-0.032132223
-0.064044432
0.0057459822
0.30306777
-0.00064546279
0.16358995
0.0094006462
0.18408481
-0.072220095
-0.050901188
-0.00051512375
0.020682459
0.020902822
0.077351664
-0.032307942
0.00018458449
0.093051002
0.039454039
-0.0024048887
0.027115387
-0.0023654544
0.068766958
0.031201516
0.00026983841
0.014458903
-0.0056694668
-0.018020359
-0.01117112
0.018181062
0.10931549
0.035662196
0.0081576612
-0.19204852
0.031296996
0.052304611
0.0097795114
-0.018931645
-0.0031360792
-0.00057956367
0.20184092
-0.017490259
-0.011568363
-0.0010342627
0.075736325
0.12446657
-0.12428368
-0.01510906
0.021168113
0.16068471
0.26706271
0.0023660236
0.0027077114
0.034747321
-0.0028342565
0.00013308388
0.0070932667
0.062213637
0.063441159
7.3031667e-05
-0.022061736
-0.043488093
0.017545632
-0.0001246604
-0.018860577
-0.0043805132
-0.0011940043
-0.0010306726
-0.080380219
0.037454864
-0.21334698
-0.078553908
0.00016938425
-0.0049009734
-0.018973893
0.072303254
0.098302612
0.050813161
-0.070017538
-6.1519211e-06
0.044343184
-0.082625352
-0.20853064
0.053781487
-1.0577099e-05
0.16359017
0.023153489
-0.16144094
-0.23366796
0.0034064021
0.047090397
0.05008942
-0.0033638644
-0.098394557
0.00012547036
-0.010147445
0.091079513
0.085439617
-0.030486157
0.052739333
0.086460205
-0.001025576
0.15336854
0.26522658
0.032053219
0.0047997007
-0.12983798
0.16062862
-0.086669125
0.096327089
0.012477746
-0.1047591
0.023243694
0.13111172
0.10062938
0.00023660907
-7.1487377e-05
-0.20123185
0.0014145877
0.094763229
0.0068862481
0.0037237998
-0.22903583
0.017462631
0.035720097
0.10037694
-0.26994911
-0.061535947
-0.124943
-0.098449868
0.15575311
0.00056879438
0.005532279
-0.03584106
0.047927359
-0.02028837
-1.5884057e-05
-0.28445769
-0.0013952476
0.0019015018
-0.28132466
0.017264326
-0.28573572
-0.0006022954
0.15325505
-0.015744246
0.00051286028
0.024060076
0.14565654
0.0044018123
1.0591012e-05
-0.02763733
-0.00039213054
-0.035068069
0.017315365
0.010873332
0.019137171
0.031578342
-0.19625198
-0.28140671
-0.13190559
0.00020695418
-0.00056901826
0.00013543251
0.0061642596
0.00065648291
0.025727806
0.012849025
0.00019047489
0.055844662
0.082888997
-0.038171405
0.13286636
-0.020292785
-0.003187397
-0.16937661
0.042138778
-0.37635843
0.07639384
-0.00089577454
0.0057969525
0.019419201
-0.041908743
-0.033479952
-0.2422325
-0.0042473383
0.028944981
-0.001956108
0.054929747
-0.00074822073
0.00569607
-0.00038428196
0.00086404969
0.087558338
-0.010295091
-0.026897213
-0.022348787
0.032310896
-0.039648524
-0.011126248
-0.00082478125
-0.0010736497
-0.0045108266
0.20784819
-0.023006246
-0.00038724396
-0.025195853
0.065461639
-0.039636641
-0.085860898
0.052191987
0.042245144
-0.37778352
0.00013803062
-0.00032580842
0.048305067
-0.00045966013
0.017154696
-0.0028053059
-0.0303745
0.0051817777
0.059817369
0.027336654
0.22027228
-0.13238839
0.007827646
0.017128457
-0.24954095
-0.24942203
0.21162146
0.055769502
0.15515148
-0.033809746
-0.0037858116
-0.0014037181
0.082719031
-0.00011660098
0.059286189
0.11930967
-0.001041089
-0.12821598
0.10199636
0.033191775
-0.0013271522
-0.0010749425
0.021274728
0.18310296
-0.011380395
0.0010039452
0.0058151112
0.0061349405
-0.066366425
-0.13796721
0.0004267704
4.6369748e-06
-0.12119643
0.063970808
-0.00052218426
-0.0064191639
0.17892855
-0.089192783
0.00016782464
-0.0044670601
0.0022688232
-0.0016108458
0.0093387806
-0.04032331
-0.25478306
0.028008753
0.27849233
0.074224845
0.0096442547
0.0084726649
0.095551584
0.00052546553
-0.18466267
0.0083466187
-0.18935361
0.020084536
0.019554364
-0.10098208
-0.039317372
-0.032843064
0.033258676
-0.15681005
0.064485901
0.20291378
0.14813129
-0.018999528
0.30584776
0.1455312
-0.21099148
-0.00060005697
-0.26976205
0.26014948
0.0093889258
-0.25033782
-0.2153548
-0.0067848626
-0.00087320163
0.0023096285
0.06981404
0.24303135
-0.0043497584
-0.042961604
0.010647034
0.025148056
-0.067003262
0.021251409
0.053759564
0.010684182
-0.0051950941
-0.011401996
-0.015100472
-0.15933393
0.020110637
-0.04178997
-0.010016793
-0.0029777424
-0.27798635
-0.0045830405
-0.046812022
-0.19564256
0.02109862
0.20823036
-0.27630872
0.0026906201
-0.039216105
0.00010180853
0.068238062
0.057727894
-0.066890508
0.030776661
0.27547795
0.079831753
-0.022152991
0.017700484
-0.0017721141
0.044071582
0.18421557
-0.0023771729
0.007775826
-0.029365984
-0.27515864