/*--------------------------------*- C++ -*----------------------------------*\
| =========                 |                                                 |
| \\      /  F ield         | foam-extend: Open Source CFD                    |
|  \\    /   O peration     | Version:     4.1                                |
|   \\  /    A nd           | Web:         http://www.foam-extend.org         |
|    \\/     M anipulation  |                                                 |
\*---------------------------------------------------------------------------*/
FoamFile
{
    version     2.0;
    format      ascii;
    class       surfaceScalarField;
    location    "0.1";
    object      phi;
}
// * * * * * * * * * * * * * * * * * * * * * * * * * * * * * * * * * * * * * //

dimensions      [0 3 -1 0 0 0 0];

internalField   nonuniform List<scalar> 
6703
(
-7.2006693e-05
0.00012964975
-5.7643056e-05
-0.00012464429
0.00015158827
-9.8950672e-05
-0.00015969829
0.00019255997
-0.00015750597
-0.00018332492
0.00024802369
-0.00022439706
-0.00020957547
0.00030429855
-0.00027804799
-0.00024023268
0.00036249621
-0.000331839
-0.00027506711
0.00042878233
-0.00039394791
-0.00031579468
0.00050618302
-0.00046545546
-0.00036317228
0.00059630745
-0.00054892984
-0.00041823089
0.00070058153
-0.00064552292
-0.00048203492
0.00082065955
-0.00075685553
-0.00055564605
0.00095842238
-0.00088481124
-0.00064017285
0.0011163041
-0.0010317773
-0.00073696125
0.0012978432
-0.0012010549
-0.00084758625
0.0015083117
-0.0013976867
0.0017544096
-0.0016305735
-0.00097142235
-3.6856845e-05
0.00016650659
-6.8884817e-05
0.00018361624
-9.6040174e-05
0.00021971533
-0.00012199362
0.00027397713
-0.00015227239
0.00033457732
-0.00018816831
0.00039839213
-0.00022900951
0.00046962353
-0.00027591223
0.00055308574
-0.00032967169
0.00065006691
-0.00039145152
0.00076236137
-0.00046273765
0.00089194568
-0.00054536253
0.0010410473
-0.00064155081
0.0012124923
-0.00075386794
0.0014101604
-0.00088492389
0.0016393677
0.0019060346
-0.0010365489
-1.1656699e-05
0.00017816329
-2.8651407e-05
0.00020061095
-4.6967948e-05
0.00023803187
-6.6803187e-05
0.00029381237
-8.9781954e-05
0.00035755608
-0.00011728464
0.00042589481
-0.00014994114
0.00050228003
-0.00018839049
0.0005915351
-0.00023337622
0.00069505264
-0.00028574379
0.00081472894
-0.00034641252
0.0009526144
-0.00041644188
0.0011110766
-0.00049709326
0.0012931437
-0.00058988055
0.0015029477
-0.00069652449
0.0017460116
0.0020285044
-0.00081899425
-5.871354e-06
0.00018403465
-1.8663818e-05
0.00021340341
-3.068798e-05
0.00025005603
-4.3719843e-05
0.00030684424
-5.8985423e-05
0.00037282166
-7.7526206e-05
0.0004444356
-9.9839757e-05
0.00052459358
-0.00012642762
0.00061812296
-0.0001579925
0.00072661751
-0.00019530507
0.00085204151
-0.00023913909
0.00099644843
-0.00029023743
0.001162175
-0.00034923797
0.0013521443
-0.00041656356
0.0015702733
-0.00049226102
0.0018217091
0.0021112854
-0.00057504207
-6.2550637e-07
0.00018466015
-1.0665447e-05
0.00022344335
-1.7969879e-05
0.00025736047
-2.559072e-05
0.00031446508
-3.4317695e-05
0.00038154864
-4.50281e-05
0.000455146
-5.7988357e-05
0.00053755384
-7.3414395e-05
0.000633549
-9.1747653e-05
0.00074495077
-0.00011349065
0.00087378451
-0.00013917854
0.0010221363
-0.0001693358
0.0011923322
-0.00020436965
0.0013871781
-0.00024438891
0.0016102925
-0.00028913982
0.00186646
0.0021627418
-0.00034059622
4.4588428e-06
0.00018020131
-2.0777256e-06
0.00022997992
-4.7469683e-06
0.00026002971
-6.8405464e-06
0.00031655865
-8.7419304e-06
0.00038345002
-1.1418108e-05
0.00045782218
-1.4975692e-05
0.00054111143
-1.9346263e-05
0.00063791957
-2.4679811e-05
0.00075028432
-3.1153161e-05
0.00088025786
-3.8966531e-05
0.0010299497
-4.8325742e-05
0.0012016914
-5.9378167e-05
0.0013982305
-7.207165e-05
0.001622986
-8.5768249e-05
0.0018801566
0.0021760689
-9.9095284e-05
9.3461585e-06
0.00017085515
7.345205e-06
0.00023198087
8.6444066e-06
0.00025873051
1.1985869e-05
0.00031321719
1.7064004e-05
0.00037837189
2.2657921e-05
0.00045222826
2.868075e-05
0.0005350886
3.5494927e-05
0.00063110539
4.3252463e-05
0.00074252678
5.2085447e-05
0.00087142487
6.2121009e-05
0.0010199141
7.3497623e-05
0.0011903148
8.6410949e-05
0.0013853172
0.0001011986
0.0016081983
0.00011860423
0.001862751
0.0021561912
0.00013848195
1.4090921e-05
0.00015676423
1.7479817e-05
0.00022859198
2.2447958e-05
0.00025376237
3.0846247e-05
0.0003048189
4.247206e-05
0.00036674608
5.6131499e-05
0.00043856882
7.1623435e-05
0.00051959666
8.9504634e-05
0.0006132242
0.00011023046
0.00072180096
0.00013424107
0.00084741426
0.00016198731
0.00099216789
0.00019394503
0.0011583571
0.00023063865
0.0013486236
0.00027264205
0.0015661949
0.00032070058
0.0018146924
0.0021016495
0.00037524223
1.8458674e-05
0.00013830556
2.7688017e-05
0.00021936263
3.6546697e-05
0.00024490369
4.9667459e-05
0.00029169814
6.7205005e-05
0.00034920853
8.8391732e-05
0.00041738209
0.00011291626
0.00049507213
0.00014140445
0.00058473601
0.00017457883
0.00068862657
0.00021319648
0.00080879661
0.00025806956
0.00094729481
0.00031009382
0.0011063328
0.00037029933
0.0012884181
0.00043990811
0.0014965862
0.00052047274
0.0017341278
0.0020083455
0.00061377673
2.2263475e-05
0.00011604208
3.731173e-05
0.00020431438
5.0773026e-05
0.00023144239
6.8574562e-05
0.00027389661
9.1485465e-05
0.00032629763
0.00011944202
0.00038942554
0.00015218962
0.00046232454
0.00019036901
0.00054655661
0.00023491769
0.00064407789
0.00028690431
0.00075680999
0.00034752236
0.00088667675
0.00041812615
0.001035729
0.00050031286
0.0012062314
0.00059609478
0.0014008042
0.00070831671
0.0016219059
0.0018740236
0.0008426386
2.1935047e-05
9.4107036e-05
4.8578758e-05
0.00017767067
7.01701e-05
0.00020985105
9.2880383e-05
0.00025118632
0.00012004317
0.00029913484
0.00015286149
0.00035660721
0.0001916817
0.00042350434
0.00023732921
0.0005009091
0.00029097013
0.00059043698
0.00035398
0.00069380011
0.00042787668
0.00081278008
0.00051430092
0.00094930481
0.00061500595
0.0011055263
0.00073181293
0.0012839973
0.00086627939
0.0014874394
0.0017178205
0.0010224825
4.493332e-05
4.9173716e-05
8.1551001e-05
0.00014105299
0.00010293871
0.00018846334
0.00012607076
0.00022805427
0.00015285794
0.00027234766
0.00018523212
0.00032423304
0.00022403772
0.00038469874
0.00027005429
0.00045489252
0.00032422435
0.00053626692
0.00038742245
0.00063060202
0.00046033032
0.00073987221
0.0005433932
0.00086624193
0.00063680178
0.0010121178
0.00074049933
0.0011802997
0.00085340811
0.0013745306
0.0015957435
0.00097548515
2.0648163e-05
-8.2496235e-05
6.1848072e-05
2.739777e-05
-0.00010400815
9.7258543e-05
4.5934548e-06
-0.00013512602
0.00015793034
-3.4777617e-05
-0.00018679438
0.00022616546
-7.6535346e-05
-0.00023677494
0.00027853266
-0.00012150461
-0.00028439651
0.00032936578
-0.00017396736
-0.00033732483
0.00038978758
-0.00023369427
-0.0003980575
0.00045778441
-0.00030188453
-0.00046823055
0.00053642081
-0.0003794783
-0.00054884959
0.00062644335
-0.00046725825
-0.00064111496
0.00072889491
-0.00056595369
-0.00074634315
0.00084503859
-0.00067626258
-0.0008660825
0.0009763914
-0.00079923825
-0.0010022674
0.0011252431
-0.00093750355
-0.0011571942
0.0012954594
-0.0013341539
0.0014947354
-0.001098085
-2.4106237e-05
-5.8389998e-05
-4.731617e-05
-8.0798216e-05
-7.2108981e-05
-0.00011033321
-0.00010036548
-0.00015853788
-0.00013651236
-0.00020062806
-0.00018262596
-0.00023828292
-0.00023927258
-0.00028067821
-0.00030771771
-0.00032961237
-0.00038950629
-0.00038644197
-0.00048633017
-0.00045202571
-0.00060012021
-0.00052732492
-0.00073305943
-0.00061340393
-0.00088765112
-0.00071149082
-0.0010667912
-0.00082312736
-0.0012735012
-0.0009504841
-0.0010968662
-0.0015107889
1.6021672e-05
-7.441167e-05
1.1077474e-05
-7.5854018e-05
-1.5049164e-05
-8.4206571e-05
-5.9547523e-05
-0.00011403952
-0.00011162036
-0.00014855523
-0.00017071002
-0.00017919325
-0.0002391149
-0.00021227333
-0.00031852527
-0.000250202
-0.00041090277
-0.00029406446
-0.00051833959
-0.00034458889
-0.0006431646
-0.00040249992
-0.0007880074
-0.00046856113
-0.00095587044
-0.00054362778
-0.0011502327
-0.00062876508
-0.0013753807
-0.00072533609
-0.00083465705
-0.0016375899
-3.0959621e-05
-4.3452049e-05
-5.6508383e-05
-5.0305257e-05
-7.9961399e-05
-6.0753555e-05
-0.00011315527
-8.0845654e-05
-0.0001561997
-0.0001055108
-0.00020937221
-0.00012602074
-0.00027446193
-0.00014718361
-0.00035253668
-0.00017212725
-0.00044523258
-0.00020136856
-0.00055458401
-0.00023523746
-0.00068291623
-0.00027416769
-0.00083284567
-0.00031863169
-0.0010073325
-0.00036914098
-0.0012097458
-0.00042635174
-0.0014435396
-0.00049154227
-0.00056761738
-0.0017105793
-7.2684584e-07
-4.2725203e-05
-1.8034105e-05
-3.2997997e-05
-4.851499e-05
-3.0272671e-05
-9.2640886e-05
-3.6719757e-05
-0.00014656769
-5.1583988e-05
-0.00020927559
-6.3312839e-05
-0.00028198065
-7.4478547e-05
-0.00036676723
-8.7340674e-05
-0.00046599876
-0.00010213703
-0.00058217703
-0.00011905919
-0.0007180825
-0.00013826222
-0.0008768299
-0.0001598843
-0.001061867
-0.00018410387
-0.0012770658
-0.00021115293
-0.0015279216
-0.00024068649
-0.00027044691
-0.0018250921
-1.1613075e-05
0.00017819215
-0.00016657907
-2.8581786e-05
0.0002005857
-0.00018361699
-4.6868235e-05
0.00023797493
-0.00021968848
-6.6661423e-05
0.00029374104
-0.00027394785
-8.9589108e-05
0.00035746631
-0.00033453863
-0.00011703087
0.00042579102
-0.00039834926
-0.00014961438
0.00050216233
-0.00046957882
-0.00018797451
0.00059140308
-0.00055304294
-0.00023285064
0.00069490564
-0.00065002951
-0.00028508557
0.00081456477
-0.00076232984
-0.00034560543
0.00095242023
-0.00089190037
-0.00041549685
0.0011108166
-0.0010409252
-0.00049606989
0.001292753
-0.0012121799
-0.00058886113
0.0015023626
-0.0014095713
-0.00069542793
0.0017452227
-0.0016386559
0.0020273408
-0.0019057894
-0.0008169793
-4.2606268e-05
-1.1893474e-07
-7.5477715e-05
-1.2655081e-07
-0.00010559876
-1.516248e-07
-0.00014213067
-1.8784444e-07
-0.00019349371
-2.2095078e-07
-0.00025655293
-2.5361817e-07
-0.00033074384
-2.8764074e-07
-0.00041776867
-3.1583995e-07
-0.00051958148
-3.2422235e-07
-0.00063835047
-2.9020505e-07
-0.00077642923
-1.8345732e-07
-0.00093633964
2.6110372e-08
-0.0011207908
3.4725179e-07
-0.0013326711
7.2737459e-07
-0.0015743544
9.9680872e-07
8.5666294e-07
-0.0018456579
-4.2790754e-05
4.2671819e-05
-7.5856595e-05
3.293929e-05
-0.00010628632
3.0278104e-05
-0.00014326472
3.6790554e-05
-0.00019502438
5.1538707e-05
-0.00025846859
6.3190595e-05
-0.000333085
7.4328765e-05
-0.00042057017
8.7169328e-05
-0.00052284793
0.00010195354
-0.00064202379
0.00011888566
-0.00078034406
0.00013813681
-0.00094017369
0.00015985574
-0.0011240186
0.00018419215
-0.0013345444
0.00021125314
-0.0015741338
0.00024058627
0.00027070955
-0.0018439867
-8.9981601e-07
4.3571635e-05
-1.8369526e-05
5.0408999e-05
-4.9008809e-05
6.0917387e-05
-9.3279808e-05
8.1061553e-05
-0.00014742114
0.00010568003
-0.00021040149
0.00012617095
-0.00028342951
0.00014735679
-0.00036859009
0.00017232991
-0.00046822462
0.00020158806
-0.00058477892
0.00023543996
-0.00072092592
0.00027428382
-0.00087961304
0.00031854286
-0.0010640966
0.00036867574
-0.0012781077
0.00042526424
-0.0015267793
0.00048925779
0.00056241881
-0.0018184885
-3.0919937e-05
7.4491572e-05
-5.6381081e-05
7.5870143e-05
-7.9591064e-05
8.4127371e-05
-0.0001125387
0.00011400918
-0.00015558508
0.00014872642
-0.00020878418
0.00017937004
-0.00027388914
0.00021246175
-0.00035195133
0.0002503921
-0.00044458405
0.00029422078
-0.0005537835
0.00034463942
-0.00068181652
0.00040231684
-0.00083122086
0.0004679472
-0.0010048721
0.00054232697
-0.0012061158
0.0006265079
-0.0014386158
0.00072175785
0.0008285203
-0.0017047173
1.6388415e-05
5.8103157e-05
1.169496e-05
8.0563599e-05
-1.4184092e-05
0.00011000642
-5.8436082e-05
0.00015826117
-0.00011032474
0.00020061508
-0.00016920298
0.00023824828
-0.00023733036
0.00028058913
-0.00031637092
0.00032943266
-0.00040825612
0.00038610597
-0.00051504768
0.00045143098
-0.00063906693
0.00052633608
-0.00078300971
0.00061188998
-0.00095009005
0.00070940731
-0.0011442328
0.00082065069
-0.0013710016
0.00094852665
0.0010995706
-0.001642052
-2.4349106e-05
8.2452262e-05
-4.7631799e-05
0.00010384629
-7.2464449e-05
0.00013483907
-0.0001006708
0.00018646753
-0.00013663482
0.0002365791
-0.0001825681
0.00028418156
-0.00023902534
0.00033704637
-0.00030727474
0.00039768206
-0.00038887902
0.00046771025
-0.00048557209
0.00054812405
-0.00059938267
0.00064014667
-0.00073270814
0.00074521545
-0.00088849859
0.00086519776
-0.0010704992
0.0010026513
-0.0012825922
0.0011606196
0.0013413868
-0.0015244084
2.0417277e-05
6.2034985e-05
2.6987236e-05
9.7276333e-05
4.0810338e-06
0.00015774528
-3.5404436e-05
0.000225953
-7.7187366e-05
0.00027836203
-0.0001221896
0.0003291838
-0.00017470557
0.00038956233
-0.00023451966
0.00045749615
-0.0003028494
0.00053603999
-0.00038066576
0.00062594042
-0.00046879541
0.00072827632
-0.0005680231
0.00084444314
-0.00067906895
0.00097624361
-0.00080275423
0.0011263366
-0.00094070186
0.0012985673
0.0014983962
-0.0010977112
4.4919599e-05
-9.4015509e-05
4.909591e-05
8.1549921e-05
-0.0001775889
0.00014095857
0.00010295604
-0.00020977744
0.00018837132
0.00012609949
-0.00025109688
0.00022795343
0.00015289376
-0.00029901971
0.00027222544
0.00018526886
-0.00035645631
0.00032408121
0.00022406907
-0.00042331298
0.00038451277
0.0002700716
-0.00050067006
0.00045466754
0.00032421498
-0.00059013867
0.00053599529
0.0003873682
-0.00069342532
0.00063027209
0.000460205
-0.00081230307
0.00073946628
0.00054315638
-0.00094868436
0.00086573298
0.00063638221
-0.0011046863
0.0010114605
0.00073965132
-0.0012827864
0.0011795172
0.00085158304
-0.0014852037
0.0013732719
-0.0017153466
0.0015884771
0.00097845249
2.194837e-05
-0.00011596388
4.8618112e-05
-0.00020425864
7.0242273e-05
-0.0002314016
9.29853e-05
-0.00027383991
0.00012018049
-0.0003262149
0.00015303581
-0.00038931163
0.00019190262
-0.00046217979
0.00023761082
-0.00054637826
0.0002913329
-0.00064386075
0.00035445481
-0.00075654723
0.000428513
-0.00088636126
0.00051518453
-0.0010353559
0.00061630399
-0.0012058058
0.00073389844
-0.0014003808
0.00087026565
-0.0016215709
-0.0018758957
0.0010308148
2.2290628e-05
-0.00013825451
3.7370273e-05
-0.00021933828
5.0859256e-05
-0.00024489058
6.86875e-05
-0.00029166815
9.1624993e-05
-0.00034915239
0.00011961288
-0.00041729952
0.00015240008
-0.00049496699
0.00019062993
-0.00058460811
0.00023524327
-0.00068847409
0.00028731282
-0.00080861678
0.00034803627
-0.00094708471
0.00041876851
-0.0011060881
0.00050109073
-0.001288128
0.00059692543
-0.0014962155
0.00070879921
-0.0017334446
-0.0020076866
0.00084059005
1.8484094e-05
-0.0001567386
2.7739536e-05
-0.00022859373
3.6613124e-05
-0.00025376417
4.9748438e-05
-0.00030480346
6.7300024e-05
-0.00036670398
8.8504281e-05
-0.00043850377
0.00011305221
-0.00051951493
0.00014157139
-0.00061312728
0.00017478725
-0.00072168995
0.0002134608
-0.00084729033
0.00025841
-0.00099203391
0.00031053897
-0.0011582171
0.00037089052
-0.0013484795
0.000440706
-0.001566031
0.00052166492
-0.0018144036
-0.0021018521
0.00061583051
1.4108174e-05
-0.00017084678
1.7508703e-05
-0.00023199425
2.2475407e-05
-0.00025873087
3.0871844e-05
-0.0003131999
4.2494735e-05
-0.00037832687
5.6152251e-05
-0.00045216129
7.1644374e-05
-0.00053500705
8.9528203e-05
-0.00063101111
0.00011026023
-0.00074242198
0.0001342819
-0.00087131199
0.00016204527
-0.0010197973
0.00019402546
-0.0011901973
0.00023073726
-0.0013851913
0.00027271661
-0.0016080103
0.00032064822
-0.0018623352
-0.0021556974
0.00037449353
9.3537928e-06
-0.00018020057
7.3478295e-06
-0.00022998829
8.6323493e-06
-0.00026001539
1.195745e-05
-0.000316525
1.7018067e-05
-0.00038338749
2.2593745e-05
-0.00045773697
2.8597493e-05
-0.0005410108
3.5390668e-05
-0.00063780429
4.3124974e-05
-0.00075015628
5.1932141e-05
-0.00088011916
6.1938095e-05
-0.0010298032
7.3277146e-05
-0.0012015363
8.6132654e-05
-0.0013980469
0.00010081726
-0.001622695
0.0001180687
-0.0018795866
-0.0021751591
0.00013753034
4.4618515e-06
-0.00018466242
-2.0899753e-06
-0.00022343646
-4.7798485e-06
-0.00025732552
-6.8966962e-06
-0.00031440815
-8.8217719e-06
-0.00038146241
-1.1522313e-05
-0.00045503642
-1.5106834e-05
-0.00053742628
-1.9508331e-05
-0.00063340279
-2.4878005e-05
-0.00074478661
-3.1394162e-05
-0.000873603
-3.9260701e-05
-0.0010219367
-4.8691498e-05
-0.0011921055
-5.9848087e-05
-0.0013868903
-7.2689964e-05
-0.0016098531
-8.6566327e-05
-0.0018657102
-0.002161458
-0.00010026739
-6.1932788e-07
-0.00018404309
-1.0675337e-05
-0.00021338045
-1.7999097e-05
-0.00025000176
-2.5638721e-05
-0.00030676853
-3.4381289e-05
-0.00037271985
-4.5104839e-05
-0.00044431287
-5.8078903e-05
-0.00052445221
-7.3520012e-05
-0.00061796168
-9.1870933e-05
-0.00072643569
-0.00011363616
-0.00085183778
-0.00013935667
-0.00099621619
-0.00016956887
-0.0011618934
-0.00020469469
-0.0013517644
-0.00024483623
-0.0015697115
-0.00028968055
-0.0018208659
-0.0021099803
-0.00034115829
-5.8509448e-06
-1.8645696e-05
-3.0672526e-05
-4.3700017e-05
-5.8953552e-05
-7.7475403e-05
-9.9765287e-05
-0.00012632389
-0.00015785394
-0.00019512694
-0.0002389229
-0.00028999965
-0.00034901111
-0.00041636008
-0.00049200334
-0.00057464285
-3.6844326e-05
-0.00012973475
-6.8842503e-05
-0.00015161882
-9.5927463e-05
-0.00019260352
-0.00012180003
-0.00024807528
-0.00015199636
-0.0003043423
-0.00018779202
-0.0003625536
-0.00022850467
-0.00042886617
-0.00027524133
-0.00050630629
-0.00032878623
-0.0005964846
-0.00039029441
-0.00070082167
-0.00046125727
-0.00082093752
-0.00054355698
-0.00095862547
-0.00063955527
-0.0011161817
-0.00075204788
-0.0012970787
-0.00088391206
-0.0015067917
-0.0017523177
-0.0010373837
-7.2299323e-05
-5.7435424e-05
-0.00012497229
-9.894585e-05
-0.00015988815
-0.00015768766
-0.00018336856
-0.00022459487
-0.00020949957
-0.00027821128
-0.00024004482
-0.00033200836
-0.00027475217
-0.00039415882
-0.00031533498
-0.00046572347
-0.00036254039
-0.0005492792
-0.0004173859
-0.00064597616
-0.00048093032
-0.00075739309
-0.00055427769
-0.0008852781
-0.00063870196
-0.0010317574
-0.00073588916
-0.0011998915
-0.00084752426
-0.0013951566
-0.0016282826
-0.00097155935
1.6286025e-05
2.9641086e-05
-4.592711e-05
5.0277707e-05
0.00010688519
-0.00014087687
8.8592586e-05
0.00014708558
-0.00018540045
0.00012910866
0.00018387994
-0.00022439601
0.00017150883
0.00022485266
-0.00026725283
0.00021757233
0.00027124361
-0.00031730711
0.00026853293
0.00032436001
-0.00037532061
0.00032542009
0.00038519004
-0.0004420772
0.00038927598
0.00045491031
-0.00051876621
0.0004611799
0.00053489173
-0.00060679565
0.00054226014
0.00062659858
-0.00070767882
0.00063371115
0.00073163508
-0.0008230861
0.0007367904
0.00085183734
-0.00095491658
0.00085287012
0.00098939429
-0.001105474
0.00098351901
0.0011471006
-0.0012777495
0.0013274398
-0.0014754737
0.001131553
3.3673623e-05
-4.0325373e-06
7.6895668e-05
6.3663139e-05
0.00012114093
0.00010284031
0.00016432853
0.00014069234
0.00020922738
0.00017995381
0.00025819098
0.00022228
0.00031366154
0.00026888946
0.0003779798
0.00032087177
0.00045343498
0.00037945514
0.00054237167
0.00044595504
0.00064726685
0.00052170341
0.00077083997
0.00060806196
0.0009161965
0.00070648081
0.0010870495
0.00081854128
0.0012881584
0.0009459917
0.0010898835
0.0015257146
3.5056341e-05
-3.9088878e-05
7.7590502e-05
2.1128978e-05
0.00011886653
6.1564287e-05
0.00016129975
9.8259116e-05
0.00020694336
0.00013431021
0.00025785673
0.00017136663
0.00031622611
0.00021052008
0.00038436542
0.00025273246
0.00046473072
0.00029908983
0.00055991693
0.00035076883
0.00067265561
0.00040896473
0.00080581738
0.00047490019
0.00096239953
0.00054989866
0.0011454507
0.00063549008
0.0013577873
0.00073365514
0.00084650815
0.0016011627
-7.6270648e-07
-3.8326172e-05
2.6665733e-05
-6.2994616e-06
5.9335905e-05
2.8894116e-05
9.9535303e-05
5.8059717e-05
0.00014763856
8.6206944e-05
0.00020437736
0.00011462784
0.00027095318
0.00014394426
0.00034895081
0.00017473484
0.00044031605
0.00020772459
0.00054734256
0.00024374232
0.00067263858
0.00028366871
0.00081909121
0.00032844756
0.00098984744
0.00037914243
0.0011883331
0.00043700437
0.0014184198
0.0005035685
0.00058027398
0.001684654
-1.2083797e-05
-2.6242375e-05
-3.498667e-06
-1.4884591e-05
1.9494664e-05
5.9007848e-06
5.5460033e-05
2.2094348e-05
0.00010225804
3.9408932e-05
0.00015984976
5.7036122e-05
0.00022953644
7.4257578e-05
0.00031275248
9.1518798e-05
0.00041121373
0.00010926334
0.00052697154
0.0001279845
0.0006623944
0.00014824586
0.00082016143
0.00017068053
0.0010032684
0.00019603549
0.0012150019
0.00022527079
0.0014587826
0.00025978788
0.0003018713
0.0017371853
-2.6297997e-05
5.5621627e-08
-4.1236865e-05
5.4276865e-08
-3.537339e-05
3.7309848e-08
-1.3276888e-05
-2.1530609e-09
2.617529e-05
-4.3245412e-08
8.3288312e-05
-7.6900245e-08
0.00015765756
-1.1167436e-07
0.00024932502
-1.4865782e-07
0.00035877686
-1.8850362e-07
0.00048699516
-2.3379582e-07
0.00063553102
-2.8999497e-07
0.00080657975
-3.682018e-07
0.0010031075
-4.9226272e-07
0.0012290972
-7.1886109e-07
0.0014900862
-1.2012153e-06
-2.4544399e-06
0.001794412
-2.6280915e-05
2.6336537e-05
-4.1261974e-05
1.5035336e-05
-3.5407276e-05
-5.8173881e-06
-1.3315982e-05
-2.2093447e-05
2.6122108e-05
-3.9481335e-05
8.3212997e-05
-5.7167789e-05
0.0001575469
-7.4445576e-05
0.00024915981
-9.1761565e-05
0.00035853216
-0.00010956086
0.00048663664
-0.00012833827
0.00063500472
-0.00014865808
0.00080578657
-0.00017115005
0.0010018364
-0.00019654212
0.0012268372
-0.00022571963
0.0014854627
-0.00025982675
-0.00030011749
0.0017831258
-1.2094405e-05
3.8430942e-05
-3.5369539e-06
6.4778842e-06
1.9451546e-05
-2.8805888e-05
5.5393809e-05
-5.803571e-05
0.00010214786
-8.6235389e-05
0.00015968129
-0.00011470121
0.00022929273
-0.00014405701
0.00031241508
-0.00017488392
0.00041076506
-0.00020791084
0.00052639987
-0.00024397307
0.00066170477
-0.00028396299
0.00081940314
-0.00032884842
0.0010026079
-0.00037974684
0.0012149276
-0.00043803936
0.0014607574
-0.00050565654
-0.00058499608
0.001745636
-8.3970645e-07
3.9270649e-05
2.65622e-05
-2.0924022e-05
5.9195382e-05
-6.143907e-05
9.9345186e-05
-9.8185515e-05
0.00014738027
-0.00013427047
0.00020402609
-0.00017134704
0.00027047723
-0.00021050815
0.00034830934
-0.00025271603
0.00043945519
-0.00029905669
0.0005461878
-0.00035070568
0.00067107972
-0.00040885491
0.00081695144
-0.00047472014
0.00098681439
-0.00054960979
0.0011837887
-0.00063501369
0.0014109839
-0.00073285176
-0.00084428502
0.0016702729
3.5065626e-05
4.2050225e-06
7.7626487e-05
-6.3484883e-05
0.00011889469
-0.00010270728
0.00016129025
-0.00014058107
0.0002068689
-0.00017984912
0.00025768974
-0.00022216788
0.00031593774
-0.00026875615
0.00038392391
-0.0003207022
0.00046409841
-0.00037923119
0.00055904566
-0.00044565293
0.00067147953
-0.00052128878
0.00080424126
-0.00060748187
0.00096027806
-0.00070564659
0.0011425592
-0.00081729482
0.0013538777
-0.00094417032
-0.0010875715
0.0015971642
3.3757322e-05
-2.95523e-05
7.7039433e-05
-0.00010676699
0.00012130046
-0.00014696831
0.0001644742
-0.00018375481
0.0002093351
-0.00022471001
0.00025824061
-0.0002710734
0.00031363613
-0.00032415167
0.00037786508
-0.00038493115
0.00045321849
-0.0004545846
0.00054204246
-0.0005344769
0.00064681697
-0.00062606329
0.00077027012
-0.00073093501
0.00091552975
-0.00085090623
0.0010863808
-0.00098814589
0.0012875454
-0.0011453349
-0.0013232475
0.0015232214
1.6297986e-05
-4.5850286e-05
5.0311665e-05
-0.00014078067
8.8653105e-05
-0.00018530975
0.00012919276
-0.00022429447
0.00017161303
-0.00026713028
0.00021769434
-0.00031715471
0.0002686764
-0.00037513373
0.00032559594
-0.00044185069
0.00038950359
-0.00051849225
0.0004614892
-0.00060646251
0.00054269519
-0.00070726928
0.00063433551
-0.00082257533
0.00073769559
-0.0009542663
0.00085420774
-0.001104658
0.00098560222
-0.0012767293
-0.0014756978
0.0011380525
2.7175897e-06
-4.391929e-06
2.9568914e-06
4.5128328e-06
4.8268683e-06
2.171671e-06
-2.2139023e-06
-1.0173208e-05
-2.3063056e-05
-4.2645563e-05
-7.1224775e-05
-0.00011159288
-0.00016712653
-0.00024184482
-0.00034096428
-0.00047314158
2.7253412e-06
-4.4126484e-06
2.9680172e-06
4.5385986e-06
4.8599818e-06
2.217401e-06
-2.1538354e-06
-1.0092903e-05
-2.2951288e-05
-4.2484089e-05
-7.0982272e-05
-0.00011122178
-0.00016658777
-0.00024123619
-0.00034093334
-0.00047448055
3.4235256e-06
-3.2456246e-06
6.4851009e-06
1.0144054e-05
1.5239213e-05
2.216571e-05
3.1544755e-05
4.4361601e-05
6.1864637e-05
8.5674219e-05
0.00011787122
0.00016102887
0.00021822305
0.00029308225
0.00038962485
0.00050240419
3.4227251e-06
-3.2466057e-06
6.4856092e-06
1.0143868e-05
1.5238695e-05
2.2164623e-05
3.1542753e-05
4.4358072e-05
6.185879e-05
8.5665154e-05
0.00011785855
0.00016101438
0.00021821555
0.00029304125
0.00038982241
0.00051009214
0.0014273859
-0.0033612522
0.0019338663
0.0083811243
-0.0086998761
0.00031875177
0.0012603277
-0.0032238588
0.0019635312
0.0083811243
-0.0021923765
0.00011985998
0.0020725165
-0.0081802634
0.0050878921
0.0030923714
-0.0010802474
0.0043830372
-0.0033027898
0.0077917456
0.0029162959
-0.010708042
0.0081058376
0.0019902497
-0.010096087
0.0012751838
-0.0017483254
-0.0019651593
0.0014906788
0.003507542
0.0064360863
-0.0099436283
-0.0036146518
-0.003815404
0.0074300558
-0.0074487204
0.0034500253
0.0039986952
-0.0016934718
0.004016583
-0.0023231112
0.0034263323
-5.8167834e-05
-0.0033681645
0.0073010854
-0.0076283629
0.00032727744
0.0006363605
0.0015521455
-0.002188506
0.001365709
-0.001724817
0.00035910797
0.006244574
-0.0023449844
-0.0038995897
-0.00089196053
-0.001300416
-0.0076631637
0.0040485118
-0.009483819
0.0093877317
9.608733e-05
0.00069764367
0.0085396288
-0.0092372725
5.7667272e-05
-0.0056732123
0.005615545
0.0044502976
0.0013621729
-0.0058124705
-0.0039697834
-0.0059183728
0.0098881562
0.0063626755
-0.002188243
-0.0041744325
0.0013326976
0.0063344542
-0.0076671517
-0.0021972133
0.0055285265
-0.0033313132
0.0066846806
-0.002234383
0.0020424628
-0.0014473408
-0.00059512191
-0.00022509236
0.0083260981
-0.0081010057
0.0061828069
0.00013553272
-0.0063183396
0.0010875498
-0.0061360574
0.0050485076
0.0086660429
-0.0073307024
-0.0013353405
0.0076779988
-0.0081059567
0.00042795791
-0.0047616068
0.0058491566
0.0055832812
-0.0032018534
-0.0023814278
-0.0086686234
0.0017735428
0.0068950806
0.0031952648
-0.0045507741
0.0013555094
0.0099926286
-0.0043183897
-0.005674239
0.0077917456
-0.0022256264
0.0055776609
-0.0033520345
0.0081058376
-0.00087372211
0.0037160705
-0.0028423484
-0.0018692444
0.0065025586
-0.0046333142
-0.0098119864
0.0042080748
0.0056039116
-0.0077917456
0.011720306
-0.0039285609
-0.0081058376
0.011822709
-0.0037168709
0.0030364639
-0.00025254469
-0.0027839192
-0.003892303
0.0017416621
0.0021506409
0.0014595425
-0.002713528
0.0012539855
0.0010089792
0.0011247861
-0.0021337654
-0.0028660843
0.0055716004
-0.0027055161
0.00051821419
0.0053939088
-0.0059121229
0.0010033545
-0.0019044465
0.00090109194
-0.0054793468
0.0034561041
0.0020232427
-0.010516181
0.0011070237
0.0094091573
0.0083447507
-0.003021134
-0.0053236166
0.0077084887
0.00063626196
0.0055835299
0.0040910438
-0.0096745737
0.0052277824
0.0043607098
-0.0095884922
-0.0025214919
0.0050383566
-0.0025168648
0.00097193983
-0.0040708918
0.0030989519
-0.0066742366
0.0068628377
-0.00018860114
0.0043682214
-0.0079170126
0.0035487912
0.0044994076
0.0016935624
-0.00619297
-0.00095556305
0.0061263934
-0.0051708304
-0.0089834657
0.0071142213
-0.002474221
0.0069482136
-0.0044739926
0.0016274228
0.0017989095
-0.0048555736
0.004450502
0.00040507159
0.0048194184
0.0062233912
-0.01104281
0.0087149034
-0.0080527836
-0.00066211978
0.00051618099
-0.0026816377
0.004664872
-0.0019832343
0.0068796567
-0.0034039114
-0.0034757453
0.0097290503
-0.0087647593
-0.00096429103
0.0077626108
-0.0068648352
-0.00089777561
0.0027242764
-0.0038417186
0.0011174422
-0.0023358425
0.0010898075
0.0012460349
0.0014701763
-0.0036673896
-0.011824191
0.0083786551
0.0034455354
0.0022514461
0.0050496393
0.0023797586
-0.0090138599
0.0066341013
-0.0044890829
0.0076012208
-0.0031121379
-0.0010196747
-0.0059989804
0.0070186551
0.0028618694
-0.0023316425
-0.00053022683
0.00049458759
0.0082203158
0.0052892565
5.8124336e-05
-0.0053473809
-0.0076757073
0.0031491643
0.004526543
0.00052135692
0.0036425029
-0.0041638598
0.0032355312
0.0023477499
0.0043884867
0.0024308517
-0.0068193384
0.0045701997
-0.0017102112
-0.0028599885
-0.0046686255
-0.0053285978
0.0030846451
-0.0018243174
-0.00099673677
-0.0013687667
0.0023655034
-0.002877461
0.0056381043
-0.0027606433
-0.0030364204
0.0078558388
-0.0056465535
0.0074729961
-0.0018264426
-0.0058887975
-0.0017869097
-3.4485768e-05
0.0077124846
0.0080547498
-0.0075011986
-0.00055355118
-0.0050680751
-0.0023806453
-0.011219963
0.0073747315
0.0038452311
-0.011811505
0.0085804726
0.0032310325
0.0057344862
-0.0026302318
-0.0031042544
0.0014900104
-0.0037156369
0.0022803282
-0.0051464125
6.0796073e-05
0.0042086505
-0.0042694465
0.0031798558
-0.0041354189
-0.001532237
0.0047275018
0.0019856458
0.0042589282
0.006519276
0.0032097743
0.0038619023
-0.0038011063
0.0029531803
0.0071228464
-0.010076027
0.0098507443
-0.0056543743
-0.00419637
-0.0021789475
0.0047867392
-0.0026077916
-4.9626922e-05
0.0015091695
0.002080137
-0.0010711578
0.00092997199
0.001250699
-0.002180671
0.010810494
-0.011035586
0.0011018561
0.00026475372
-0.0013666098
0.0018233953
-8.6210017e-05
-0.0074712134
0.0080963065
-0.00062509314
-0.0021404448
0.0012839272
0.00085651765
0.0036448226
-0.0035558252
-8.8997396e-05
-0.0055998502
0.0051069002
0.00049295005
0.0019582179
-0.00095486338
-0.00047428819
0.0049780429
-0.0045037547
-0.0046303397
0.0085012218
-0.0038708821
0.003481986
0.0065106426
0.0077304138
-0.0033621924
0.0034732966
0.0022611896
-0.0035330812
0.002659359
0.006367473
-0.0073871477
-0.0031942473
0.0021975105
0.0055122027
0.0025425471
0.0053506484
-0.010821355
0.0054707068
0.0030194894
0.0015621152
-0.0014422552
-0.0029784344
0.0044058203
0.0077987475
-0.0077987475
-0.0022072375
-0.0012899936
0.0065792502
0.00091834019
-0.0035999779
-0.00038320808
0.0062594313
-0.0058762232
-0.0040922218
0.0096757517
-0.0042741228
0.0095019052
0.0082293847
-0.0047480504
-0.0034813342
0.0044054357
0.0030367318
-0.0052156794
0.0057633609