/*--------------------------------*- C++ -*----------------------------------*\
| =========                 |                                                 |
| \\      /  F ield         | foam-extend: Open Source CFD                    |
|  \\    /   O peration     | Version:     4.1                                |
|   \\  /    A nd           | Web:         http://www.foam-extend.org         |
|    \\/     M anipulation  |                                                 |
\*---------------------------------------------------------------------------*/
FoamFile
{
    version     2.0;
    format      ascii;
    class       volVectorField;
    location    "0.1";
    object      U;
}
// * * * * * * * * * * * * * * * * * * * * * * * * * * * * * * * * * * * * * //

dimensions      [0 1 -1 0 0 0 0];

internalField   nonuniform List<vector> 
4242
(
(1.0912552 1.0734627 1.1805461e-18)
(1.0922073 0.8448891 3.7648773e-21)
(1.0861776 0.84765671 -7.5438613e-19)
(1.1582028 0.90288175 6.2292016e-19)
(1.193956 0.91762117 7.7394323e-21)
(1.2008411 0.88832295 3.524722e-21)
(1.1860419 0.86065668 0)
(1.1761495 0.82452323 2.0861878e-19)
(1.1642581 0.78615536 -3.3107143e-19)
(1.1516515 0.74348628 1.2693216e-19)
(1.1385992 0.69665142 -7.9575744e-20)
(1.1253401 0.64614952 6.5058707e-20)
(1.1124976 0.59274007 5.9133374e-21)
(1.1013373 0.53731346 -8.2216239e-21)
(1.0939497 0.48086163 -1.6213861e-20)
(1.0897524 0.42712982 0)
(1.2511262 0.98800772 0)
(1.2472402 0.74849682 -8.0227653e-21)
(1.2379468 0.76838942 7.8005622e-19)
(1.2991522 0.80069881 -6.4114508e-19)
(1.3330594 0.80773797 -1.2008178e-20)
(1.3364924 0.78373605 3.8650055e-19)
(1.32277 0.75762523 -1.6563795e-20)
(1.3117009 0.72563713 -4.7528663e-19)
(1.2983139 0.69209063 3.6710395e-20)
(1.2835214 0.65514092 1.4095506e-19)
(1.2671611 0.61507265 0)
(1.2493477 0.57213294 -1.021118e-20)
(1.2306213 0.52684035 -1.061831e-20)
(1.2120787 0.47991498 -5.6634336e-20)
(1.1953082 0.43202723 7.3230584e-20)
(1.1795196 0.38535394 9.042942e-21)
(1.4430569 0.94339791 -1.824483e-20)
(1.4572316 0.63373194 -2.4311298e-18)
(1.4242497 0.68049908 9.9216181e-19)
(1.4772643 0.69675555 -7.0008048e-21)
(1.5061557 0.70005449 -6.089829e-19)
(1.5033901 0.67992509 4.947002e-19)
(1.4841033 0.65650465 -6.8410249e-21)
(1.4656536 0.62848838 1.0572582e-20)
(1.4449147 0.59873237 -4.6685198e-21)
(1.4225518 0.56577054 -1.2164672e-20)
(1.3983146 0.53007555 1.2171778e-19)
(1.3722897 0.49193745 -8.7549677e-20)
(1.344959 0.45192571 -1.3478155e-19)
(1.3172037 0.41096146 1.1271202e-19)
(1.2900908 0.37027304 -1.3656618e-20)
(1.2643849 0.33057758 -3.6529435e-20)
(1.6251403 0.85794807 -4.090795e-21)
(1.6667185 0.45717279 -3.2893752e-21)
(1.605913 0.54473736 -6.2035468e-19)
(1.6526269 0.54251002 5.2177488e-19)
(1.6763892 0.54516077 -6.793197e-21)
(1.6686091 0.52981378 3.1694105e-19)
(1.6437041 0.51178596 -2.3725217e-19)
(1.6176727 0.490491 -3.7335098e-19)
(1.5888161 0.46759089 2.1688807e-20)
(1.5575797 0.44193595 4.5026275e-19)
(1.5238154 0.41395028 -1.6989385e-19)
(1.4877312 0.38384759 0)
(1.4499335 0.3521148 9.4365396e-21)
(1.4113589 0.31970916 -6.9250998e-20)
(1.3728012 0.28844297 3.3018677e-20)
(1.3347312 0.25810693 -6.3881086e-20)
(1.7496191 0.72545074 4.0901976e-21)
(1.8224028 0.22358317 -8.9801374e-19)
(1.7348905 0.36493599 7.44664e-19)
(1.7761511 0.34046248 -4.275953e-21)
(1.7962253 0.34624112 1.0638876e-20)
(1.7861317 0.33577161 -3.0295599e-21)
(1.7581619 0.32454224 -2.9636952e-19)
(1.7275595 0.31145796 6.6845299e-21)
(1.6936452 0.29736094 1.6780097e-19)
(1.6566108 0.28143155 -1.2453443e-19)
(1.6163286 0.26397478 1.0054362e-19)
(1.5730131 0.24506178 0)
(1.5272935 0.22494109 5.4061908e-20)
(1.4801895 0.20415183 -3.7696151e-20)
(1.4328004 0.18374343 1.1156123e-20)
(1.3865954 0.16159076 0)
(1.80687 0.55039832 -6.0728932e-19)
(1.9099758 -0.038258001 2.567217e-19)
(1.8012373 0.15845726 4.010294e-19)
(1.8349495 0.10967092 -3.2214074e-19)
(1.8529292 0.12293432 6.7143999e-22)
(1.8428276 0.11682109 1.065539e-19)
(1.8141712 0.11326402 8.2174124e-20)
(1.7818659 0.10907467 -3.524882e-21)
(1.7460285 0.10465405 -3.1567927e-21)
(1.7066792 0.099457518 -1.0518487e-19)
(1.6636815 0.093703734 1.0559478e-19)
(1.6171872 0.087368249 -3.8801146e-21)
(1.5677418 0.080508182 -9.7434445e-21)
(1.5162883 0.07328518 -2.0699904e-20)
(1.4639419 0.066635592 -1.3164925e-23)
(1.4126716 0.056847407 8.2855283e-21)
(1.7961714 0.35288857 -3.1061623e-19)
(1.9246411 -0.30097545 -2.4505102e-19)
(1.81149 -0.062558656 6.2075396e-19)
(1.8298235 -0.12771948 -3.3137346e-19)
(1.8463834 -0.10708819 1.3838977e-19)
(1.8379022 -0.10915031 1.2542635e-23)
(1.8111773 -0.10497448 1.6447066e-19)
(1.7797407 -0.10019255 -7.2680987e-20)
(1.7446981 -0.094774337 -9.1996653e-21)
(1.7060585 -0.089053629 3.2389203e-20)
(1.6637155 -0.082886959 -5.0126622e-20)
(1.6177814 -0.076367625 3.776817e-20)
(1.568714 -0.0695763 -1.0285772e-20)
(1.5173084 -0.062730836 -4.0139413e-20)
(1.4645063 -0.054845631 1.4812542e-20)
(1.4121016 -0.052766872 1.7617838e-20)
(1.7153846 0.15254685 -7.2030425e-21)
(1.8654437 -0.5430571 9.8975782e-19)
(1.7686314 -0.28679136 -8.1728243e-19)
(1.7652558 -0.35243449 6.3513381e-19)
(1.7790879 -0.32834319 -5.3052068e-19)
(1.7729915 -0.32576155 0)
(1.7505724 -0.31480708 3.1681008e-19)
(1.7225026 -0.30167523 -2.5114503e-19)
(1.690798 -0.28694736 -5.4620126e-21)
(1.6556522 -0.2708637 0)
(1.6170328 -0.2533494 -1.9498769e-20)
(1.575041 -0.23456614 9.3350233e-21)
(1.5300657 -0.21472231 -5.8908193e-20)
(1.4827494 -0.19436485 1.0562427e-19)
(1.4339932 -0.17233163 -7.059126e-20)
(1.3850053 -0.15664159 -1.7696172e-20)
(1.5634495 -0.031078165 4.7544453e-21)
(1.7360232 -0.74632726 -3.7579857e-21)
(1.6725951 -0.49870935 0)
(1.6483759 -0.55052649 1.3853969e-20)
(1.6572389 -0.52588396 7.1280894e-21)
(1.6534725 -0.51792614 3.8493781e-19)
(1.6368368 -0.50168 -3.2451613e-19)
(1.6143576 -0.48153816 0)
(1.5883414 -0.45875523 1.0470395e-21)
(1.5592358 -0.4336363 -1.5612756e-20)
(1.5271121 -0.40616446 1.2777294e-20)
(1.4920707 -0.37654374 7.5082328e-21)
(1.4544352 -0.34505769 1.3334191e-20)
(1.4146909 -0.31246666 7.6979501e-20)
(1.3738025 -0.27760605 -8.6587902e-20)
(1.3321843 -0.24836962 4.4669077e-20)
(1.3465541 -0.17829362 0)
(1.5453309 -0.89348438 1.6503227e-18)
(1.5240489 -0.6807313 -2.6885767e-18)
(1.4874511 -0.71091663 1.0859498e-18)
(1.4904551 -0.68623455 -7.1269056e-21)
(1.4886942 -0.67260034 -2.0913059e-20)
(1.4783833 -0.65257269 5.2368058e-19)
(1.4631153 -0.62736011 -4.2050207e-19)
(1.4446919 -0.59850421 -2.7253214e-19)
(1.4236798 -0.56645636 2.4606849e-19)
(1.4002508 -0.53125292 0)
(1.3745022 -0.49311409 -1.3618091e-19)
(1.3466711 -0.4523481 7.5166248e-20)
(1.3170295 -0.40976723 0)
(1.2864577 -0.36434765 0)
(1.254798 -0.32159361 0)
(1.0909821 -0.27808155 3.5172779e-18)
(1.3175207 -0.98014018 -1.4208613e-18)
(1.3348656 -0.81781526 0)
(1.2989494 -0.82509024 -6.2695766e-21)
(1.2973759 -0.80053305 -6.9024949e-19)
(1.297219 -0.78200267 5.9222086e-19)
(1.2925735 -0.75969079 4.1443641e-19)
(1.2846235 -0.73175615 -1.1773059e-20)
(1.2742502 -0.69930521 -2.84109e-19)
(1.2619351 -0.66285285 1.3301586e-20)
(1.2479283 -0.62250639 0)
(1.2323372 -0.5785524 -1.9331369e-19)
(1.2153016 -0.53142679 3.8979089e-20)
(1.1968303 -0.48211495 1.07615e-19)
(1.1773227 -0.43052277 0)
(1.1598551 -0.37334782 9.094016e-21)
(0.56903394 -0.10796043 1.5431216e-20)
(0.88836177 -0.80456284 2.2203542e-18)
(1.0285542 -0.82524086 -9.046169e-19)
(1.0368209 -0.83508642 -7.0019224e-19)
(1.0445459 -0.82080522 5.7492259e-19)
(1.0502681 -0.80404143 -4.5233565e-19)
(1.0536239 -0.78357664 3.7153176e-19)
(1.0560208 -0.75759163 2.5771335e-19)
(1.0577524 -0.72657974 -2.2993841e-19)
(1.05918 -0.69100073 0)
(1.0605067 -0.65101801 0)
(1.0616191 -0.60694015 0)
(1.0622721 -0.55925169 1.1301934e-20)
(1.0620266 -0.50893317 0)
(1.0601544 -0.45757823 5.2017502e-20)
(1.0605394 -0.39869375 -8.6779479e-20)
(0.098886777 -0.7391195 3.0716721e-19)
(0.55841969 -0.60099876 2.7037506e-22)
(0.73970812 -0.80367803 -1.8353655e-19)
(0.8590401 -0.97152251 1.5143027e-19)
(0.87809266 -0.9946945 4.3171658e-22)
(0.89977265 -0.94460987 3.3293186e-21)
(0.89840056 -0.91540776 0)
(0.89886809 -0.87354723 3.6255373e-20)
(0.90067896 -0.82787305 -4.6712888e-20)
(0.90274143 -0.77833201 1.8682347e-20)
(0.90553485 -0.72476699 -5.9164003e-21)
(0.90908836 -0.66784376 4.8323276e-21)
(0.91356615 -0.60830329 -6.8091409e-21)
(0.91944346 -0.54695555 2.5339635e-21)
(0.9265525 -0.48528372 1.8833046e-21)
(0.93149924 -0.42816985 0)
(0.046484085 -0.82815561 0)
(0.52260408 -0.61665461 6.5457065e-22)
(0.56257332 -0.68578957 -7.8948298e-20)
(0.59981841 -0.80611473 6.471822e-20)
(0.61292897 -0.85591742 6.6372468e-22)
(0.65172897 -0.82400913 -5.8290304e-20)
(0.66254571 -0.79909114 -5.9612528e-21)
(0.67509447 -0.76829372 9.2286078e-20)
(0.69123382 -0.73262619 -1.3534929e-21)
(0.70904743 -0.69290884 -3.489735e-20)
(0.72869818 -0.64902185 0)
(0.74984029 -0.60135904 4.9120428e-21)
(0.7721587 -0.55049643 2.5406845e-21)
(0.79549643 -0.49713945 3.1083887e-20)
(0.81949328 -0.44227907 -3.8702545e-20)
(0.84220801 -0.38816214 -6.5263874e-21)
(-0.61240829 -0.85446366 -1.4564021e-20)
(0.11026381 -0.55302432 7.5778155e-19)
(0.37450074 -0.45984537 -3.2119951e-19)
(0.43712876 -0.64264165 2.6792605e-21)
(0.40210734 -0.74672651 2.2299321e-19)
(0.43893924 -0.72416042 -1.7967796e-19)
(0.4619458 -0.69685269 2.9745209e-21)
(0.4831952 -0.66732049 -4.8574216e-21)
(0.50912442 -0.63413601 5.8495896e-22)
(0.5375314 -0.59803353 6.3201577e-21)
(0.56840758 -0.55887529 -6.6171514e-20)
(0.60145504 -0.51683497 4.8171875e-20)
(0.6363731 -0.47227739 8.5658161e-20)
(0.67301295 -0.42575541 -7.2185873e-20)
(0.71080966 -0.37827454 8.9070598e-21)
(0.7469196 -0.33190843 2.9040393e-20)
(-0.26684215 -0.72804955 1.6180399e-21)
(0.22315736 -0.5492666 1.3490218e-21)
(0.24149885 -0.50497527 2.5404731e-19)
(0.25235335 -0.51362259 -2.1317833e-19)
(0.24612462 -0.55257476 2.9720013e-21)
(0.27969573 -0.54608824 -1.4313367e-19)
(0.30955354 -0.52629559 1.0711733e-19)
(0.33564357 -0.50563084 1.8635434e-19)
(0.3668101 -0.48202654 -2.8835286e-21)
(0.40180561 -0.45575556 -2.44527e-19)
(0.4402974 -0.42684859 9.513468e-20)
(0.48188743 -0.39546747 0)
(0.52617938 -0.36191007 -6.022357e-21)
(0.57279699 -0.32665263 4.9078683e-20)
(0.62050012 -0.29060433 -2.3369919e-20)
(0.665474 -0.25530321 5.1259699e-20)
(-0.37069824 -0.47110738 -1.6314951e-21)
(-0.0859901 -0.34625314 3.856304e-19)
(0.14748092 -0.24178234 -3.1856971e-19)
(0.21662642 -0.25916682 1.8347127e-21)
(0.1482236 -0.35359321 -4.6967074e-21)
(0.16187561 -0.35801605 1.3854756e-21)
(0.19595431 -0.33927074 1.4600094e-19)
(0.22900373 -0.32200093 1.7828792e-21)
(0.26626104 -0.30468924 -8.617915e-20)
(0.30777616 -0.2865875 7.0756355e-20)
(0.35333923 -0.26738954 -5.7028625e-20)
(0.4026483 -0.24694864 0)
(0.45541633 -0.22520361 -3.5929498e-20)
(0.51123714 -0.20218802 2.5171739e-20)
(0.56817075 -0.17830095 -8.1855677e-21)
(0.6203558 -0.15496449 0)
(1.443621 -0.94377528 0)
(1.4572043 -0.63356769 1.208908e-18)
(1.4240172 -0.68033006 -1.9645545e-18)
(1.4770246 -0.69661047 8.0583831e-19)
(1.5059027 -0.69990213 5.5628724e-21)
(1.5031313 -0.67980016 1.8130174e-21)
(1.483849 -0.6563965 3.6882542e-19)
(1.4654009 -0.6284059 -3.0683313e-19)
(1.4446614 -0.59867905 -2.1547594e-19)
(1.422289 -0.56574884 1.5677508e-19)
(1.3980155 -0.53007479 0)
(1.3719051 -0.49192926 -7.5177832e-20)
(1.3444292 -0.45188407 5.604401e-20)
(1.3165388 -0.4108557 0)
(1.2895248 -0.3699203 0)
(1.2641154 -0.32984954 0)
(-0.10704995 -0.26882345 2.4676191e-19)
(0.043057821 -0.15758574 -1.0165097e-19)
(0.058135817 -0.14554805 -1.6670508e-19)
(0.074551945 -0.14804211 1.3672965e-19)
(0.097582683 -0.14725437 1.419594e-21)
(0.12567184 -0.14276635 -4.7012437e-20)
(0.15766704 -0.13734541 -3.8875086e-20)
(0.19377298 -0.13110729 4.3159738e-22)
(0.23408252 -0.12382995 4.825268e-22)
(0.27853788 -0.11535757 5.5887444e-20)
(0.32686384 -0.10561118 -5.8501951e-20)
(0.37855311 -0.094632607 9.978939e-22)
(0.43291523 -0.082625141 5.1488375e-21)
(0.4890385 -0.069974595 1.3172562e-20)
(0.54548104 -0.057085657 9.0585769e-24)
(0.59995818 -0.044515963 -6.3709601e-21)
(-0.10511307 0.26720202 1.2258598e-19)
(0.043144548 0.15623586 1.0126892e-19)
(0.058369257 0.14428225 -2.5042411e-19)
(0.074994081 0.14670538 1.3686457e-19)
(0.098221905 0.14584341 -5.7756535e-20)
(0.12648048 0.1413643 -5.5532651e-24)
(0.15866366 0.1360006 -7.5553427e-20)
(0.19497181 0.12987947 3.2139672e-20)
(0.23548696 0.12281456 3.3746326e-21)
(0.28012824 0.11468709 -1.796223e-20)
(0.328584 0.10544151 2.6184646e-20)
(0.38030142 0.095106717 -2.2032285e-20)
(0.43453522 0.083815401 5.1476205e-21)
(0.49028651 0.071833848 2.5475948e-20)
(0.54594384 0.059488979 -9.6940648e-21)
(0.59903505 0.047479422 -1.2922366e-20)
(-0.36942839 0.47075429 2.570354e-21)
(-0.086315471 0.34625319 -3.8870807e-19)
(0.1472834 0.24278452 3.1884517e-19)
(0.21610391 0.26112979 -2.5790626e-19)
(0.14856105 0.35418766 2.1429723e-19)
(0.16244516 0.35811504 0)
(0.19659178 0.33936415 -1.4159382e-19)
(0.22979978 0.32208405 1.121524e-19)
(0.2672241 0.30472594 2.2812246e-21)
(0.30888385 0.28653588 0)
(0.35453109 0.26720426 1.0023852e-20)
(0.4038177 0.24658831 -4.9820895e-21)
(0.45640054 0.22462443 3.5138108e-20)
(0.51175866 0.20128299 -6.6376856e-20)
(0.56773596 0.17675926 4.5032814e-20)
(0.61845527 0.15223396 1.2385987e-20)
(-0.27176702 0.73004037 -1.6182039e-21)
(0.22308837 0.55024811 1.3491728e-21)
(0.24173833 0.50608637 0)
(0.25244826 0.5149975 -4.4845192e-21)
(0.24607561 0.55372255 -2.1924666e-21)
(0.27963227 0.54702611 -1.4302709e-19)
(0.3094759 0.52722129 1.2092297e-19)
(0.33556543 0.50653471 0)
(0.36669903 0.48286141 -1.2087252e-21)
(0.40159741 0.45644593 6.3308207e-21)
(0.43987996 0.42728944 -6.4250416e-21)
(0.48111557 0.39552569 -2.8716584e-21)
(0.52499444 0.36139456 -7.5403859e-21)
(0.57134796 0.32523697 -4.543367e-20)
(0.61862846 0.28789227 5.2172873e-20)
(0.66089412 0.25170118 -2.8509494e-20)
(-0.61847889 0.85467486 0)
(0.10984919 0.55145695 -3.8853283e-19)
(0.3739841 0.45723919 6.4607113e-19)
(0.43676409 0.64076904 -2.6440827e-19)
(0.40132127 0.74763402 2.1931547e-21)
(0.43836443 0.72493284 5.4911238e-21)
(0.46126133 0.69756878 -1.5646282e-19)
(0.48231226 0.66798537 1.2509054e-19)
(0.50799044 0.63469799 9.437417e-20)
(0.53605124 0.59843194 -8.5821514e-20)
(0.56645896 0.55905227 0)
(0.59893956 0.51675521 5.9572717e-20)
(0.63345019 0.47188721 -3.3535725e-20)
(0.67042649 0.42493247 0)
(0.70925154 0.37731953 0)
(0.7437417 0.33332183 0)
(0.047894673 0.82614286 -1.5980559e-19)
(0.5216422 0.61530932 7.4269589e-20)
(0.56141786 0.68416792 0)
(0.598968 0.80445467 -3.2476598e-22)
(0.61235823 0.85559979 6.2179307e-20)
(0.65137425 0.8235958 -5.2295755e-20)
(0.66202974 0.79865529 -5.3784825e-20)
(0.67439554 0.76778898 -4.9126754e-21)
(0.69033779 0.73198652 4.4022688e-20)
(0.70793057 0.69207649 -3.7348445e-21)
(0.72738632 0.64796916 0)
(0.74849203 0.60013297 5.3173452e-20)
(0.77121816 0.54924804 -7.25453e-21)
(0.79574489 0.49622943 -3.4060551e-20)
(0.8216673 0.44259796 0)
(0.84708076 0.39053826 -2.9189567e-21)
(0.10190904 0.73890668 1.3426509e-20)
(0.55820521 0.60116879 4.6797665e-19)
(0.73882799 0.8026941 -1.8729223e-19)
(0.85855189 0.97030627 -1.4213802e-19)
(0.87772789 0.99391564 1.1692132e-19)
(0.89952718 0.94384399 -7.6472069e-20)
(0.8981149 0.91463564 5.7878394e-20)
(0.89853569 0.87272913 3.5967457e-20)
(0.9002914 0.82696923 -3.4832322e-20)
(0.9022955 0.77732268 0)
(0.90508559 0.72367786 0)
(0.90881584 0.66680561 0)
(0.91383271 0.60760801 3.9086657e-21)
(0.92070779 0.5470988 0)
(0.92909248 0.48678371 -6.6723128e-21)
(0.93474658 0.43072411 1.57316e-20)
(0.56840851 0.1075031 1.4033594e-18)
(0.88788019 0.80393793 4.8857477e-21)
(1.0280802 0.82483864 -8.8020611e-19)
(1.036423 0.83468015 7.2920845e-19)
(1.0441406 0.82040295 1.0143597e-20)
(1.0498529 0.80362331 5.1815284e-21)
(1.0532051 0.78314908 0)
(1.0556048 0.75715851 2.6731214e-19)
(1.0573414 0.72613954 -4.2875501e-19)
(1.0587721 0.69054795 1.6702247e-19)
(1.0600966 0.65054333 -1.1178233e-19)
(1.0611942 0.60643239 9.1343143e-20)
(1.0618149 0.55868256 6.3142576e-21)
(1.061424 0.50842872 -1.2295172e-20)
(1.0598325 0.45613042 -2.7412058e-20)
(1.0623607 0.39239696 0)
(1.0905457 0.27788219 0)
(1.3172595 0.97966198 -1.0824525e-20)
(1.3346738 0.81768326 1.1070474e-18)
(1.2987787 0.8248553 -9.1195023e-19)
(1.2971412 0.80029546 -1.6084905e-20)
(1.2969435 0.78173007 5.4915295e-19)
(1.292275 0.75940099 -2.3333622e-20)
(1.2843139 0.73145482 -6.7523672e-19)
(1.2739362 0.69899032 5.0716024e-20)
(1.2616212 0.66251807 2.0060676e-19)
(1.2476208 0.6221402 0)
(1.2320462 0.57813454 -1.4210484e-20)
(1.215054 0.53090573 -1.5566409e-20)
(1.1966318 0.48148439 -8.2183634e-20)
(1.1775666 0.4289236 1.06288e-19)
(1.1576231 0.3771086 1.2573027e-20)
(1.3463347 0.17829669 -3.1159514e-20)
(1.5452211 0.89314677 -3.3271241e-18)
(1.5240386 0.68074155 1.3599951e-18)
(1.4874126 0.71077927 -8.9477037e-21)
(1.4903209 0.68610765 -8.3599237e-19)
(1.48851 0.67243997 6.7988594e-19)
(1.4781775 0.65240486 -8.7820521e-21)
(1.4629029 0.62719112 1.3575454e-20)
(1.444481 0.59833474 -7.3606331e-21)
(1.423476 0.56628528 -1.5597581e-20)
(1.40006 0.53107851 1.6532168e-19)
(1.3743311 0.49293382 -1.1858016e-19)
(1.346528 0.45215803 -1.8093673e-19)
(1.3168819 0.40966516 1.5085723e-19)
(1.2864122 0.363952 -1.8972864e-20)
(1.2537043 0.32492139 -4.9646444e-20)
(1.5635257 0.031181144 -4.7546951e-21)
(1.7360888 0.746142 -3.7581234e-21)
(1.6727375 0.49878892 -7.4766737e-19)
(1.6484296 0.55046756 6.3016377e-19)
(1.6571788 0.52584595 -7.8167742e-21)
(1.6533546 0.51786588 3.849389e-19)
(1.6366987 0.50162336 -2.8764231e-19)
(1.614215 0.48149027 -4.5485208e-19)
(1.5882031 0.45871765 2.4996321e-20)
(1.5591077 0.43360846 5.4841179e-19)
(1.5270004 0.40614415 -2.0664821e-19)
(1.4919816 0.37652363 0)
(1.4543705 0.34502852 1.2008055e-20)
(1.4146224 0.31245828 -8.4464206e-20)
(1.373765 0.27714711 4.0523705e-20)
(1.3318244 0.24972885 -7.6856559e-20)
(1.7156963 -0.15246392 4.7373698e-21)
(1.8656195 0.54298712 -9.8231139e-19)
(1.7688271 0.28686669 8.1734253e-19)
(1.7653248 0.35243254 -4.9081164e-21)
(1.7790395 0.3283669 1.1904309e-20)
(1.7728825 0.32578238 -3.2223558e-21)
(1.7504476 0.31484451 -3.2694304e-19)
(1.7223769 0.30173347 6.7503947e-21)
(1.6906803 0.28702981 1.8467015e-19)
(1.6555481 0.27097156 -1.3773336e-19)
(1.6169479 0.25348299 1.1120523e-19)
(1.5749781 0.23472353 0)
(1.5300162 0.21491244 5.9594954e-20)
(1.4826738 0.19460004 -4.1735419e-20)
(1.4338447 0.17231058 1.2846484e-20)
(1.3846926 0.15834531 0)
(1.7965882 -0.35288444 -6.2620686e-19)
(1.9248179 0.30098693 2.6403999e-19)
(1.81162 0.062606063 4.1239862e-19)
(1.8298234 0.1277654 -3.3140876e-19)
(1.8462722 0.10716404 4.9944434e-22)
(1.8377357 0.10924039 1.0975537e-19)
(1.8110036 0.10509169 8.477865e-20)
(1.7795718 0.1003391 -3.6038149e-21)
(1.7445429 0.094955152 -3.2306323e-21)
(1.7059217 0.089270472 -1.0844768e-19)
(1.6636011 0.083141674 1.0891777e-19)
(1.6176872 0.076663315 -3.990914e-21)
(1.5686196 0.069926932 -1.0288153e-20)
(1.5171514 0.063106984 -2.1373191e-20)
(1.4641799 0.055110669 -1.3170838e-23)
(1.4115977 0.054429024 8.533177e-21)
(1.8072773 -0.55046805 -3.0136206e-19)
(1.910056 0.038334644 -2.3873744e-19)
(1.8012206 -0.15840169 6.0374676e-19)
(1.8348209 -0.1095765 -3.221764e-19)
(1.8527047 -0.12279654 1.3442149e-19)
(1.8425623 -0.1166637 1.2554519e-23)
(1.8139104 -0.11307514 1.596318e-19)
(1.7816162 -0.10885561 -7.0508217e-20)
(1.745798 -0.10439886 -8.7566979e-21)
(1.7064716 -0.099164871 3.1419474e-20)
(1.6634982 -0.093369885 -4.8861288e-20)
(1.6170205 -0.086983819 3.6629257e-20)
(1.5675606 -0.080060623 -9.7469712e-21)
(1.5160137 -0.072814207 -3.8929052e-20)
(1.463475 -0.06607314 1.4367703e-20)
(1.4120285 -0.055261567 1.6833954e-20)
(1.7499811 -0.72558138 -6.3983142e-21)
(1.8223604 -0.22342756 9.0471539e-19)
(1.7347108 -0.3648228 -7.4477162e-19)
(1.7758902 -0.34030332 5.7843972e-19)
(1.7958984 -0.34603624 -4.8301783e-19)
(1.7857837 -0.33555308 0)
(1.7578259 -0.32429958 2.8698036e-19)
(1.7272375 -0.31119589 -2.278176e-19)
(1.6933436 -0.29707453 -4.2959359e-21)
(1.6563313 -0.28112066 0)
(1.6160685 -0.26363396 -1.7356586e-20)
(1.572758 -0.24467683 8.0806887e-21)
(1.527005 -0.22450186 -5.2549899e-20)
(1.4797951 -0.20367795 9.5962601e-20)
(1.4322598 -0.18307417 -6.3477612e-20)
(1.3859317 -0.16025449 -1.6043274e-20)
(1.6255244 -0.85816392 4.0916833e-21)
(1.6666222 -0.45695564 -3.2901432e-21)
(1.605636 -0.54455521 0)
(1.6523075 -0.54230643 -2.7343663e-21)
(1.6760363 -0.54492695 -5.5679827e-21)
(1.668249 -0.52958514 2.9955126e-19)
(1.6433552 -0.51155169 -2.5411766e-19)
(1.6173336 -0.4902586 0)
(1.5884901 -0.46735841 1.7982358e-20)
(1.5572652 -0.44170478 1.2196423e-20)
(1.5235023 -0.41371366 1.1054372e-20)
(1.4873957 -0.38358758 -2.1265778e-20)
(1.4495331 -0.35182064 1.1554288e-20)
(1.4108549 -0.31938143 6.4228225e-20)
(1.3722551 -0.28789795 -7.1468076e-20)
(1.3341814 -0.25705123 3.7545973e-20)
(1.2520604 -0.98862676 2.4204998e-18)
(1.247449 -0.74855406 -9.9390448e-19)
(1.2379592 -0.76839735 0)
(1.2991771 -0.80076347 -4.8460739e-21)
(1.3330668 -0.80779385 -4.8571723e-19)
(1.3364763 -0.78383483 4.1797761e-19)
(1.3227514 -0.75776419 2.9151937e-19)
(1.311674 -0.72582842 -8.229046e-21)
(1.2982676 -0.69234746 -2.0044303e-19)
(1.2834331 -0.65546778 9.5611347e-21)
(1.2669734 -0.61545045 0)
(1.2489591 -0.57250438 -1.3431783e-19)
(1.2299202 -0.52711266 2.8148471e-20)
(1.2111126 -0.47993085 7.4364327e-20)
(1.1945114 -0.43147801 0)
(1.1792174 -0.38417993 5.9449442e-21)
(1.0928972 -1.0745245 5.7210112e-21)
(1.0929498 -0.84530298 1.9028627e-18)
(1.0866698 -0.84798558 -7.753616e-19)
(1.1586585 -0.90327619 -5.9360244e-19)
(1.1943458 -0.91793371 4.8799037e-19)
(1.2011341 -0.88868453 -3.6916613e-19)
(1.1863111 -0.86107954 3.0425536e-19)
(1.1763895 -0.82502266 2.0166291e-19)
(1.1644614 -0.78675461 -1.7846573e-19)
(1.1517958 -0.74419587 0)
(1.138606 -0.69744867 0)
(1.1250488 -0.64694395 0)
(1.1116977 -0.59335725 6.1053576e-21)
(1.0999818 -0.53751891 0)
(1.0924729 -0.48050441 3.2359176e-20)
(1.0890853 -0.42595117 -5.2088942e-20)
(0.53398688 -0.30424997 7.50455e-19)
(0.71409525 -0.79513608 1.866689e-21)
(0.77411824 -0.79669099 -4.6211019e-19)
(0.79404842 -0.81767378 3.8136419e-19)
(0.81427822 -0.80681265 3.6282859e-21)
(0.83012466 -0.789793 4.9969077e-21)
(0.84241885 -0.76810758 0)
(0.85293537 -0.74097579 1.2465497e-19)
(0.86259834 -0.70927027 -1.9108264e-19)
(0.87209642 -0.6736589 7.6062851e-20)
(0.88188179 -0.63450031 -4.8370248e-20)
(0.8921539 -0.59212132 3.953296e-20)
(0.9029835 -0.54688876 -4.997899e-21)
(0.91450316 -0.49918781 -2.8009674e-21)
(0.92578666 -0.45062684 -1.1696606e-20)
(0.94061758 -0.39924157 0)
(0.31579908 -0.15446686 0)
(0.46587482 -0.61056966 -2.7764064e-21)
(0.53998311 -0.70674827 2.7458866e-19)
(0.58933366 -0.75090724 -2.2524731e-19)
(0.62772851 -0.76390851 -4.3912318e-21)
(0.65442846 -0.76216448 1.2589571e-19)
(0.67428838 -0.7496957 -9.2698453e-21)
(0.6912109 -0.7280601 -1.4476996e-19)
(0.70709322 -0.69929087 1.3583344e-20)
(0.72312337 -0.66490405 3.8959525e-20)
(0.74006229 -0.62583604 0)
(0.75827282 -0.58279913 -3.7528721e-22)
(0.77783665 -0.53648631 -3.9201424e-21)
(0.79882165 -0.4875181 -4.0473991e-21)
(0.82044757 -0.43710639 6.4617038e-21)
(0.84545709 -0.38381103 -1.5788787e-21)
(0.091834296 0.32132623 -6.3592544e-21)
(0.18636894 -0.26660328 -2.1918408e-19)
(0.2882462 -0.48299888 8.5328441e-20)
(0.3699529 -0.59022579 1.1048331e-22)
(0.42587896 -0.64445525 -3.7903637e-20)
(0.46287957 -0.66741562 3.207624e-20)
(0.49055903 -0.6687822 3.6406873e-22)
(0.5145149 -0.65490948 -7.6890837e-22)
(0.53743498 -0.63073886 -2.4015597e-21)
(0.56102565 -0.59953586 1.4948162e-21)
(0.58638479 -0.56324883 -8.734939e-21)
(0.61400713 -0.52312052 7.3893284e-21)
(0.64387377 -0.4801189 2.1665949e-20)
(0.67565905 -0.43508728 -1.9116452e-20)
(0.70812998 -0.38918785 1.4940404e-21)
(0.74518927 -0.34048019 9.8185081e-21)
(0.17864018 0.44061783 5.2417968e-22)
(0.040790406 -0.067844742 4.4503492e-22)
(0.12526733 -0.28833074 5.3104335e-20)
(0.18705344 -0.41910991 -4.4171965e-20)
(0.23580332 -0.49108906 1.038713e-21)
(0.27413135 -0.52587879 -3.7153318e-20)
(0.30734347 -0.53550189 2.8189043e-20)
(0.3391212 -0.52789485 5.8452753e-20)
(0.37140873 -0.50892276 2.5936879e-21)
(0.40544248 -0.48262058 -8.8634742e-20)
(0.44200129 -0.4515692 3.6333196e-20)
(0.48139717 -0.41743025 0)
(0.52349708 -0.3813832 -2.1805031e-21)
(0.56784993 -0.34436556 2.4340376e-20)
(0.61322761 -0.30743237 -1.1432724e-20)
(0.66330177 -0.26950449 2.8496819e-20)
(0.26381021 0.3115982 -5.2426326e-22)
(0.057603207 0.10437995 1.6610487e-19)
(0.039888361 -0.12557024 -1.3733521e-19)
(0.066209941 -0.23636875 6.2102835e-22)
(0.099531418 -0.30006105 -1.9341595e-21)
(0.13363503 -0.33352282 7.3391236e-22)
(0.16752594 -0.34617041 6.9744854e-20)
(0.20311044 -0.34425882 2.6983797e-21)
(0.24175095 -0.33252986 -4.3171808e-20)
(0.2839964 -0.31453548 3.8101757e-20)
(0.32997713 -0.29277407 -3.0697069e-20)
(0.37953929 -0.26894712 0)
(0.4322174 -0.24424714 -2.2019685e-20)
(0.4872479 -0.21957336 1.5279026e-20)
(0.54320667 -0.19578154 -4.8658807e-21)
(0.60288084 -0.17269131 0)
(0.29150548 0.13178741 1.4117278e-19)
(0.10549292 0.035307226 -5.8046255e-20)
(0.0037608975 -0.050866886 -9.6835351e-20)
(-0.012052038 -0.11316468 8.0362102e-20)
(0.0061389906 -0.1487159 1.2217421e-21)
(0.033185589 -0.16421693 -2.8123164e-20)
(0.067135855 -0.16922085 -2.4171547e-20)
(0.10722879 -0.16705132 -2.4299957e-22)
(0.15300706 -0.15991142 -1.194294e-22)
(0.2040103 -0.14956484 3.7399818e-20)
(0.25949598 -0.13739004 -3.9951333e-20)
(0.3186191 -0.12440143 3.289469e-22)
(0.38052509 -0.11132143 3.1876923e-21)
(0.44436497 -0.098671068 9.4944698e-21)
(0.50919022 -0.086877549 6.6955292e-24)
(0.5785444 -0.076000527 -4.6548411e-21)
(0.29106326 -0.13279022 7.0099828e-20)
(0.10514529 -0.036039819 5.8637626e-20)
(0.0037364645 0.050394006 -1.4514153e-19)
(-0.011978591 0.11321381 8.0342545e-20)
(0.0062190162 0.14916619 -3.4048745e-20)
(0.03324827 0.16489135 -3.3642654e-24)
(0.067174025 0.17003855 -4.7098673e-20)
(0.10723991 0.16795893 1.9426458e-20)
(0.15298301 0.16087418 1.5590111e-21)
(0.20393909 0.15056356 -1.2477322e-20)
(0.25936086 0.1384183 1.7845427e-20)
(0.31839229 0.12546281 -1.5586602e-20)
(0.38014989 0.11242643 3.1841844e-21)
(0.4437209 0.099831967 1.8525616e-20)
(0.50785979 0.088102087 -7.1077271e-21)
(0.57600187 0.077286831 -9.256209e-21)
(0.26312837 -0.312524 9.9101751e-22)
(0.057225942 -0.10557627 -1.6689086e-19)
(0.03990135 0.12517237 1.3725597e-19)
(0.066361365 0.23636572 -1.1403998e-19)
(0.099653125 0.30035223 9.4657411e-20)
(0.13372586 0.3340084 0)
(0.167589 0.34677637 -6.727495e-20)
(0.20313653 0.34494172 5.3499154e-20)
(0.24173034 0.33326937 5.558257e-22)
(0.28392535 0.31532771 0)
(0.32986132 0.29362777 5.3212811e-21)
(0.37940133 0.26988207 -2.5421286e-21)
(0.43211234 0.24529487 2.0603822e-20)
(0.48734247 0.2207694 -4.1574275e-20)
(0.54365806 0.19722049 2.8094296e-20)
(0.60745768 0.17376609 8.1937815e-21)
(0.1780741 -0.44202141 -5.2402594e-22)
(0.040106724 0.066519731 4.4494707e-22)
(0.12513284 0.28763565 0)
(0.18703392 0.41887144 -7.2780527e-22)
(0.2357878 0.49114184 -1.4064965e-22)
(0.27409566 0.52609803 -3.7198661e-20)
(0.30726525 0.53581246 3.2000891e-20)
(0.33897516 0.52825831 0)
(0.37117074 0.50932484 -1.4293824e-21)
(0.40508829 0.48306316 1.5115076e-21)
(0.44150213 0.45206682 -3.0969437e-21)
(0.48071203 0.41801199 3.0370883e-24)
(0.52255324 0.38210363 -4.0570081e-21)
(0.56656542 0.3453048 -2.4014782e-20)
(0.61097028 0.30894026 2.7757682e-20)
(0.66268458 0.27072569 -1.6317852e-20)
(0.090821937 -0.32401446 0)
(0.18556732 0.26499941 1.0469266e-19)
(0.28785562 0.48208293 -1.6117113e-19)
(0.36976991 0.58969539 6.272248e-20)
(0.42576308 0.64415658 1.388447e-22)
(0.46276084 0.66724755 -9.0980155e-22)
(0.49039757 0.66868247 1.2102731e-20)
(0.5142824 0.65484459 -1.0178448e-20)
(0.53710878 0.6306929 3.2354408e-21)
(0.56058488 0.59950165 -4.4181036e-21)
(0.58580644 0.56322151 0)
(0.61325869 0.52309441 1.2462944e-20)
(0.64290705 0.48008053 -7.8274398e-21)
(0.67448523 0.4349554 0)
(0.70625282 0.38915713 0)
(0.74679845 0.338304 0)
(0.31546228 0.15364381 9.0097061e-19)
(0.46548614 0.60962868 -3.624602e-19)
(0.53965568 0.70607953 0)
(0.58908804 0.75033655 -2.2828453e-21)
(0.62750612 0.7634155 -1.6124159e-19)
(0.65419245 0.76172196 1.3911506e-19)
(0.67401575 0.74928613 8.9210088e-20)
(0.69088694 0.72767343 -5.3490831e-21)
(0.70670715 0.69891995 -5.679081e-20)
(0.7226658 0.66454145 9.6388631e-22)
(0.73952464 0.62547085 0)
(0.75764302 0.58241707 -2.5048731e-20)
(0.77711415 0.53605225 6.274752e-21)
(0.79804185 0.48694829 1.0804798e-20)
(0.81876759 0.43697751 0)
(0.84560705 0.38191119 1.503138e-21)
(0.53338675 0.30350804 8.3617273e-21)
(0.71360083 0.79437783 1.1880311e-18)
(0.77364238 0.79613102 -4.8129752e-19)
(0.79361804 0.81710627 -3.579748e-19)
(0.81384805 0.80626691 2.9397626e-19)
(0.82968248 0.78925061 -2.1891824e-19)
(0.84195896 0.76756964 1.749704e-19)
(0.85245452 0.74044624 1.2092067e-19)
(0.86209275 0.70875018 -1.1107872e-19)
(0.87156109 0.67314616 0)
(0.8813114 0.63398923 0)
(0.89153999 0.59160617 0)
(0.90234623 0.54633473 9.3775234e-21)
(0.91383604 0.49859306 0)
(0.92473624 0.45044333 1.918457e-20)
(0.94673072 0.39341469 -3.0464078e-20)
(0.51775235 0.63575985 0)
(0.72310898 0.82158163 0)
(0.86838508 0.97077562 0)
(0.8972066 0.99456304 7.1830184e-21)
(0.91924695 0.9514861 -4.4470126e-20)
(0.92104635 0.92491258 4.7543782e-20)
(0.92729319 0.88290798 0)
(0.93368575 0.83812432 -6.3596139e-21)
(0.94020227 0.78904238 0)
(0.94705039 0.73561207 0)
(0.95409452 0.67864466 0)
(0.96145224 0.61908886 7.6404124e-21)
(0.96965571 0.55799892 0)
(0.97926525 0.49686891 1.3284534e-20)
(0.98865825 0.44102345 0)
(0.51760512 -0.63576971 0)
(0.72388484 -0.82262526 0)
(0.8688973 -0.97195876 0)
(0.89758639 -0.9953311 7.199414e-21)
(0.91948976 -0.95225281 -4.1667856e-20)
(0.92132416 -0.92568414 5.2604708e-20)
(0.92760167 -0.88372238 0)
(0.93402917 -0.8390192 6.3595951e-21)
(0.94057294 -0.79003566 0)
(0.94737636 -0.73667642 0)
(0.95417876 -0.67964536 0)
(0.96094873 -0.61973141 -7.6319914e-21)
(0.96825083 -0.55783969 0)