/*--------------------------------*- C++ -*----------------------------------*\
| =========                 |                                                 |
| \\      /  F ield         | foam-extend: Open Source CFD                    |
|  \\    /   O peration     | Version:     4.1                                |
|   \\  /    A nd           | Web:         http://www.foam-extend.org         |
|    \\/     M anipulation  |                                                 |
\*---------------------------------------------------------------------------*/
FoamFile
{
    version     2.0;
    format      ascii;
    class       surfaceScalarField;
    location    "1";
    object      phi;
}
// * * * * * * * * * * * * * * * * * * * * * * * * * * * * * * * * * * * * * //

dimensions      [0 3 -1 0 0 0 0];

internalField   nonuniform List<scalar> 
31929
(
-0.042641341
5.0179969e-05
-0.042699452
5.8110678e-05
-0.042759635
6.0182871e-05
-0.042820976
6.1341273e-05
-0.042883138
6.2161919e-05
-0.042946005
6.2867029e-05
-0.043009533
6.3527679e-05
-0.043073704
6.4171007e-05
-0.043138508
6.480425e-05
-0.043203937
6.542913e-05
-0.043269979
6.6041715e-05
-0.043336617
6.6638613e-05
-0.043403831
6.7213629e-05
-0.043471594
6.7762721e-05
-0.043539874
6.8279971e-05
-0.043608636
6.8762302e-05
-0.043677841
6.920521e-05
-0.043747449
6.9607435e-05
-0.043817415
6.9966539e-05
-0.043887699
7.0283576e-05
-0.043958257
7.0558547e-05
-0.044029052
7.0795053e-05
-0.044100048
7.0995644e-05
-0.044171214
7.1166447e-05
-0.044242527
7.1312412e-05
-0.044313969
7.1441912e-05
-0.044385531
7.1561891e-05
-0.044457213
7.1682426e-05
-0.044529025
7.1811806e-05
-0.044600986
7.1961056e-05
-0.044673125
7.2138948e-05
-0.044745481
7.2356161e-05
-0.044818103
7.2622225e-05
-0.044891048
7.2944961e-05
-0.044964382
7.3333418e-05
-0.045038175
7.3793022e-05
-0.045112505
7.4330156e-05
-0.045187452
7.4947064e-05
-0.045263098
7.5646509e-05
-0.045339525
7.6426674e-05
-0.045416811
7.7285951e-05
-0.045495029
7.8217931e-05
-0.045574244
7.9215665e-05
-0.045654513
8.0268581e-05
-0.045735877
8.1363967e-05
-0.045818364
8.2486618e-05
-0.045901983
8.3618945e-05
-0.045986724
8.4741336e-05
-0.046072556
8.5831997e-05
-0.046159423
8.6867558e-05
-0.046247247
8.7823208e-05
-0.04633592
8.8673071e-05
-0.04642531
8.939054e-05
-0.046515259
8.9948897e-05
-0.04660558
9.0321356e-05
-0.046696062
9.0481897e-05
-0.046786468
9.0405555e-05
-0.046876537
9.0068927e-05
-0.046965987
8.9450594e-05
-0.047054519
8.853178e-05
-0.047141816
8.7296407e-05
-0.047227547
8.5731865e-05
-0.047311377
8.3829208e-05
-0.04739296
8.1583516e-05
-0.047471954
7.8994165e-05
-0.047548019
7.6065013e-05
-0.047620824
7.2804726e-05
-0.047690051
6.9226537e-05
-0.047755399
6.5348574e-05
-0.047816593
6.1193652e-05
-0.047873382
5.6789169e-05
-0.047925549
5.2166875e-05
-0.047972912
4.7362665e-05
-0.048015327
4.241587e-05
-0.048052696
3.7368951e-05
-0.048084963
3.2266833e-05
-0.04811212
2.7156341e-05
-0.048134205
2.2085741e-05
-0.048151309
1.7103928e-05
-0.048163568
1.2259079e-05
-0.048171166
7.597766e-06
-0.048174331
3.1654873e-06
-0.048173326
-1.0050305e-06
-0.048168395
-4.9309694e-06
-0.048159809
-8.5867018e-06
-0.048147927
-1.1881427e-05
-0.048133166
-1.4761404e-05
-0.048115965
-1.7201247e-05
-0.048096778
-1.9186758e-05
-0.048076066
-2.0711773e-05
-0.048054289
-2.177702e-05
-0.0480319
-2.2389407e-05
-0.048009338
-2.2561563e-05
-0.047987027
-2.2311181e-05
-0.047965367
-2.1660363e-05
-0.047944732
-2.0634896e-05
-0.047925468
-1.9263495e-05
-0.047907891
-1.7577071e-05
-0.047892283
-1.5607923e-05
-0.047878894
-1.3389136e-05
-0.04786794
-1.0953963e-05
-0.047859605
-8.3351836e-06
-0.04785404
-5.564522e-06
-0.047851368
-2.6721115e-06
-0.047851678
3.0996399e-07
-0.047855013
3.3346904e-06
-0.047861388
6.3751074e-06
-0.047870818
9.4303283e-06
-0.047883307
1.2488743e-05
-0.047898841
1.5534267e-05
-0.047917392
1.8551216e-05
-0.047938917
2.152488e-05
-0.047963359
2.4441322e-05
-0.047990645
2.7286617e-05
-0.048020691
3.004541e-05
-0.04805339
3.2699604e-05
-0.04808862
3.5229966e-05
-0.048126232
3.7611821e-05
-0.048166015
3.978335e-05
-0.04820758
4.1564706e-05
-0.048250273
4.2692724e-05
-0.048293703
4.3429885e-05
-0.048339356
4.5653741e-05
4.7733555e-05
-0.049023395
6.8052096e-05
-0.049038529
7.3244192e-05
-0.049054265
7.5919244e-05
-0.049070614
7.7690339e-05
-0.049087509
7.9056897e-05
-0.049104901
8.0258854e-05
-0.049122769
8.1395537e-05
-0.049141107
8.2509074e-05
-0.049159914
8.3611792e-05
-0.049179191
8.4705855e-05
-0.049198934
8.5784351e-05
-0.049219135
8.6840078e-05
-0.049239783
8.7861727e-05
-0.049260861
8.8840639e-05
-0.049282347
8.9765788e-05
-0.049304215
9.0630123e-05
-0.049326435
9.1425102e-05
-0.049348974
9.2146951e-05
-0.049371799
9.2790929e-05
-0.049394873
9.3357567e-05
-0.049418161
9.3846709e-05
-0.049441629
9.4263726e-05
-0.049465247
9.4613349e-05
-0.049488987
9.4905834e-05
-0.049512825
9.5150605e-05
-0.049536745
9.5362343e-05
-0.049560738
9.555446e-05
-0.0495848
9.5745103e-05
-0.049608939
9.5950482e-05
-0.049633169
9.6190794e-05
-0.049657513
9.6483421e-05
-0.049682005
9.6848398e-05
-0.049706687
9.7304001e-05
-0.049731608
9.7866063e-05
-0.049756826
9.855156e-05
-0.049782405
9.9372007e-05
-0.049808415
0.00010033942
-0.049834927
0.00010145929
-0.049862017
0.00010273675
-0.04988976
0.0001041695
-0.049918228
0.00010575417
-0.04994749
0.00010747947
-0.049977606
0.00010933189
-0.050008629
0.0001112914
-0.050040598
0.00011333353
-0.050073541
0.00011542885
-0.050107465
0.00011754318
-0.050142362
0.00011963813
-0.050178201
0.00012167104
-0.050214929
0.00012359591
-0.05025247
0.00012536374
-0.05029072
0.00012692331
-0.050329551
0.0001282218
-0.050368808
0.00012920591
-0.050408309
0.00012982219
-0.050447845
0.0001300185
-0.050487185
0.00012974466
-0.050526069
0.00012895348
-0.05056422
0.00012760164
-0.050601339
0.00012565091
-0.050637111
0.00012306847
-0.050671208
0.00011982833
-0.05070329
0.00011591178
-0.050733015
0.00011130816
-0.050760036
0.00010601539
-0.050784012
0.00010004045
-0.050804607
9.3399881e-05
-0.0508215
8.611956e-05
-0.050834386
7.8235199e-05
-0.050842985
6.9791992e-05
-0.05084704
6.0844445e-05
-0.050846329
5.1455947e-05
-0.050840665
4.1698211e-05
-0.050829899
3.1650156e-05
-0.050813927
2.1396988e-05
-0.050792689
1.1029163e-05
-0.050766174
6.4127042e-07
-0.050734418
-9.6706591e-06
-0.050697504
-1.9809611e-05
-0.050655569
-2.9676303e-05
-0.050608797
-3.9174052e-05
-0.050557419
-4.8212611e-05
-0.050501714
-5.6710233e-05
-0.050442066
-6.4578826e-05
-0.050378908
-7.1744922e-05
-0.05031263
-7.8158876e-05
-0.050243619
-8.377263e-05
-0.050172273
-8.8547457e-05
-0.050099002
-9.2457765e-05
-0.050024222
-9.54909e-05
-0.049948353
-9.7646825e-05
-0.049871805
-9.8937026e-05
-0.049794983
-9.9384006e-05
-0.049718274
-9.9019999e-05
-0.049642048
-9.7885764e-05
-0.049566654
-9.6029221e-05
-0.049492413
-9.350399e-05
-0.049419622
-9.0368128e-05
-0.049348548
-8.668234e-05
-0.049279428
-8.250904e-05
-0.049212471
-7.791095e-05
-0.049147856
-7.2950007e-05
-0.049085734
-6.7686452e-05
-0.049026228
-6.2178518e-05
-0.048969436
-5.648204e-05
-0.048915457
-5.0643972e-05
-0.048864372
-4.4710177e-05
-0.048816214
-3.8727459e-05
-0.04877099
-3.2735143e-05
-0.048728688
-2.6768161e-05
-0.048689278
-2.0858237e-05
-0.048652719
-1.5034485e-05
-0.048618954
-9.3240974e-06
-0.048587913
-3.7537797e-06
-0.048559516
1.6481328e-06
-0.048533667
6.8503268e-06
-0.048510255
1.1818508e-05
-0.04848915
1.6506622e-05
-0.04847017
2.080378e-05
-0.048453062
2.4455992e-05
-0.048437616
2.7247504e-05
-0.048423778
2.959111e-05
-0.048409817
3.1693461e-05
2.5006251e-05
-0.049696802
7.7910548e-05
-0.049704555
8.0997866e-05
-0.049712076
8.3440007e-05
-0.049719827
8.5440968e-05
-0.049727943
8.7173284e-05
-0.049736457
8.8772679e-05
-0.049745371
9.0309721e-05
-0.04975468
9.1818476e-05
-0.049764376
9.3307761e-05
-0.049774448
9.4777263e-05
-0.049784881
9.6217161e-05
-0.049795658
9.7617543e-05
-0.04980676
9.896411e-05
-0.049818166
0.00010024581
-0.049829849
0.00010144931
-0.049841785
0.00010256614
-0.049853947
0.00010358668
-0.049866307
0.00010450721
-0.04987884
0.0001053235
-0.04989152
0.00010603787
-0.049904326
0.00010665244
-0.049917238
0.0001071762
-0.049930243
0.00010761795
-0.04994333
0.00010799328
-0.049956497
0.00010831731
-0.049969746
0.0001086115
-0.049983088
0.00010889617
-0.04999654
0.00010919726
-0.050010128
0.00010953857
-0.050023886
0.00010994843
-0.050037854
0.00011045181
-0.050052082
0.00011107643
-0.050066625
0.00011184752
-0.050081546
0.00011278703
-0.050096912
0.00011391748
-0.050112795
0.00011525431
-0.050129268
0.00011681258
-0.050146407
0.00011859881
-0.050164288
0.00012061794
-0.050182984
0.00012286509
-0.050202563
0.00012533293
-0.050223087
0.0001280035
-0.05024461
0.00013085506
-0.050267175
0.00013385686
-0.050290814
0.0001369717
-0.05031554
0.00014015533
-0.050341354
0.00014335676
-0.050368235
0.00014651901
-0.050396143
0.00014957908
-0.050425016
0.00015246924
-0.05045477
0.00015511759
-0.050485296
0.00015744907
-0.05051646
0.00015938647
-0.050548106
0.00016085196
-0.050580052
0.00016176761
-0.050612091
0.00016205743
-0.050643994
0.00016164836
-0.050675512
0.00016047172
-0.050706375
0.00015846453
-0.050736296
0.00015557115
-0.050764971
0.00015174392
-0.050792088
0.00014694506
-0.050817323
0.00014114743
-0.050840351
0.00013433559
-0.050860842
0.00012650665
-0.050878473
0.00011767092
-0.050892925
0.00010785262
-0.050903895
9.7089718e-05
-0.050911095
8.5434538e-05
-0.050914256
7.2953307e-05
-0.050913138
5.9725944e-05
-0.050907527
4.5845567e-05
-0.050897246
3.14175e-05
-0.050882154
1.6557701e-05
-0.050862148
1.3915445e-06
-0.050837172
-1.3947378e-05
-0.050807211
-2.9319378e-05
-0.050772301
-4.4580507e-05
-0.050732526
-5.9585331e-05
-0.050688012
-7.4189894e-05
-0.050638933
-8.8252914e-05
-0.050585506
-0.00010163943
-0.050527994
-0.00011422247
-0.050466691
-0.00012588184
-0.050401923
-0.00013651327
-0.05033405
-0.00014603149
-0.050263458
-0.00015436435
-0.05019055
-0.00016145558
-0.050115741
-0.00016726738
-0.050039451
-0.00017178058
-0.049962103
-0.00017499454
-0.049884115
-0.00017692557
-0.049805892
-0.00017760642
-0.049727828
-0.00017708426
-0.049650295
-0.00017541899
-0.049573643
-0.00017268118
-0.049498197
-0.00016894988
-0.049424254
-0.00016431083
-0.049352083
-0.00015885367
-0.049281921
-0.00015267064
-0.049213978
-0.00014585439
-0.049148431
-0.00013849644
-0.049085432
-0.00013068572
-0.049025103
-0.00012250797
-0.048967541
-0.00011404375
-0.048912818
-0.00010536703
-0.04886098
-9.6547447e-05
-0.048812058
-8.7650201e-05
-0.048766059
-7.8733463e-05
-0.048722978
-6.984954e-05
-0.048682791
-6.1045547e-05
-0.048645461
-5.2364539e-05
-0.048610938
-4.3846527e-05
-0.048579162
-3.5530421e-05
-0.048550057
-2.7456454e-05
-0.048523539
-1.9667707e-05
-0.048499508
-1.2212085e-05
-0.048477845
-5.1571652e-06
-0.048458396
1.3557215e-06
-0.048441034
7.0938559e-06
-0.048425756
1.196886e-05
-0.048412273
1.6108672e-05
-0.048399019
1.8439322e-05
1.3107159e-05
-0.049748315
8.5606459e-05
-0.049755159
8.7841047e-05
-0.049761842
9.0123578e-05
-0.049768684
9.2283161e-05
-0.049775829
9.4317912e-05
-0.049783332
9.6276211e-05
-0.049791214
9.8191106e-05
-0.049799476
0.00010008038
-0.049808112
0.00010194451
-0.049817113
0.0001037782
-0.049826464
0.00010556761
-0.049836146
0.0001072997
-0.049846139
0.0001089572
-0.04985642
0.00011052688
-0.049866964
0.00011199341
-0.049877745
0.00011334734
-0.049888737
0.00011457839
-0.049899913
0.00011568333
-0.049911249
0.00011665888
-0.04992272
0.00011750952
-0.049934308
0.00011824004
-0.049945995
0.00011886334
-0.04995777
0.00011939258
-0.049969625
0.00011984889
-0.049981561
0.00012025324
-0.049993584
0.00012063397
-0.050005706
0.00012101841
-0.050017949
0.00012144025
-0.050030341
0.00012193086
-0.050042919
0.00012252661
-0.050055728
0.00012325997
-0.050068817
0.00012416618
-0.050082247
0.0001252773
-0.050096081
0.0001266212
-0.05011039
0.00012822578
-0.050125245
0.00013011022
-0.050140725
0.00013229246
-0.050156906
0.00013477988
-0.050173866
0.00013757708
-0.050191677
0.00014067647
-0.050210411
0.0001440666
-0.05023013
0.0001477228
-0.05025089
0.00015161495
-0.050272734
0.00015570152
-0.050295695
0.00015993249
-0.050319789
0.00016424875
-0.050345014
0.00016858241
-0.050371353
0.00017285782
-0.050398766
0.00017699157
-0.05042719
0.00018089411
-0.050456543
0.00018447048
-0.050486716
0.00018762166
-0.050517575
0.00019024588
-0.050548964
0.0001922405
-0.050580699
0.00019350289
-0.050612575
0.0001939329
-0.05064436
0.00019343422
-0.050675805
0.0001919163
-0.050706636
0.00018929602
-0.050736565
0.00018549989
-0.050765286
0.00018046489
-0.050792482
0.00017414094
-0.050817827
0.00016649193
-0.050840988
0.00015749712
-0.050861634
0.00014715231
-0.050879433
0.00013547065
-0.050894065
0.00012248367
-0.050905216
0.00010824108
-0.050912593
9.2811579e-05
-0.050915922
7.6282264e-05
-0.050914954
5.8758555e-05
-0.050909472
4.0363466e-05
-0.050899291
2.1236097e-05
-0.050884263
1.5298087e-06
-0.050864282
-1.8589199e-05
-0.050839286
-3.8943942e-05
-0.050809256
-5.934927e-05
-0.050774222
-7.9613885e-05
-0.050734264
-9.9544213e-05
-0.050689506
-0.00011894764
-0.050640123
-0.00013763582
-0.050586334
-0.00015542787
-0.050528404
-0.00017215283
-0.050466633
-0.00018765287
-0.050401357
-0.00020178913
-0.050332945
-0.00021444412
-0.050261788
-0.000225521
-0.050188298
-0.00023494541
-0.050112898
-0.00024266721
-0.050036018
-0.00024866089
-0.049958087
-0.00025292558
-0.049879529
-0.000255483
-0.049800759
-0.00025637675
-0.049722174
-0.0002556698
-0.04964415
-0.00025344203
-0.049567044
-0.00024978758
-0.049491182
-0.0002448119
-0.049416864
-0.00023862931
-0.049344358
-0.00023135926
-0.049273904
-0.00022312462
-0.04920571
-0.00021404875
-0.049139953
-0.00020425342
-0.049076781
-0.00019385692
-0.049016316
-0.00018297292
-0.048958652
-0.00017170794
-0.048903858
-0.00016016136
-0.04885198
-0.00014842563
-0.048803044
-0.00013658587
-0.048757059
-0.00012471889
-0.048714014
-0.00011289397
-0.048673887
-0.00010117319
-0.048636638
-8.9613028e-05
-0.048602219
-7.8265605e-05
-0.048570568
-6.7180936e-05
-0.048541616
-5.6409381e-05
-0.04851528
-4.6003519e-05
-0.048491469
-3.6022525e-05
-0.048470074
-2.6552641e-05
-0.048450974
-1.7744015e-05
-0.048434101
-9.7794662e-06
-0.048419423
-2.708631e-06
-0.048406539
3.224826e-06
-0.048394939
6.838475e-06
5.2586607e-06
-0.049749438
9.2455735e-05
-0.049756074
9.4477386e-05
-0.049762705
9.6754526e-05
-0.04976951
9.9088242e-05
-0.049776601
0.00010140907
-0.049784037
0.00010371136
-0.049791842
0.00010599649
-0.049800026
0.00010826481
-0.049808588
0.00011050632
-0.049817519
0.00011270906
-0.049826805
0.00011485398
-0.04983643
0.00011692413
-0.049846371
0.00011889872
-0.049856606
0.00012076193
-0.049867109
0.00012249619
-0.049877853
0.00012409081
-0.049888809
0.0001255347
-0.049899951
0.00012682499
-0.049911251
0.00012795924
-0.049922686
0.00012894406
-0.049934232
0.00012978687
-0.049945874
0.00013050451
-0.049957595
0.00013111456
-0.04996939
0.00013164379
-0.049981256
0.00013211916
-0.049993198
0.00013257608
-0.050005229
0.00013304908
-0.050017369
0.00013357985
-0.050029645
0.00013420766
-0.050042096
0.00013497721
-0.050054765
0.00013592883
-0.050067704
0.00013710563
-0.050080974
0.0001385469
-0.05009464
0.00014028682
-0.050108773
0.00014235904
-0.05012345
0.00014478688
-0.050138749
0.00014759152
-0.05015475
0.00015078153
-0.050171535
0.00015436146
-0.050189179
0.00015832128
-0.050207758
0.00016264561
-0.050227339
0.00016730322
-0.05024798
0.00017225569
-0.050269729
0.0001774507
-0.050292622
0.00018282539
-0.050316678
0.00018830557
-0.050341902
0.00019380628
-0.050368277
0.00019923287
-0.050395767
0.00020448114
-0.050424312
0.00020943923
-0.05045383
0.00021398863
-0.050484214
0.00021800573
-0.050515332
0.00022136352
-0.050547025
0.00022393387
-0.050579111
0.00022558867
-0.050611381
0.00022620283
-0.050643603
0.00022565601
-0.050675521
0.00022383496
-0.050706861
0.00022063566
-0.050737327
0.00021596596
-0.050766609
0.00020974678
-0.050794383
0.00020191505
-0.050820316
0.00019242509
-0.050844069
0.00018125035
-0.050865302
0.00016838486
-0.050883676
0.00015384434
-0.050898859
0.00013766739
-0.050910534
0.00011991542
-0.050918396
0.00010067353
-0.050922163
8.0049874e-05
-0.050921581
5.8175873e-05
-0.050916422
3.5204789e-05
-0.050906496
1.1309963e-05
-0.050891649
-1.3316691e-05
-0.050871771
-3.8467666e-05
-0.050846793
-6.3921266e-05
-0.050816698
-8.944502e-05
-0.050781513
-0.00011479895
-0.050741317
-0.00013973997
-0.050696239
-0.00016402554
-0.050646456
-0.00018741844
-0.050592194
-0.00020969056
-0.05053372
-0.00023062679
-0.050471343
-0.00025002952
-0.050405408
-0.00026772364
-0.050336293
-0.00028355959
-0.050264399
-0.000297415
-0.050190148
-0.00030919654
-0.050113973
-0.00031884153
-0.050036316
-0.00032631825
-0.049957616
-0.00033162608
-0.049878306
-0.00033479278
-0.049798809
-0.00033587381
-0.04971953
-0.00033494892
-0.049640852
-0.00033211922
-0.049563136
-0.00032750364
-0.049486713
-0.00032123526
-0.049411884
-0.00031345825
-0.04933892
-0.000304323
-0.049268061
-0.00029398408
-0.049199513
-0.00028259651
-0.049133453
-0.00027031312
-0.049070028
-0.00025728218
-0.049009355
-0.00024364591
-0.048951525
-0.00022953766
-0.048896605
-0.00021508206
-0.048844636
-0.00020039429
-0.048795642
-0.00018557975
-0.048749627
-0.00017073359
-0.04870658
-0.00015594158
-0.048666473
-0.00014128013
-0.048629267
-0.0001268183
-0.048594914
-0.0001126191
-0.048563353
-9.8741859e-05
-0.048534518
-8.5244508e-05
-0.048508335
-7.2186052e-05
-0.048484725
-5.963293e-05
-0.048463599
-4.767864e-05
-0.048444883
-3.6460416e-05
-0.048428548
-2.6114091e-05
-0.048414545
-1.6711123e-05
-0.0484026
-8.7209762e-06
-0.048392841
-2.9205177e-06
-4.91959e-07
-0.049749443
9.8867479e-05
-0.049755916
0.00010095041
-0.049762505
0.00010334408
-0.049769309
0.00010589205
-0.049776407
0.00010850654
-0.049783848
0.00011115265
-0.04979166
0.00011380869
-0.049799855
0.00011645947
-0.049808433
0.00011908423
-0.049817387
0.00012166349
-0.049826705
0.00012417219
-0.04983637
0.00012658876
-0.04984636
0.00012888837
-0.04985665
0.00013105217
-0.049867214
0.00013305998
-0.049878022
0.00013489959
-0.049889047
0.00013655886
-0.049900257
0.00013803507
-0.049911624
0.0001393265
-0.049923122
0.00014044177
-0.049934726
0.00014139096
-0.049946416
0.00014219481
-0.049958177
0.00014287542
-0.049969998
0.00014346532
-0.049981877
0.00014399768
-0.049993816
0.00014451518
-0.050005827
0.00014505987
-0.050017929
0.00014568182
-0.05003015
0.00014642856
-0.050042526
0.00014735359
-0.050055103
0.00014850553
-0.050067933
0.00014993589
-0.050081078
0.00015169168
-0.050094605
0.00015381391
-0.050108588
0.00015634249
-0.050123107
0.00015930538
-0.050138243
0.00016272745
-0.05015408
0.00016661888
-0.050170703
0.00017098458
-0.050188194
0.00017581238
-0.050206632
0.00018108324
-0.050226088
0.00018675951
-0.050246627
0.00019279457
-0.050268302
0.00019912533
-0.050291152
0.00020567596
-0.050315204
0.00021235703
-0.050340464
0.0002190662
-0.05036692
0.00022568943
-0.05039454
0.00023210123
-0.050423268
0.00023816687
-0.050453023
0.00024374358
-0.0504837
0.00024868246
-0.050515166
0.00025283041
-0.050547265
0.00025603293
-0.050579812
0.00025813551
-0.050612597
0.00025898713
-0.050645383
0.00025844245
-0.050677913
0.00025636454
-0.050709904
0.00025262749
-0.050741058
0.00024711957
-0.050771056
0.00023974473
-0.050799567
0.0002304261
-0.05082625
0.00021910767
-0.050850756
0.00020575646
-0.050872735
0.0001903642
-0.05089184
0.00017294877
-0.050907728
0.0001535556
-0.05092007
0.00013225765
-0.050928553
0.0001091565
-0.050932885
8.4381603e-05
-0.0509328
5.809082e-05
-0.050928063
3.0468109e-05
-0.050918475
1.7216625e-06
-0.050903874
-2.7917421e-05
-0.050884143
-5.8198375e-05
-0.050859211
-8.8853684e-05
-0.050829054
-0.00011960203
-0.0507937
-0.00015015312
-0.050753227
-0.00018021246
-0.050707767
-0.00020948583
-0.0506575
-0.00023768512
-0.050602657
-0.00026453313
-0.050543515
-0.00028976874
-0.050480393
-0.0003131524
-0.050413645
-0.00033447124
-0.050343662
-0.00035354305
-0.050270857
-0.00037021913
-0.050195667
-0.00038438657
-0.050118539
-0.00039596989
-0.050039926
-0.0004049314
-0.049960281
-0.00041127126
-0.049880049
-0.00041502423
-0.049799664
-0.00041625873
-0.04971954
-0.00041507271
-0.04964007
-0.00041158996
-0.049561618
-0.00040595584
-0.04948452
-0.00039833266
-0.049409082
-0.00038889599
-0.049335577
-0.00037782868
-0.049264242
-0.00036531838
-0.049195286
-0.00035155297
-0.049128882
-0.00033671739
-0.049065173
-0.00032099072
-0.049004275
-0.00030454447
-0.048946273
-0.00028753931
-0.04889123
-0.00027012528
-0.048839183
-0.00025244049
-0.048790152
-0.00023461081
-0.048744136
-0.0002167497
-0.048701119
-0.00019895907
-0.04866107
-0.00018132926
-0.048623947
-0.0001639413
-0.048589698
-0.00014686821
-0.048558262
-0.00013017737
-0.048529574
-0.0001139327
-0.048503562
-9.81977e-05
-0.048480153
-8.3042475e-05
-0.048459273
-6.8558423e-05
-0.048440873
-5.4860226e-05
-0.048424937
-4.2050006e-05
-0.048411425
-3.0223514e-05
-0.048400233
-1.9912322e-05
-0.048391737
-1.1416652e-05
-5.1391992e-06
-0.04975149
0.00010498193
-0.049757795
0.00010725609
-0.049764304
0.00010985239
-0.04977107
0.00011265838
-0.04977815
0.00011558659
-0.049785585
0.00011858738
-0.049793399
0.00012162312
-0.049801605
0.00012466572
-0.049810205
0.00012768415
-0.049819193
0.00013065116
-0.049828556
0.00013353513
-0.049838277
0.00013630936
-0.049848333
0.00013894444
-0.049858699
0.00014141805
-0.049869346
0.000143707
-0.049880243
0.00014579721
-0.049891359
0.00014767522
-0.049902663
0.00014933824
-0.049914121
0.00015078511
-0.049925706
0.00015202636
-0.04993739
0.00015307464
-0.049949149
0.00015395468
-0.049960967
0.00015469316
-0.04997283
0.00015532854
-0.049984733
0.00015590041
-0.049996677
0.00015645909
-0.050008672
0.00015705448
-0.050020735
0.00015774547
-0.050032895
0.00015858833
-0.050045187
0.0001596459
-0.050057657
0.00016097569
-0.05007036
0.0001626382
-0.050083357
0.00016468879
-0.050096719
0.00016717594
-0.050110523
0.00017014643
-0.050124851
0.00017363346
-0.05013979
0.00017766618
-0.050155428
0.00018225691
-0.050171854
0.00018741135
-0.050189158
0.00019311559
-0.050207422
0.00019934723
-0.050226725
0.00020606242
-0.050247136
0.00021320646
-0.050268717
0.00022070546
-0.050291511
0.00022847051
-0.050315551
0.00023639671
-0.050340849
0.00024436397
-0.050367398
0.00025223839
-0.050395169
0.0002598726
-0.05042411
0.0002671083
-0.050454144
0.00027377764
-0.050485167
0.0002797055
-0.050517049
0.00028471171
-0.05054963
0.00028861436
-0.050582726
0.00029123136
-0.050616123
0.00029238465
-0.050649584
0.00029190265
-0.050682843
0.00028962359
-0.050715614
0.00028539847
-0.050747589
0.00027909486
-0.050778443
0.00027059867
-0.050807835
0.0002598182
-0.050835414
0.00024668626
-0.05086082
0.00023116262
-0.050883692
0.00021323611
-0.050903669
0.00019292626
-0.050920399
0.00017028501
-0.050933538
0.00014539677
-0.050942761
0.00011837961
-0.050947764
8.9384661e-05
-0.050948269
5.8596541e-05
-0.050944032
2.6230611e-05
-0.050934841
-7.4689326e-06
-0.050920528
-4.2230879e-05
-0.050900967
-7.7759704e-05
-0.05087608
-0.00011374039
-0.050845841
-0.00014984116
-0.050810275
-0.00018571926
-0.05076946
-0.00022102666
-0.050723531
-0.00025541514
-0.050672673
-0.00028854349
-0.050617123
-0.00032008315
-0.050557167
-0.00034972472
-0.050493135
-0.00037718442
-0.050425396
-0.00040220977
-0.050354354
-0.00042458465
-0.050280441
-0.00044413296
-0.050204106
-0.00046072152
-0.050125814
-0.00047426185
-0.050046035
-0.0004847105
-0.049965237
-0.00049206916
-0.04988388
-0.00049638064
-0.049802411
-0.00049772778
-0.049721256
-0.00049622839
-0.049640815
-0.00049203079
-0.049561462
-0.0004853087
-0.049483539
-0.00047625562
-0.049407354
-0.00046508044
-0.049333183
-0.00045200027
-0.049261264
-0.00043723747
-0.049191802
-0.00042101424
-0.049124971
-0.0004035489
-0.049060909
-0.00038505238
-0.048999727
-0.00036572628
-0.048941508
-0.00034575914
-0.048886306
-0.00032532664
-0.048834157
-0.00030458996
-0.048785072
-0.00028369547
-0.048739047
-0.00026277466
-0.048696061
-0.00024194515
-0.04865608
-0.00022131056
-0.048619058
-0.00020096305
-0.048584942
-0.0001809846
-0.04855367
-0.00016144931
-0.048525177
-0.00014242554
-0.048499395
-0.00012397955
-0.048476256
-0.00010618178
-0.048455698
-8.9116099e-05
-0.048437683
-7.2875006e-05
-0.048422194
-5.7539476e-05
-0.048409206
-4.3211665e-05
-0.048398719
-3.0399224e-05
-0.048391119
-1.9016246e-05
-9.1382158e-06
-0.049755217
0.00011087421
-0.049761364
0.00011340332
-0.049767773
0.00011626178
-0.049774481
0.00011936601
-0.049781527
0.00012263305
-0.049788946
0.00012600578
-0.049796758
0.00012943542
-0.049804976
0.0001328833
-0.0498136
0.00013630894
-0.049822627
0.00013967731
-0.049832041
0.00014294996
-0.049841827
0.0001460946
-0.049851959
0.00014907676
-0.049862411
0.00015187024
-0.049873153
0.00015444842
-0.04988415
0.00015679504
-0.04989537
0.00015889498
-0.049906777
0.00016074516
-0.049918337
0.00016234478
-0.049930017
0.0001637062
-0.049941786
0.00016484458
-0.04995362
0.00016578867
-0.049965497
0.00016656985
-0.049977401
0.00016723272
-0.049989325
0.00016782357
-0.050001266
0.00016840067
-0.050013234
0.00016902224
-0.050025245
0.00016975647
-0.050037325
0.00017066895
-0.050049512
0.00017183248
-0.05006185
0.00017331413
-0.050074396
0.00017518408
-0.050087214
0.00017750677
-0.050100377
0.00018033888
-0.050113966
0.00018373478
-0.050128066
0.00018773363
-0.050142769
0.00019236948
-0.05015817
0.00019765742
-0.050174363
0.00020360447
-0.050191443
0.00021019545
-0.0502095
0.00021740492
-0.050228621
0.00022518311
-0.050248882
0.00023346733
-0.050270349
0.00024217292
-0.050293077
0.00025119774
-0.050317101
0.00026042117
-0.050342442
0.00026970493
-0.050369098
0.00027889474
-0.050397046
0.00028782064
-0.050426238
0.00029629994
-0.050456599
0.0003041388
-0.050488028
0.00031113478
-0.050520396
0.00031707953
-0.050553544
0.00032176244
-0.050587285
0.00032497256
-0.050621404
0.00032650339
-0.050655657
0.00032615577
-0.050689775
0.00032374162
-0.050723464
0.00031908753
-0.050756409
0.00031203899
-0.050788272
0.00030246259
-0.050818705
0.00029025067
-0.050847342
0.00027532373
-0.050873813
0.00025763341
-0.050897742
0.00023716485
-0.050918754
0.00021393864
-0.050936482
0.00018801285
-0.050950569
0.00015948314
-0.050960673
0.0001284841
-0.050966477
9.518887e-05
-0.05096769
5.9809267e-05
-0.050964052
2.2592768e-05
-0.050955342
-1.6178895e-05
-0.05094138
-5.619338e-05
-0.05092203
-9.7109533e-05
-0.050897208
-0.00013856172
-0.050866884
-0.00018016594
-0.050831078
-0.00022152462
-0.050789871
-0.00026223359
-0.050743399
-0.00030188793
-0.050691852
-0.00034009051
-0.050635476
-0.00037645865
-0.050574569
-0.00041063198
-0.050509473
-0.00044227987
-0.050440575
-0.00047110812
-0.050368295
-0.00049686498
-0.050293082
-0.00051934572
-0.050215407
-0.00053839611
-0.050135755
-0.00055391441
-0.050054613
-0.00056585178
-0.04997247
-0.0005742123
-0.049889803
-0.00057904819
-0.049807072
-0.00058045841
-0.049724718
-0.0005785827
-0.049643152
-0.00057359616
-0.049562758
-0.0005657032
-0.049483883
-0.00055513088
-0.049406839
-0.00054212373
-0.049331904
-0.00052693524
-0.049259317
-0.00050982448
-0.049189282
-0.00049104972
-0.049121967
-0.0004708641
-0.049057507
-0.00044951164
-0.048996009
-0.00042722501
-0.048937546
-0.00040422127
-0.048882171
-0.00038070214
-0.048829909
-0.00035685206
-0.048780766
-0.00033283791
-0.048734732
-0.00030880896
-0.048691779
-0.00028489811
-0.048651868
-0.0002612216
-0.048614949
-0.00023788181
-0.048580965
-0.00021496854
-0.048549854
-0.00019256118
-0.048521548
-0.00017073095
-0.048495983
-0.00014954469
-0.048473095
-0.00012906975
-0.048452832
-0.00010937909
-0.048435162
-9.0545268e-05
-0.048420068
-7.2632867e-05
-0.048407548
-5.5731698e-05
-0.048397646
-4.030188e-05
-0.048390679
-2.5982774e-05
-1.2727407e-05
-0.049760633
0.00011655706
-0.049766618
0.00011938839
-0.049772912
0.00012255527
-0.049779541
0.00012599474
-0.049786536
0.00012962859
-0.049793926
0.00013339547
-0.049801729
0.00013723832
-0.049809955
0.00014110955
-0.049818606
0.00014495995
-0.049827676
0.00014874682
-0.04983715
0.0001524246
-0.049847011
0.00015595504
-0.049857232
0.00015929818
-0.049867785
0.00016242349
-0.049878637
0.0001653005
-0.049889753
0.00016791036
-0.049901094
0.00017023599
-0.049912622
0.00017227375
-0.0499243
0.000174023
-0.049936092
0.00017549778
-0.049947963
0.00017671575
-0.049959884
0.0001777097
-0.04997183
0.00017851587
-0.049983783
0.00017918519
-0.04999573
0.00017977097
-0.050007669
0.00018033987
-0.050019606
0.00018095892
-0.050031556
0.00018170616
-0.050043544
0.00018265721
-0.050055607
0.00018389551
-0.050067791
0.00018549846
-0.050080154
0.00018754676
-0.050092762
0.00019011476
-0.050105691
0.00019326819
-0.050119026
0.00019706986
-0.050132858
0.00020156568
-0.050147284
0.00020679538
-0.050162404
0.00021277752
-0.050178321
0.00021952107
-0.050195136
0.0002270101
-0.050212947
0.00023521656
-0.050231849
0.00024408503
-0.050251927
0.00025354499
-0.050273255
0.00026350102
-0.050295895
0.0002738376
-0.050319892
0.00028441806
-0.050345272
0.0002950855
-0.050372042
0.00030566459
-0.050400183
0.00031596202
-0.050429653
0.00032576976
-0.050460381
0.00033486686
-0.050492269
0.00034302242
-0.050525188
0.00034999851
-0.05055898
0.00035555439
-0.050593456
0.00035944877
-0.050628398
0.0003614451
-0.050663557
0.00036131502
-0.050698658
0.00035884256
-0.050733399
0.00035382825
-0.050767454
0.00034609399
-0.050800477
0.00033548556
-0.050832104
0.00032187794
-0.050861958
0.00030517813
-0.050889653
0.00028532853
-0.050914798
0.0002623097
-0.050937002
0.00023614262
-0.05095588
0.000206891
-0.050971059
0.00017466153
-0.05098218
0.00013960537
-0.050988909
0.00010191801
-0.050990939
6.1838992e-05
-0.050987995
1.9648661e-05
-0.050979841
-2.4333045e-05
-0.050966284
-6.9749961e-05
-0.05094718
-0.00011621323
-0.050922436
-0.00016330578
-0.050892014
-0.0002105884
-0.050855933
-0.00025760587
-0.050814271
-0.00030389481
-0.050767169
-0.00034899042
-0.050714823
-0.00039243633
-0.050657489
-0.00043379249
-0.050595477
-0.00047264427
-0.050529145
-0.00050861121
-0.050458899
-0.00054135478
-0.050385178
-0.00057058556
-0.050308455