/*--------------------------------*- C++ -*----------------------------------*\
| =========                 |                                                 |
| \\      /  F ield         | foam-extend: Open Source CFD                    |
|  \\    /   O peration     | Version:     4.1                                |
|   \\  /    A nd           | Web:         http://www.foam-extend.org         |
|    \\/     M anipulation  |                                                 |
\*---------------------------------------------------------------------------*/
FoamFile
{
    version     2.0;
    format      ascii;
    class       volScalarField;
    location    "1";
    object      rAU;
}
// * * * * * * * * * * * * * * * * * * * * * * * * * * * * * * * * * * * * * //

dimensions      [0 0 1 0 0 0 0];

internalField   nonuniform List<scalar> 
16126
(
0.00013373436
0.00013357346
0.000133438
0.00013330111
0.00013316193
0.00013302231
0.0001328807
0.00013273872
0.00013259474
0.00013245036
0.00013230397
0.00013215716
0.00013200835
0.00013185918
0.0001317081
0.00013155675
0.00013140362
0.00013125039
0.00013109556
0.00013094082
0.00013078467
0.00013062883
0.00013047179
0.00013031525
0.00013015771
0.00013000084
0.00012984312
0.0001296862
0.00012952852
0.00012937169
0.00012921412
0.00012905699
0.00012890024
0.00012874263
0.00012858566
0.00012842765
0.00012827006
0.0001281112
0.00012795249
0.00012779223
0.00012763184
0.00012746973
0.00012730678
0.00012714245
0.0001269767
0.00012680946
0.00012664065
0.00012647036
0.00012629849
0.00012612516
0.00012595046
0.00012577456
0.00012559763
0.00012542003
0.00012524197
0.00012506386
0.00012488609
0.00012470914
0.00012453347
0.00012435974
0.00012418842
0.00012402014
0.00012385554
0.00012369526
0.00012353994
0.00012339018
0.00012324674
0.00012311009
0.00012298085
0.00012285955
0.00012274669
0.00012264264
0.00012254788
0.00012246258
0.00012238699
0.00012232122
0.00012226533
0.00012221921
0.00012218283
0.00012215581
0.0001221379
0.00012212867
0.00012212762
0.00012212762
0.00012213426
0.00012214809
0.00012216849
0.0001221947
0.00012222587
0.00012226111
0.00012229966
0.00012234053
0.00012238286
0.00012242582
0.00012246857
0.00012251032
0.0001225503
0.00012258793
0.00012262247
0.00012265339
0.00012268018
0.00012270239
0.00012271961
0.00012273165
0.00012273811
0.00012273378
0.00012272283
0.00012270597
0.00012268315
0.00012265451
0.00012261997
0.00012257967
0.00012253371
0.00012248223
0.00012242537
0.00012236344
0.00012229659
0.00012222514
0.00012214952
0.00012207048
0.00012198924
0.00012190671
0.00012181996
0.000121704
0.0001205155
0.0001204498
0.00012041803
0.00012038767
0.00012035625
0.00012032492
0.00012029205
0.00012025908
0.00012022446
0.00012018966
0.00012015316
0.00012011646
0.00012007806
0.00012003948
0.00011999924
0.00011995889
0.00011991698
0.00011987506
0.0001198317
0.00011978846
0.00011974393
0.00011969966
0.00011965424
0.00011960922
0.00011956318
0.00011951766
0.00011947121
0.00011942536
0.00011937862
0.0001193325
0.00011928549
0.00011923868
0.00011919203
0.00011914434
0.00011909704
0.00011904856
0.00011900026
0.00011895057
0.00011890084
0.00011884947
0.00011879783
0.00011874443
0.00011869013
0.00011863443
0.00011857732
0.00011851877
0.00011845871
0.00011839726
0.00011833435
0.00011827011
0.00011820466
0.00011813817
0.00011807082
0.000118003
0.00011793491
0.00011786694
0.0001177995
0.00011773305
0.00011766803
0.00011760508
0.00011754466
0.00011748737
0.00011743382
0.00011738462
0.00011734037
0.00011730164
0.00011726915
0.00011724333
0.00011722477
0.00011721396
0.00011721133
0.00011721725
0.00011723214
0.00011725615
0.00011728947
0.0001173322
0.00011738435
0.00011743583
0.0001174884
0.00011755017
0.00011762106
0.00011770079
0.00011778901
0.00011787912
0.00011797618
0.00011808058
0.00011819176
0.00011830909
0.00011843194
0.00011855956
0.00011869135
0.00011882645
0.00011896413
0.00011910364
0.00011924423
0.00011938516
0.0001195257
0.00011966529
0.00011980318
0.00011993884
0.00012007172
0.00012020134
0.00012032724
0.00012044914
0.00012056662
0.00012067448
0.00012077657
0.00012087344
0.00012096492
0.00012105108
0.0001211318
0.00012120713
0.00012127711
0.00012134184
0.00012140004
0.00012144459
0.00012148466
0.00012152055
0.00012155274
0.00012158202
0.00012160925
0.00012163425
0.00012165654
0.0001216704
0.00011924954
0.00011920384
0.00011918675
0.00011917161
0.00011915574
0.00011914011
0.00011912301
0.00011910583
0.00011908704
0.00011906815
0.00011904766
0.00011902711
0.00011900503
0.00011898297
0.00011895949
0.00011893615
0.00011891152
0.00011888716
0.00011886165
0.00011883654
0.00011881041
0.00011878481
0.00011875828
0.00011873237
0.00011870561
0.00011867951
0.00011865257
0.00011862627
0.00011859909
0.00011857247
0.00011854486
0.0001185173
0.00011848969
0.00011846082
0.00011843204
0.00011840174
0.00011837128
0.00011833903
0.00011830634
0.00011827159
0.00011823614
0.00011819849
0.00011815953
0.00011811876
0.0001180762
0.00011803185
0.00011798566
0.00011793781
0.00011788827
0.00011783722
0.00011778482
0.00011773131
0.00011767692
0.00011762208
0.00011756704
0.00011751225
0.00011745817
0.00011740529
0.00011735409
0.00011730523
0.00011725918
0.00011721658
0.00011717802
0.00011714411
0.00011711545
0.00011709259
0.00011707619
0.00011706667
0.00011706457
0.00011707032
0.00011708431
0.00011710682
0.00011713822
0.00011717856
0.00011722799
0.00011727282
0.00011731318
0.00011735242
0.00011739246
0.00011744158
0.00011749988
0.00011756726
0.00011764355
0.0001177285
0.00011782177
0.00011792295
0.00011803153
0.00011814694
0.00011826854
0.00011839562
0.00011852757
0.00011866352
0.00011880273
0.00011894442
0.00011908779
0.0001192321
0.00011937654
0.00011952052
0.00011966324
0.0001198041
0.00011994252
0.00012007797
0.00012020991
0.00012033804
0.00012046187
0.00012058113
0.00012069554
0.00012080489
0.00012090897
0.00012100777
0.00012110109
0.00012118891
0.00012127123
0.00012134804
0.000121418
0.00012147393
0.00012152487
0.00012157105
0.00012161153
0.00012163766
0.00012166134
0.00012168257
0.00012170369
0.00012171358
0.00011914031
0.00011910031
0.00011908526
0.00011907142
0.00011905666
0.00011904212
0.0001190261
0.00011900999
0.00011899228
0.00011897447
0.00011895507
0.00011893562
0.00011891468
0.00011889381
0.00011887157
0.00011884953
0.00011882627
0.00011880336
0.00011877938
0.00011875587
0.00011873142
0.00011870757
0.00011868286
0.00011865882
0.00011863398
0.00011860983
0.00011858485
0.00011856052
0.00011853529
0.00011851059
0.00011848484
0.00011845907
0.00011843315
0.00011840585
0.00011837852
0.00011834953
0.00011832021
0.00011828893
0.00011825703
0.00011822288
0.00011818785
0.00011815043
0.00011811151
0.00011807062
0.00011802778
0.000117983
0.00011793627
0.00011788778
0.00011783754
0.00011778576
0.00011773264
0.00011767846
0.00011762348
0.00011756819
0.00011751288
0.00011745804
0.00011740417
0.00011735181
0.00011730149
0.00011725391
0.00011720957
0.00011716913
0.00011713324
0.00011710252
0.00011707758
0.00011705898
0.0001170474
0.00011704326
0.00011704707
0.00011705926
0.00011708019
0.0001171101
0.00011714933
0.00011719787
0.00011723757
0.00011725537
0.00011726857
0.0001172907
0.00011732217
0.000117363
0.00011741336
0.00011747325
0.00011754256
0.00011762112
0.00011770863
0.00011780472
0.00011790892
0.00011802069
0.00011813941
0.00011826437
0.00011839495
0.00011853026
0.00011866955
0.00011881199
0.00011895678
0.00011910309
0.0001192501
0.00011939716
0.0001195434
0.00011968819
0.00011983089
0.00011997091
0.00012010767
0.00012024082
0.00012036982
0.00012049436
0.00012061413
0.00012072888
0.00012083836
0.00012094254
0.00012104118
0.00012113424
0.00012122169
0.00012130351
0.00012137965
0.00012145027
0.00012151526
0.00012157469
0.00012162734
0.00012166403
0.00012169637
0.00012171917
0.00012173665
0.00012173622
0.00011912575
0.00011908778
0.00011907319
0.00011905916
0.00011904398
0.0001190289
0.0001190123
0.00011899559
0.00011897726
0.0001189588
0.00011893876
0.00011891866
0.00011889708
0.00011887558
0.00011885274
0.00011883013
0.00011880633
0.00011878292
0.00011875847
0.00011873456
0.00011870975
0.00011868559
0.00011866063
0.00011863638
0.00011861137
0.00011858709
0.00011856201
0.0001185376
0.00011851229
0.00011848751
0.00011846166
0.00011843576
0.00011840967
0.00011838214
0.00011835451
0.00011832512
0.00011829531
0.00011826343
0.0001182308
0.0001181958
0.00011815977
0.00011812124
0.00011808107
0.00011803879
0.00011799445
0.00011794806
0.00011789964
0.0001178494
0.00011779736
0.00011774376
0.00011768885
0.00011763294
0.00011757633
0.00011751954
0.00011746293
0.00011740701
0.00011735235
0.00011729952
0.00011724909
0.00011720182
0.00011715825
0.00011711908
0.00011708498
0.00011705661
0.0001170346
0.00011701954
0.0001170121
0.00011701272
0.00011702189
0.00011704004
0.0001170675
0.00011710448
0.00011715128
0.00011720233
0.00011720649
0.00011720197
0.00011720615
0.00011721941
0.00011724224
0.00011727475
0.00011731721
0.00011736968
0.00011743212
0.00011750441
0.00011758633
0.00011767754
0.00011777761
0.00011788601
0.00011800215
0.0001181253
0.00011825483
0.00011838986
0.00011852958
0.00011867314
0.00011881968
0.00011896835
0.00011911826
0.0001192687
0.00011941877
0.00011956777
0.00011971501
0.00011985983
0.00012000163
0.00012014
0.00012027435
0.00012040434
0.00012052961
0.00012064988
0.00012076488
0.00012087454
0.00012097861
0.00012107702
0.00012116971
0.00012125663
0.00012133773
0.00012141312
0.00012148266
0.00012154636
0.00012160408
0.00012165557
0.00012170073
0.00012173378
0.00012175666
0.00012174999
0.00011911468
0.00011907751
0.00011906308
0.0001190488
0.00011903312
0.00011901742
0.00011900011
0.00011898266
0.00011896355
0.00011894429
0.00011892343
0.00011890252
0.00011888012
0.00011885781
0.00011883418
0.0001188108
0.00011878627
0.00011876217
0.00011873709
0.00011871259
0.00011868724
0.0001186626
0.00011863721
0.00011861259
0.00011858727
0.00011856271
0.0001185374
0.00011851278
0.00011848729
0.00011846233
0.00011843631
0.00011841021
0.00011838388
0.00011835607
0.00011832808
0.00011829827
0.00011826793
0.00011823542
0.00011820204
0.00011816616
0.00011812911
0.00011808942
0.00011804795
0.00011800424
0.00011795833
0.00011791026
0.00011786005
0.00011780793
0.00011775396
0.0001176984
0.00011764153
0.00011758369
0.00011752524
0.00011746673
0.00011740856
0.00011735131
0.00011729556
0.00011724196
0.00011719113
0.00011714386
0.00011710074
0.00011706251
0.00011702989
0.00011700356
0.00011698419
0.00011697238
0.00011696883
0.00011697396
0.0001169883
0.00011701223
0.00011704608
0.00011709004
0.00011714435
0.00011717604
0.00011715399
0.00011714015
0.0001171351
0.00011713933
0.00011715341
0.00011717753
0.00011721205
0.00011725711
0.00011731274
0.00011737888
0.00011745536
0.00011754188
0.00011763804
0.00011774334
0.00011785717
0.00011797882
0.00011810764
0.00011824271
0.00011838319
0.0001185282
0.00011867683
0.00011882816
0.00011898127
0.00011913537
0.00011928952
0.00011944295
0.00011959492
0.00011974473
0.00011989171
0.00012003541
0.00012017521
0.0001203107
0.00012044151
0.00012056733
0.00012068785
0.00012080297
0.00012091243
0.00012101615
0.00012111403
0.00012120602
0.00012129205
0.00012137221
0.00012144635
0.00012151445
0.00012157634
0.00012163183
0.00012168076
0.00012172219
0.00012175503
0.00012175089
0.00011910072
0.00011906387
0.00011904948
0.00011903495
0.00011901882
0.00011900254
0.00011898456
0.00011896637
0.00011894648
0.00011892641
0.00011890471
0.00011888294
0.00011885968
0.00011883652
0.00011881205
0.00011878786
0.00011876255
0.00011873771
0.00011871193
0.00011868679
0.00011866086
0.0001186357
0.00011860986
0.00011858484
0.00011855918
0.00011853434
0.00011850879
0.00011848398
0.00011845833
0.00011843322
0.00011840705
0.0001183808
0.00011835429
0.00011832626
0.00011829799
0.00011826781
0.00011823702
0.00011820394
0.00011816988
0.00011813318
0.00011809517
0.00011805437
0.00011801163
0.0001179665
0.00011791904
0.00011786926
0.00011781723
0.00011776317
0.00011770719
0.00011764955
0.00011759059
0.00011753067
0.0001174702
0.00011740976
0.00011734981
0.00011729097
0.00011723388
0.00011717924
0.00011712771
0.00011708014
0.00011703717
0.00011699959
0.00011696815
0.00011694357
0.00011692657
0.00011691776
0.00011691786
0.00011692732
0.00011694665
0.00011697624
0.0001170164
0.00011706729
0.00011712912
0.00011712582
0.0001170942
0.00011707082
0.00011705636
0.0001170514
0.0001170566
0.00011707227
0.00011709882
0.00011713649
0.00011718538
0.0001172455
0.0001173167
0.00011739875
0.00011749127
0.00011759376
0.00011770562
0.00011782613
0.00011795462
0.00011809013
0.00011823178
0.00011837865
0.00011852977
0.00011868418
0.00011884086
0.000118999
0.00011915758
0.00011931578
0.00011947278
0.00011962785
0.00011978026
0.00011992951
0.00012007493
0.0001202161
0.00012035259
0.00012048405
0.00012061017
0.00012073083
0.00012084572
0.00012095475
0.00012105783
0.00012115487
0.00012124579
0.00012133067
0.00012140935
0.00012148179
0.00012154784
0.00012160736
0.00012166013
0.00012170502
0.00012174171
0.00012174324
0.00011908419
0.00011904742
0.00011903296
0.00011901816
0.00011900159
0.00011898474
0.0001189661
0.00011894717
0.00011892648
0.00011890556
0.00011888299
0.00011886034
0.00011883619
0.00011881213
0.00011878679
0.00011876174
0.00011873561
0.00011871
0.0001186835
0.00011865769
0.00011863116
0.00011860547
0.00011857916
0.00011855376
0.00011852777
0.00011850266
0.00011847692
0.00011845195
0.00011842618
0.00011840099
0.00011837475
0.00011834841
0.00011832181
0.00011829363
0.00011826517
0.00011823472
0.00011820356
0.00011817001
0.00011813534
0.00011809788
0.00011805898
0.0001180171
0.00011797313
0.0001179266
0.00011787755
0.00011782605
0.00011777213
0.00011771606
0.00011765795
0.00011759811
0.0001175369
0.00011747471
0.000117412
0.0001173494
0.0001172874
0.00011722669
0.00011716796
0.00011711195
0.0001170594
0.0001170112
0.00011696804
0.00011693077
0.00011690017
0.00011687704
0.00011686209
0.000116856
0.0001168595
0.00011687305
0.00011689718
0.00011693228
0.00011697864
0.0001170364
0.00011710575
0.00011706895
0.00011702744
0.00011699423
0.00011697009
0.00011695572
0.00011695187
0.00011695894
0.00011697745
0.00011700771
0.00011704988
0.00011710404
0.0001171701
0.00011724786
0.00011733695
0.0001174369
0.0001175471
0.0001176668
0.00011779531
0.00011793163
0.00011807485
0.00011822398
0.00011837798
0.00011853583
0.00011869646
0.00011885898
0.00011902232
0.00011918558
0.0001193479
0.00011950847
0.00011966652
0.00011982151
0.00011997273
0.0001201197
0.00012026199
0.0001203992
0.000120531
0.00012065725
0.00012077763
0.00012089203
0.00012100034
0.00012110248
0.00012119835
0.00012128803
0.00012137134
0.00012144825
0.00012151863
0.00012158237
0.00012163921
0.00012168801
0.00012172915
0.00012173638
0.00011906507
0.0001190283
0.0001190137
0.00011899862
0.00011898161
0.0001189642
0.00011894489
0.00011892522
0.00011890372
0.00011888194
0.00011885848
0.0001188349
0.00011880981
0.00011878482
0.00011875855
0.00011873261
0.00011870561
0.00011867918
0.00011865191
0.0001186254
0.00011859824
0.00011857199
0.0001185452
0.0001185194
0.00011849308
0.00011846773
0.00011844181
0.00011841672
0.00011839089
0.00011836566
0.00011833941
0.00011831307
0.00011828645
0.00011825822
0.00011822965
0.00011819903
0.0001181676
0.00011813365
0.00011809846
0.00011806034
0.00011802059
0.0001179777
0.00011793253
0.00011788461
0.00011783399
0.00011778072
0.00011772487
0.00011766671
0.00011760637
0.0001175442
0.00011748056
0.00011741592
0.00011735075
0.00011728574
0.00011722143
0.00011715856
0.00011709788
0.00011704019
0.00011698627
0.0001169371
0.0001168934
0.0001168561
0.00011682602
0.000116804
0.00011679081
0.00011678716
0.00011679381
0.00011681125
0.00011684001
0.00011688049
0.00011693297
0.00011699758
0.00011706475
0.000117006
0.00011695425
0.00011691088
0.00011687679
0.00011685276
0.00011683966
0.00011683799
0.00011684835
0.00011687114
0.00011690661
0.0001169549
0.00011701595
0.0001170896
0.00011717552
0.00011727322
0.00011738209
0.00011750136
0.0001176303
0.00011776786
0.00011791308
0.00011806491
0.00011822224
0.00011838397
0.00011854898
0.0001187163
0.00011888477
0.00011905345
0.0001192214
0.00011938777
0.00011955173
0.00011971268
0.00011986989
0.00012002282
0.00012017102
0.00012031408
0.00012045162
0.0001205835
0.00012070939
0.00012082915
0.00012094269
0.0001210499
0.0001211507
0.00012124514
0.00012133307
0.00012141447
0.00012148923
0.00012155727
0.00012161835
0.00012167135
0.00012171721
0.00012173004
0.00011904382
0.00011900697
0.00011899219
0.0001189768
0.00011895935
0.00011894137
0.00011892139
0.00011890095
0.00011887861
0.00011885595
0.00011883154
0.000118807
0.00011878093
0.00011875496
0.00011872771
0.00011870082
0.00011867291
0.00011864561
0.00011861754
0.00011859029
0.00011856247
0.00011853564
0.00011850836
0.00011848215
0.00011845553
0.00011842995
0.00011840388
0.00011837871
0.00011835287
0.00011832768
0.00011830149
0.00011827523
0.00011824868
0.0001182205
0.00011819193
0.00011816123
0.00011812963
0.00011809539
0.00011805976
0.00011802105
0.00011798053
0.00011793668
0.00011789034
0.00011784104
0.00011778883
0.00011773376
0.0001176759
0.00011761555
0.00011755285
0.00011748818
0.00011742194
0.00011735462
0.00011728673
0.00011721903
0.00011715211
0.00011708675
0.00011702377
0.00011696403
0.00011690838
0.00011685785
0.00011681324
0.00011677552
0.00011674559
0.00011672433
0.00011671257
0.00011671105
0.00011672058
0.00011674167
0.00011677487
0.00011682059
0.00011687911
0.00011695055
0.00011700679
0.00011693697
0.00011687459
0.00011682069
0.00011677629
0.00011674231
0.0001167197
0.00011670908
0.00011671116
0.0001167264
0.00011675515
0.0001167976
0.00011685375
0.00011692346
0.00011700643
0.00011710216
0.00011721003
0.00011732924
0.00011745902
0.00011759825
0.00011774593
0.00011790091
0.00011806202
0.0001182281
0.00011839792
0.00011857045
0.00011874446
0.00011891893
0.00011909286
0.00011926533
0.00011943547
0.00011960263
0.00011976603
0.00011992511
0.00012007938
0.00012022841
0.0001203718
0.00012050939
0.00012064085
0.00012076603
0.00012088483
0.00012099714
0.00012110289
0.00012120213
0.00012129472
0.00012138064
0.00012145985
0.00012153227
0.00012159772
0.0001216551
0.00012170579
0.00012172408
0.00011902042
0.0001189835
0.00011896852
0.0001189528
0.0001189349
0.00011891633
0.00011889566
0.00011887444
0.00011885124
0.00011882764
0.00011880226
0.0001187767
0.0001187496
0.00011872259
0.00011869431
0.00011866641
0.00011863754
0.00011860931
0.00011858039
0.00011855236
0.00011852384
0.00011849641
0.00011846862
0.00011844201
0.00011841508
0.00011838929
0.00011836311
0.00011833792
0.00011831211
0.00011828703
0.00011826099
0.00011823491
0.00011820853
0.00011818051
0.00011815205
0.00011812138
0.00011808972
0.0001180553
0.00011801935
0.00011798013
0.00011793892
0.00011789417
0.00011784671
0.00011779604
0.00011774223
0.00011768533
0.0001176254
0.00011756277
0.00011749758
0.00011743025
0.0001173612
0.00011729097
0.00011722012
0.00011714944
0.00011707958
0.00011701139
0.00011694575
0.00011688358
0.00011682581
0.00011677351
0.00011672759
0.00011668906
0.0001166589
0.00011663803
0.00011662736
0.00011662766
0.0001166398
0.00011666431
0.00011670177
0.00011675261
0.0001168171
0.00011689536
0.00011694318
0.00011686227
0.0001167888
0.00011672396
0.00011666889
0.0001166246
0.0001165922
0.00011657239
0.000116566
0.00011657359
0.00011659557
0.00011663221
0.00011668356
0.00011674951
0.00011682976
0.00011692382
0.00011703105
0.0001171506
0.00011728164
0.00011742303
0.00011757364
0.00011773227
0.00011789768
0.00011806859
0.0001182437
0.0001184219
0.00011860187
0.00011878252
0.00011896279
0.0001191417
0.0001193183
0.00011949192
0.00011966172
0.00011982713
0.00011998761
0.00012014271
0.00012029204
0.0001204354
0.00012057246
0.00012070308
0.00012082713
0.00012094455
0.00012105524
0.00012115927
0.00012125652
0.00012134699
0.00012143067
0.00012150752
0.00012157741
0.00012163926
0.00012169482
0.00012171841
0.00011899521
0.00011895817
0.00011894298
0.00011892691
0.00011890853
0.00011888937
0.00011886798
0.00011884595
0.00011882185
0.00011879728
0.00011877087
0.00011874424
0.00011871605
0.00011868793
0.00011865856
0.00011862959
0.00011859968
0.00011857048
0.00011854065
0.0001185118
0.00011848255
0.00011845448
0.00011842617
0.00011839914
0.00011837192
0.00011834595
0.00011831968
0.00011829452
0.00011826882
0.00011824392
0.00011821812
0.00011819231
0.00011816622
0.00011813847
0.00011811024
0.00011807973
0.00011804813
0.00011801365
0.00011797747
0.00011793785
0.00011789603
0.00011785044
0.00011780188
0.00011774988
0.00011769446
0.00011763567
0.0001175736
0.00011750856
0.00011744074
0.00011737056
0.00011729849
0.00011722509
0.00011715098
0.000117077
0.00011700385
0.00011693246
0.00011686376
0.00011679874
0.00011673841
0.00011668393
0.00011663626
0.00011659649
0.00011656567
0.00011654481
0.00011653485
0.00011653665
0.00011655109
0.00011657878
0.00011662031
0.00011667612
0.00011674651
0.00011683159
0.00011687435
0.00011678184
0.00011669679
0.00011662054
0.00011655435
0.00011649937
0.00011645683
0.00011642755
0.00011641247
0.00011641226
0.00011642741
0.00011645824
0.00011650487
0.00011656722
0.00011664499
0.00011673769
0.00011684463
0.00011696494
0.00011709772
0.00011724174
0.00011739581
0.00011755863
0.00011772885
0.00011790512
0.00011808604
0.0001182704
0.0001184568
0.00011864406
0.00011883107
0.00011901676
0.00011920015
0.0001193805
0.00011955695
0.00011972887
0.00011989573
0.00012005704
0.0001202124
0.00012036161
0.00012050432
0.00012064041
0.00012076975
0.00012089228
0.0001210079
0.00012111672
0.00012121863
0.00012131366
0.00012140182
0.00012148312
0.00012155749
0.00012162384
0.00012168422
0.00012171298
0.00011896818
0.00011893106
0.00011891564
0.00011889922
0.00011888034
0.00011886056
0.00011883844
0.00011881555
0.00011879051
0.00011876492
0.00011873743
0.00011870967
0.00011868032
0.00011865103
0.00011862049
0.00011859038
0.00011855937
0.00011852913
0.00011849833
0.0001184686
0.00011843858
0.00011840985
0.000118381
0.00011835355
0.00011832604
0.00011829991
0.00011827361
0.00011824852
0.00011822301
0.00011819838
0.00011817292
0.00011814749
0.00011812181
0.00011809446
0.0001180666
0.00011803639
0.00011800499
0.00011797057
0.0001179343
0.00011789438
0.00011785204
0.00011780569
0.0001177561
0.00011770277
0.00011764573
0.00011758502
0.00011752073
0.00011745319
0.00011738258
0.00011730936
0.00011723403
0.0001171572
0.00011707952
0.0001170019
0.0001169251
0.00011685009
0.00011677791
0.00011670961
0.00011664627
0.00011658914
0.00011653925
0.00011649779
0.00011646588
0.0001164446
0.00011643497
0.0001164379
0.00011645436
0.00011648496
0.00011653035
0.00011659101
0.00011666724
0.00011675914
0.00011680064
0.00011669595
0.00011659878
0.00011651059
0.00011643279
0.00011636667
0.0001163136
0.00011627452
0.0001162505
0.0001162423
0.00011625051
0.00011627553
0.00011631752
0.00011637642
0.00011645195
0.00011654359
0.00011665064
0.00011677215
0.00011690716
0.00011705434
0.00011721243
0.00011738
0.00011755562
0.00011773782
0.00011792509
0.00011811612
0.00011830944
0.00011850377
0.00011869792
0.00011889077
0.00011908126
0.00011926863
0.00011945196
0.00011963061
0.000119804
0.00011997165
0.00012013313
0.00012028825
0.00012043667
0.00012057824
0.00012071288
0.0001208405
0.00012096105
0.00012107464
0.00012118119
0.00012128076
0.0001213734
0.00012145914
0.00012153799
0.00012160883
0.00012167397
0.00012170775
0.0001189396
0.00011890237
0.00011888672
0.00011886992
0.00011885053
0.0001188301
0.0001188072
0.00011878343
0.0001187574
0.00011873073
0.00011870209
0.00011867313
0.00011864254
0.000118612
0.00011858023
0.00011854889
0.00011851671
0.00011848536
0.00011845353
0.00011842286
0.00011839201
0.00011836258
0.00011833317
0.0001183053
0.00011827751
0.00011825124
0.00011822495
0.0001182
0.00011817474
0.00011815047
0.00011812546
0.00011810054
0.0001180754
0.00011804859
0.00011802124
0.00011799148
0.00011796043
0.00011792622
0.00011788998
0.00011784989
0.00011780714
0.0001177601
0.00011770953
0.00011765491
0.00011759624
0.00011753357
0.00011746697
0.00011739679
0.00011732323
0.00011724677
0.00011716793
0.00011708737
0.0001170058
0.00011692416
0.0001168433
0.00011676425
0.00011668812
0.00011661606
0.00011654922
0.00011648894
0.00011643634
0.0001163927
0.00011635923
0.00011633708
0.00011632736
0.00011633104
0.00011634917
0.00011638241
0.00011643146
0.00011649683
0.00011657882
0.00011667757
0.00011672205
0.00011660457
0.00011649467
0.00011639396
0.000116304
0.00011622625
0.0001161622
0.00011611295
0.00011607968
0.00011606328
0.00011606443
0.00011608359
0.000116121
0.0001161766
0.00011625014
0.00011634107
0.00011644863
0.00011657181
0.00011670958
0.0001168605
0.0001170232
0.00011719615
0.00011737778
0.0001175665
0.00011776072
0.000117959
0.00011815976
0.00011836165
0.00011856338
0.00011876378
0.00011896174
0.00011915642
0.00011934689
0.00011953248
0.00011971258
0.0001198867
0.0001200544
0.0001202155
0.00012036966
0.00012051674
0.00012065667
0.00012078938
0.00012091483
0.00012103317
0.00012114433
0.00012124841
0.00012134548
0.00012143565
0.00012151895
0.00012159423
0.00012166403
0.0001217027
0.0001189095
0.0001188722
0.00011885631
0.00011883913
0.00011881921
0.0001187981
0.00011877439
0.00011874968
0.0001187226
0.0001186948
0.00011866494
0.0001186347
0.00011860279
0.00011857092
0.00011853781
0.00011850517
0.00011847173
0.00011843919
0.00011840625
0.00011837459
0.00011834286
0.0001183127
0.00011828269
0.00011825439
0.00011822633
0.00011819995
0.00011817371
0.00011814896
0.00011812405
0.00011810024
0.0001180758
0.00011805152
0.00011802707
0.00011800096
0.00011797428
0.00011794514
0.0001179146
0.00011788076
0.00011784471
0.00011780459
0.00011776154
0.00011771391
0.00011766243
0.00011760655
0.00011754626
0.00011748158
0.0001174126
0.00011733965
0.00011726297
0.00011718304
0.00011710044
0.00011701584
0.00011693002
0.00011684398
0.00011675862
0.00011667507
0.00011659451
0.00011651816
0.0001164473
0.00011638333
0.00011632749
0.00011628114
0.00011624559
0.00011622209
0.00011621183
0.00011621588
0.00011623532
0.00011627091
0.0001163234
0.00011639331
0.00011648101
0.00011658661
0.00011663885
0.00011650789
0.00011638459
0.00011627071
0.00011616799
0.00011607803
0.0001160025
0.00011594264
0.00011589978
0.00011587491
0.00011586883
0.00011588209
0.00011591495
0.00011596742
0.00011603922
0.00011612978
0.00011623829
0.00011636366
0.00011650475
0.00011666003
0.00011682798
0.00011700696
0.00011719527
0.00011739118
0.00011759297
0.00011779909
0.00011800786
0.00011821782
0.00011842761
0.00011863598
0.00011884176
0.00011904408
0.00011924195
0.00011943468
0.00011962166
0.00011980238
0.00011997641
0.00012014355
0.00012030348
0.00012045608
0.00012060129
0.00012073906
0.00012086939
0.00012099243
0.00012110815
0.00012121669
0.00012131816
0.00012141269
0.00012150038
0.00012158003
0.00012165439
0.0001216978
0.00011887809
0.00011884071
0.00011882458
0.000118807
0.00011878653
0.00011876471
0.00011874014
0.00011871444
0.00011868626
0.00011865723
0.00011862608
0.00011859447
0.00011856116
0.00011852786
0.00011849332
0.00011845928
0.00011842448
0.00011839066
0.00011835654
0.0001183238
0.00011829115
0.00011826019
0.00011822957
0.00011820082
0.0001181725
0.00011814604
0.0001181199
0.00011809542
0.00011807094
0.00011804771
0.00011802396
0.00011800046
0.00011797686
0.00011795162
0.0001179258
0.00011789746
0.00011786761
0.00011783432
0.00011779862
0.00011775862
0.00011771541
0.0001176673
0.00011761499
0.00011755788
0.00011749597
0.00011742925
0.00011735779
0.00011728195
0.00011720197
0.00011711834
0.00011703168
0.00011694272
0.00011685227
0.0001167614
0.00011667109
0.00011658253
0.00011649701
0.00011641584
0.00011634037
0.00011627214
0.00011621249
0.00011616287
0.00011612469
0.00011609932
0.00011608804
0.000116092
0.00011611239
0.00011615001
0.00011620569
0.00011628
0.00011637333
0.00011648582
0.00011655111
0.00011640593
0.00011626849
0.00011614073
0.00011602456
0.00011592176
0.00011583418
0.00011576323
0.00011571037
0.00011567674
0.00011566324
0.00011567051
0.00011569887
0.00011574836
0.00011581869
0.00011590925
0.00011601917
0.00011614728
0.00011629231
0.00011645262
0.00011662653
0.00011681226
0.00011700796
0.00011721177
0.00011742181
0.00011763642
0.00011785379
0.00011807238
0.00011829073
0.0001185075
0.00011872149
0.00011893176
0.00011913731
0.00011933742
0.00011953145
0.0001197189
0.00011989933
0.00012007258
0.00012023831
0.00012039643
0.0001205469
0.00012068971
0.00012082486
0.00012095255
0.00012107277
0.0001211857
0.0001212915
0.00012139032
0.00012148232
0.00012156624
0.00012164505
0.00012169307
0.00011884546
0.00011880803
0.00011879166
0.00011877367
0.00011875262
0.00011873006
0.00011870459
0.00011867784
0.00011864848
0.00011861816
0.00011858562
0.00011855255
0.00011851773
0.00011848289
0.00011844682
0.00011841127
0.00011837502
0.00011833981
0.00011830441
0.00011827053
0.00011823687
0.00011820508
0.0001181738
0.0001181446
0.00011811601
0.00011808951
0.00011806352
0.00011803938
0.00011801543
0.0001179929
0.00011796998
0.00011794743
0.00011792485
0.00011790067
0.0001178759
0.00011784856
0.00011781961
0.00011778707
0.00011775192
0.0001177122
0.00011766898
0.00011762051
0.00011756746
0.00011750919
0.00011744566
0.00011737687
0.00011730286
0.00011722399
0.00011714051
0.00011705294
0.00011696194
0.00011686825
0.00011677277
0.00011667662
0.00011658085
0.00011648677
0.00011639571
0.00011630912
0.00011622845
0.00011615534
0.00011609125
0.00011603774
0.00011599636
0.00011596856
0.00011595573
0.00011595914
0.00011598005
0.00011601937
0.00011607798
0.00011615651
0.00011625539
0.00011637479
0.00011645904
0.00011629881
0.00011614641
0.00011600398
0.00011587361
0.00011575728
0.00011565701
0.00011557441
0.00011551109
0.00011546834
0.00011544719
0.00011544837
0.00011547227
0.00011551893
0.00011558806
0.00011567903
0.00011579087
0.00011592231
0.00011607196
0.00011623801
0.00011641864
0.0001166119
0.00011681577
0.00011702823
0.00011724726
0.00011747105
0.00011769767
0.00011792547
0.00011815289
0.00011837854
0.00011860113
0.0001188197
0.0001190332
0.0001192409
0.00011944215
0.00011963646
0.00011982339
0.00012000278
0.00012017433
0.00012033798
0.00012049368
0.00012064147
0.00012078138
0.00012091364