/*--------------------------------*- C++ -*----------------------------------*\
| =========                 |                                                 |
| \\      /  F ield         | foam-extend: Open Source CFD                    |
|  \\    /   O peration     | Version:     4.1                                |
|   \\  /    A nd           | Web:         http://www.foam-extend.org         |
|    \\/     M anipulation  |                                                 |
\*---------------------------------------------------------------------------*/
FoamFile
{
    version     2.0;
    format      ascii;
    class       volVectorField;
    location    "1";
    object      U;
}
// * * * * * * * * * * * * * * * * * * * * * * * * * * * * * * * * * * * * * //

dimensions      [0 1 -1 0 0 0 0];

internalField   nonuniform List<vector> 
16126
(
(132.06299 -0.086831618 0)
(132.27919 -0.09691128 0)
(132.46063 -0.099514446 0)
(132.64936 -0.1009645 0)
(132.84086 -0.10200193 0)
(133.03468 -0.10289595 0)
(133.2306 -0.10373127 0)
(133.42854 -0.10453791 0)
(133.62845 -0.10532544 0)
(133.83032 -0.10609489 0)
(134.03411 -0.10684353 0)
(134.23978 -0.10756694 0)
(134.44727 -0.10826016 0)
(134.6565 -0.1089183 0)
(134.8674 -0.10953693 0)
(135.07984 -0.11011239 0)
(135.29372 -0.11064198 0)
(135.50891 -0.11112412 0)
(135.72528 -0.11155847 0)
(135.9427 -0.11194599 0)
(136.16104 -0.11228901 0)
(136.38017 -0.11259123 0)
(136.59997 -0.11285766 0)
(136.82034 -0.11309462 0)
(137.0412 -0.11330959 0)
(137.26248 -0.11351111 0)
(137.48414 -0.11370861 0)
(137.70616 -0.11391225 0)
(137.92857 -0.11413266 0)
(138.15139 -0.11438075 0)
(138.37472 -0.1146674 0)
(138.59866 -0.11500321 0)
(138.82333 -0.11539833 0)
(139.04892 -0.11586195 0)
(139.27559 -0.11640221 0)
(139.50358 -0.11702585 0)
(139.73312 -0.11773796 0)
(139.96444 -0.11854175 0)
(140.19779 -0.11943833 0)
(140.43345 -0.1204265 0)
(140.67165 -0.12150267 0)
(140.91263 -0.12266066 0)
(141.15661 -0.12389168 0)
(141.40378 -0.12518437 0)
(141.65429 -0.12652468 0)
(141.90825 -0.1278961 0)
(142.16572 -0.12927969 0)
(142.4267 -0.1306543 0)
(142.69113 -0.13199682 0)
(142.95888 -0.13328237 0)
(143.22973 -0.13448473 0)
(143.5034 -0.13557661 0)
(143.77952 -0.13653008 0)
(144.05764 -0.13731703 0)
(144.33722 -0.13790955 0)
(144.61765 -0.13828046 0)
(144.89822 -0.13840374 0)
(145.17818 -0.13825504 0)
(145.45666 -0.13781215 0)
(145.73278 -0.13705545 0)
(146.00557 -0.13596836 0)
(146.27403 -0.13453773 0)
(146.53711 -0.13275421 0)
(146.79377 -0.13061262 0)
(147.04293 -0.12811213 0)
(147.28353 -0.12525656 0)
(147.51452 -0.12205448 0)
(147.7349 -0.11851932 0)
(147.94371 -0.11466932 0)
(148.14004 -0.11052754 0)
(148.32308 -0.10612165 0)
(148.4921 -0.10148375 0)
(148.64648 -0.096649991 0)
(148.78571 -0.09166015 0)
(148.90941 -0.086557438 0)
(149.01735 -0.08138788 0)
(149.10942 -0.076198924 0)
(149.18567 -0.071037195 0)
(149.2463 -0.065945389 0)
(149.29167 -0.060964272 0)
(149.32226 -0.056130751 0)
(149.33873 -0.051476049 0)
(149.34182 -0.047014043 0)
(149.33247 -0.042736231 0)
(149.31125 -0.038716827 0)
(149.2792 -0.035082914 0)
(149.23756 -0.031904496 0)
(149.18766 -0.029210516 0)
(149.1309 -0.027015166 0)
(149.0687 -0.025323137 0)
(149.0025 -0.024131338 0)
(148.9337 -0.023429731 0)
(148.8637 -0.02320199 0)
(148.79384 -0.023426227 0)
(148.72539 -0.024075733 0)
(148.65957 -0.025119792 0)
(148.59749 -0.026524495 0)
(148.54017 -0.028253572 0)
(148.48854 -0.030269136 0)
(148.44343 -0.032532339 0)
(148.40556 -0.035003863 0)
(148.37555 -0.037644524 0)
(148.35392 -0.040414856 0)
(148.34108 -0.043274844 0)
(148.33736 -0.046180374 0)
(148.34303 -0.049083089 0)
(148.35807 -0.051970525 0)
(148.38257 -0.054846902 0)
(148.41656 -0.057697702 0)
(148.46002 -0.060500168 0)
(148.51288 -0.063229989 0)
(148.57505 -0.0658617 0)
(148.64635 -0.06836784 0)
(148.72659 -0.070717007 0)
(148.81554 -0.072870713 0)
(148.91292 -0.074779933 0)
(149.01837 -0.076382647 0)
(149.13134 -0.077591998 0)
(149.2512 -0.078237074 0)
(149.37776 -0.077980404 0)
(149.51167 -0.076473713 0)
(149.65008 -0.073906949 0)
(149.77646 -0.069969031 0)
(149.87024 -0.054470363 0)
(151.93279 -0.13008609 0)
(151.99601 -0.14435964 0)
(152.04331 -0.14950906 0)
(152.09316 -0.15262891 0)
(152.14473 -0.1549372 0)
(152.19789 -0.15694228 0)
(152.25255 -0.15883351 0)
(152.30866 -0.16068356 0)
(152.36624 -0.16251607 0)
(152.42527 -0.1643325 0)
(152.48575 -0.16612371 0)
(152.54767 -0.16787552 0)
(152.611 -0.16957166 0)
(152.67569 -0.17119558 0)
(152.74168 -0.17273157 0)
(152.8089 -0.17416566 0)
(152.87726 -0.17548629 0)
(152.94666 -0.17668475 0)
(153.017 -0.17775569 0)
(153.08817 -0.17869735 0)
(153.16006 -0.1795118 0)
(153.23256 -0.18020507 0)
(153.30556 -0.18078712 0)
(153.37899 -0.1812718 0)
(153.45275 -0.18167665 0)
(153.52678 -0.18202258 0)
(153.60105 -0.18233353 0)
(153.67553 -0.18263597 0)
(153.75024 -0.18295829 0)
(153.82519 -0.18333021 0)
(153.90046 -0.18378202 0)
(153.97613 -0.18434378 0)
(154.05232 -0.18504469 0)
(154.12916 -0.18591194 0)
(154.20683 -0.18697006 0)
(154.28551 -0.18824006 0)
(154.36542 -0.18973859 0)
(154.44678 -0.19147716 0)
(154.5298 -0.19346147 0)
(154.61474 -0.19569076 0)
(154.70182 -0.19815729 0)
(154.79125 -0.200846 0)
(154.88325 -0.20373406 0)
(154.97798 -0.20679094 0)
(155.0756 -0.20997827 0)
(155.17621 -0.21325003 0)
(155.27986 -0.21655287 0)
(155.38655 -0.21982662 0)
(155.49623 -0.22300485 0)
(155.60877 -0.22601571 0)
(155.72396 -0.22878279 0)
(155.84154 -0.23122625 0)
(155.96113 -0.23326396 0)
(156.08231 -0.23481277 0)
(156.20454 -0.23578989 0)
(156.32723 -0.23611431 0)
(156.44968 -0.23570829 0)
(156.57115 -0.2344988 0)
(156.69078 -0.23241903 0)
(156.80769 -0.22940983 0)
(156.92093 -0.22542109 0)
(157.02949 -0.220413 0)
(157.13233 -0.21435723 0)
(157.2284 -0.20723804 0)
(157.31662 -0.19905304 0)
(157.39593 -0.18981401 0)
(157.46526 -0.1795473 0)
(157.52361 -0.16829421 0)
(157.56998 -0.15611098 0)
(157.60348 -0.14306862 0)
(157.62327 -0.12925257 0)
(157.62859 -0.11476194 0)
(157.61882 -0.09970862 0)
(157.59344 -0.08421592 0)
(157.55203 -0.068417124 0)
(157.49436 -0.052453139 0)
(157.42031 -0.036468479 0)
(157.32992 -0.020608309 0)
(157.22338 -0.0050276751 0)
(157.10101 0.010113452 0)
(156.96333 0.024667074 0)
(156.81098 0.038498431 0)
(156.64476 0.051501415 0)
(156.46556 0.063604615 0)
(156.27489 0.074701352 0)
(156.07397 0.084641254 0)
(155.86396 0.093315307 0)
(155.64608 0.10065604 0)
(155.4216 0.10662199 0)
(155.1918 0.11119372 0)
(154.95798 0.11437185 0)
(154.72142 0.11617564 0)
(154.4834 0.11664146 0)
(154.24514 0.115821 0)
(154.00783 0.1137793 0)
(153.77257 0.11059262 0)
(153.54041 0.1063461 0)
(153.31231 0.10113156 0)
(153.08914 0.095045197 0)
(152.87168 0.088185596 0)
(152.66063 0.08065187 0)
(152.45658 0.072541816 0)
(152.26005 0.063950844 0)
(152.07145 0.054972195 0)
(151.89114 0.045701023 0)
(151.71936 0.036234469 0)
(151.55648 0.026646437 0)
(151.40266 0.01698248 0)
(151.25792 0.0072918253 0)
(151.12228 -0.0023757965 0)
(150.99566 -0.011974427 0)
(150.87796 -0.021462052 0)
(150.76901 -0.030799506 0)
(150.66862 -0.039947772 0)
(150.57657 -0.048863689 0)
(150.49259 -0.057498041 0)
(150.41636 -0.065800668 0)
(150.3474 -0.07368094 0)
(150.28523 -0.080896496 0)
(150.22978 -0.08691556 0)
(150.18132 -0.09133853 0)
(150.13702 -0.094923572 0)
(150.0873 -0.09711305 0)
(150.02968 -0.07917421 0)
(154.03856 -0.15078405 0)
(154.07251 -0.15933349 0)
(154.09548 -0.16475557 0)
(154.11909 -0.16872451 0)
(154.14366 -0.17196543 0)
(154.16943 -0.17488578 0)
(154.19645 -0.17767557 0)
(154.2247 -0.18041573 0)
(154.25416 -0.18313294 0)
(154.28481 -0.1858264 0)
(154.3166 -0.18848131 0)
(154.34949 -0.19107589 0)
(154.38342 -0.19358553 0)
(154.41833 -0.19598524 0)
(154.45413 -0.19825148 0)
(154.49076 -0.20036339 0)
(154.52814 -0.20230388 0)
(154.56617 -0.20406031 0)
(154.60477 -0.20562527 0)
(154.64387 -0.20699693 0)
(154.68339 -0.20817946 0)
(154.72326 -0.20918318 0)
(154.76344 -0.21002457 0)
(154.80389 -0.21072616 0)
(154.84458 -0.21131624 0)
(154.88552 -0.21182837 0)
(154.92673 -0.21230083 0)
(154.96824 -0.21277578 0)
(155.01013 -0.21329843 0)
(155.05248 -0.21391595 0)
(155.09542 -0.21467635 0)
(155.13909 -0.21562723 0)
(155.18364 -0.21681459 0)
(155.22926 -0.21828128 0)
(155.27615 -0.22006575 0)
(155.32453 -0.22220076 0)
(155.37463 -0.22471192 0)
(155.42667 -0.22761661 0)
(155.4809 -0.23092271 0)
(155.53754 -0.23462769 0)
(155.59682 -0.23871769 0)
(155.65893 -0.24316692 0)
(155.72407 -0.24793708 0)
(155.79239 -0.25297726 0)
(155.86399 -0.25822382 0)
(155.93896 -0.26360069 0)
(156.01731 -0.2690198 0)
(156.09902 -0.27438192 0)
(156.18399 -0.2795776 0)
(156.27206 -0.28448842 0)
(156.36302 -0.28898855 0)
(156.45655 -0.29294639 0)
(156.55229 -0.2962265 0)
(156.64979 -0.29869173 0)
(156.74852 -0.30020539 0)
(156.84787 -0.30063361 0)
(156.94717 -0.29984776 0)
(157.04569 -0.29772687 0)
(157.1426 -0.29416009 0)
(157.23705 -0.28904907 0)
(157.32811 -0.28231021 0)
(157.41484 -0.27387687 0)
(157.49624 -0.26370124 0)
(157.57131 -0.25175615 0)
(157.63901 -0.23803655 0)
(157.69835 -0.22256064 0)
(157.74831 -0.20537078 0)
(157.78794 -0.18653398 0)
(157.81631 -0.16614205 0)
(157.83255 -0.14431128 0)
(157.83588 -0.12118184 0)
(157.82559 -0.096916834 0)
(157.80106 -0.071700634 0)
(157.76181 -0.045736604 0)
(157.70745 -0.019243813 0)
(157.63773 0.0075481256 0)
(157.55255 0.034395837 0)
(157.45193 0.061041668 0)
(157.33606 0.087234489 0)
(157.20527 0.11272518 0)
(157.06002 0.13726155 0)
(156.90093 0.1606017 0)
(156.72874 0.18251844 0)
(156.54432 0.20280181 0)
(156.34863 0.22128808 0)
(156.14273 0.23785199 0)
(155.9278 0.25237579 0)
(155.70505 0.26476241 0)
(155.47576 0.27494624 0)
(155.24123 0.28289409 0)
(155.00277 0.28860433 0)
(154.76169 0.29210534 0)
(154.51926 0.29345327 0)
(154.27673 0.2927293 0)
(154.03529 0.29003647 0)
(153.79605 0.2854962 0)
(153.56007 0.27924462 0)
(153.32832 0.27142885 0)
(153.10166 0.26220335 0)
(152.88089 0.25172647 0)
(152.66669 0.24015721 0)
(152.45967 0.2276522 0)
(152.26033 0.21436283 0)
(152.0691 0.20043348 0)
(151.88632 0.18600004 0)
(151.71224 0.17118863 0)
(151.54706 0.1561246 0)
(151.39087 0.14092733 0)
(151.24375 0.12569813 0)
(151.1057 0.11052575 0)
(150.97666 0.095489457 0)
(150.85655 0.080660207 0)
(150.74523 0.066102109 0)
(150.64252 0.051875151 0)
(150.54823 0.038038498 0)
(150.4621 0.024652035 0)
(150.38384 0.011780949 0)
(150.31304 -0.00048932422 0)
(150.24938 -0.011934937 0)
(150.1928 -0.022138577 0)
(150.14303 -0.030996115 0)
(150.0975 -0.039221438 0)
(150.05275 -0.045880875 0)
(150.01514 -0.038078857 0)
(154.2025 -0.16997893 0)
(154.23075 -0.1752783 0)
(154.25121 -0.18014824 0)
(154.27209 -0.18446393 0)
(154.29373 -0.18836917 0)
(154.31642 -0.19204559 0)
(154.34026 -0.19560476 0)
(154.36529 -0.19909914 0)
(154.39149 -0.20254328 0)
(154.41884 -0.20592945 0)
(154.44729 -0.20923765 0)
(154.47681 -0.21244173 0)
(154.50732 -0.2155135 0)
(154.53877 -0.21842523 0)
(154.57107 -0.22115176 0)
(154.60414 -0.22367183 0)
(154.63791 -0.22596937 0)
(154.67229 -0.22803427 0)
(154.7072 -0.22986323 0)
(154.74257 -0.23146018 0)
(154.77832 -0.23283665 0)
(154.81441 -0.2340119 0)
(154.85078 -0.2350129 0)
(154.88741 -0.23587399 0)
(154.92428 -0.23663651 0)
(154.96141 -0.23734809 0)
(154.99882 -0.23806182 0)
(155.03657 -0.23883517 0)
(155.07473 -0.23972882 0)
(155.1134 -0.24080527 0)
(155.15271 -0.24212731 0)
(155.19281 -0.24375644 0)
(155.23387 -0.2457512 0)
(155.27608 -0.24816537 0)
(155.31964 -0.25104624 0)
(155.36479 -0.25443293 0)
(155.41175 -0.25835464 0)
(155.46077 -0.26282921 0)
(155.51208 -0.26786154 0)
(155.56592 -0.27344251 0)
(155.62252 -0.27954775 0)
(155.68208 -0.28613703 0)
(155.74479 -0.29315347 0)
(155.8108 -0.30052354 0)
(155.88024 -0.30815689 0)
(155.95317 -0.31594684 0)
(156.02963 -0.32377104 0)
(156.10958 -0.33149248 0)
(156.19294 -0.33896085 0)
(156.27956 -0.34601424 0)
(156.3692 -0.35248106 0)
(156.46156 -0.35818237 0)
(156.55628 -0.36293437 0)
(156.65291 -0.36655119 0)
(156.75091 -0.36884779 0)
(156.84968 -0.36964307 0)
(156.94855 -0.36876311 0)
(157.04677 -0.36604433 0)
(157.14352 -0.36133683 0)
(157.23794 -0.35450751 0)
(157.32909 -0.34544312 0)
(157.41602 -0.33405321 0)
(157.49771 -0.32027273 0)
(157.57316 -0.30406442 0)
(157.64131 -0.28542084 0)
(157.70115 -0.26436601 0)
(157.75166 -0.24095665 0)
(157.79185 -0.21528291 0)
(157.82078 -0.18746867 0)
(157.83757 -0.15767114 0)
(157.8414 -0.12608024 0)
(157.83154 -0.092917742 0)
(157.80737 -0.058434391 0)
(157.76838 -0.022906708 0)
(157.71416 0.013367799 0)
(157.64445 0.050067428 0)
(157.55913 0.08685291 0)
(157.45821 0.12338498 0)
(157.34187 0.15931515 0)
(157.21042 0.19429751 0)
(157.06432 0.22799536 0)
(156.9042 0.26008415 0)
(156.7308 0.2902537 0)
(156.54499 0.31821107 0)
(156.34778 0.34369925 0)
(156.14026 0.36650585 0)
(155.9236 0.38645574 0)
(155.69907 0.40341429 0)
(155.46796 0.41729103 0)
(155.23159 0.42804029 0)
(154.99131 0.43566024 0)
(154.74843 0.44019099 0)
(154.50427 0.44171147 0)
(154.26008 0.44033577 0)
(154.01707 0.43620863 0)
(153.77637 0.42950062 0)
(153.53904 0.42040302 0)
(153.30605 0.40912268 0)
(153.0783 0.39587694 0)
(152.85655 0.38088892 0)
(152.64151 0.36438312 0)
(152.43378 0.34658149 0)
(152.23385 0.32770028 0)
(152.04214 0.30794671 0)
(151.85899 0.2875151 0)
(151.68465 0.26658414 0)
(151.51929 0.2453214 0)
(151.36302 0.22388412 0)
(151.2159 0.20241521 0)
(151.07793 0.18104448 0)
(150.94904 0.15989074 0)
(150.82915 0.1390641 0)
(150.71811 0.11866919 0)
(150.61576 0.098810131 0)
(150.52189 0.079595997 0)
(150.43627 0.061144603 0)
(150.35861 0.04359064 0)
(150.28858 0.027128391 0)
(150.22594 0.012096128 0)
(150.17057 -0.0010507149 0)
(150.12188 -0.012092885 0)
(150.07786 -0.020728034 0)
(150.03811 -0.02514028 0)
(150.00978 -0.018635237 0)
(154.20746 -0.18341507 0)
(154.23378 -0.1876937 0)
(154.25396 -0.19237066 0)
(154.27472 -0.19700848 0)
(154.29622 -0.20151521 0)
(154.31871 -0.20592459 0)
(154.34233 -0.21027406 0)
(154.36711 -0.21457894 0)
(154.39308 -0.21883315 0)
(154.4202 -0.22301537 0)
(154.44845 -0.22709519 0)
(154.47777 -0.23103766 0)
(154.50812 -0.23480693 0)
(154.53941 -0.23836873 0)
(154.57158 -0.24169258 0)
(154.60453 -0.24475325 0)
(154.63818 -0.24753224 0)
(154.67246 -0.25001873 0)
(154.70726 -0.2522105 0)
(154.74252 -0.25411443 0)
(154.77815 -0.25574701 0)
(154.81411 -0.25713437 0)
(154.85033 -0.25831224 0)
(154.88678 -0.2593256 0)
(154.92345 -0.26022805 0)
(154.96035 -0.261081 0)
(154.99749 -0.26195256 0)
(155.03494 -0.26291623 0)
(155.07276 -0.26404934 0)
(155.11105 -0.26543131 0)
(155.14995 -0.26714178 0)
(155.1896 -0.26925853 0)
(155.23018 -0.27185539 0)
(155.27187 -0.27499998 0)
(155.31491 -0.27875152 0)
(155.3595 -0.28315869 0)
(155.4059 -0.28825745 0)
(155.45436 -0.29406914 0)
(155.50512 -0.3005986 0)
(155.55843 -0.30783267 0)
(155.61453 -0.31573872 0)
(155.67363 -0.32426383 0)
(155.73593 -0.33333386 0)
(155.80161 -0.34285336 0)
(155.87079 -0.35270543 0)
(155.94356 -0.36275231 0)
(156.01996 -0.37283623 0)
(156.09996 -0.38278069 0)
(156.1835 -0.39239226 0)
(156.27041 -0.40146261 0)
(156.36049 -0.40977113 0)
(156.45344 -0.41708777 0)
(156.54889 -0.42317628 0)
(156.64639 -0.42779774 0)
(156.74541 -0.43071431 0)
(156.84534 -0.43169321 0)
(156.9455 -0.43051078 0)
(157.04513 -0.42695669 0)
(157.14341 -0.42083806 0)
(157.23945 -0.4119836 0)
(157.33231 -0.40024748 0)
(157.42101 -0.38551314 0)
(157.50452 -0.36769669 0)
(157.58179 -0.34674997 0)
(157.65179 -0.3226632 0)
(157.71343 -0.29546717 0)
(157.76569 -0.26523482 0)
(157.80756 -0.23208224 0)
(157.83806 -0.19616917 0)
(157.85628 -0.15769829 0)
(157.86139 -0.11691524 0)
(157.85264 -0.074106599 0)
(157.82937 -0.029596133 0)
(157.79105 0.016258938 0)
(157.73728 0.063073789 0)
(157.66776 0.11043571 0)
(157.58237 0.1579187 0)
(157.48111 0.2050763 0)
(157.36417 0.25145758 0)
(157.23185 0.29661396 0)
(157.08464 0.34010648 0)
(156.92315 0.38151482 0)
(156.74816 0.42044384 0)
(156.56057 0.45652933 0)
(156.36139 0.48944849 0)
(156.15175 0.51892608 0)
(155.93286 0.54473568 0)
(155.70599 0.56670381 0)
(155.47249 0.58471336 0)
(155.23371 0.59870458 0)
(154.99103 0.60867416 0)
(154.74578 0.61467271 0)
(154.49932 0.61680094 0)
(154.25293 0.61520476 0)
(154.00782 0.61006948 0)
(153.76516 0.60161351 0)
(153.52601 0.59008169 0)
(153.29137 0.5757385 0)
(153.06211 0.55886154 0)
(152.83903 0.53973529 0)
(152.62281 0.51864544 0)
(152.41406 0.49587386 0)
(152.21327 0.47169441 0)
(152.02085 0.44636949 0)
(151.83713 0.42014649 0)
(151.66233 0.39325524 0)
(151.49664 0.36590814 0)
(151.34015 0.33829937 0)
(151.19289 0.31060373 0)
(151.05487 0.28297753 0)
(150.92601 0.25556034 0)
(150.80622 0.22847734 0)
(150.69534 0.20184283 0)
(150.59323 0.17576501 0)
(150.49968 0.15035133 0)
(150.41446 0.12571388 0)
(150.33733 0.10198335 0)
(150.26802 0.07935096 0)
(150.20638 0.058118151 0)
(150.15228 0.038630255 0)
(150.10517 0.021125289 0)
(150.06388 0.0065557828 0)
(150.02933 -0.0032250918 0)
(150.00708 -0.0047257615 0)
(154.20828 -0.19851876 0)
(154.23345 -0.20270024 0)
(154.25338 -0.20750134 0)
(154.27409 -0.21253538 0)
(154.2956 -0.21763142 0)
(154.31812 -0.22273841 0)
(154.34175 -0.22783721 0)
(154.36656 -0.23290867 0)
(154.39256 -0.2379253 0)
(154.41975 -0.24285143 0)
(154.44808 -0.24764616 0)
(154.47752 -0.25226635 0)
(154.508 -0.25666962 0)
(154.53946 -0.26081659 0)
(154.5718 -0.2646731 0)
(154.60495 -0.26821172 0)
(154.63881 -0.27141333 0)
(154.6733 -0.27426816 0)
(154.70832 -0.27677678 0)
(154.74378 -0.27895072 0)
(154.7796 -0.2808129 0)
(154.81572 -0.28239771 0)
(154.85208 -0.28375088 0)
(154.88864 -0.28492903 0)
(154.92537 -0.28599892 0)
(154.96228 -0.28703638 0)
(154.99939 -0.28812503 0)
(155.03675 -0.28935464 0)
(155.07442 -0.29081929 0)
(155.11252 -0.29261524 0)
(155.15115 -0.29483871 0)
(155.19049 -0.29758336 0)
(155.2307 -0.30093777 0)
(155.27199 -0.3049828 0)
(155.31457 -0.30978889 0)
(155.35869 -0.31541356 0)
(155.40459 -0.32189872 0)
(155.45254 -0.32926852 0)
(155.50279 -0.33752696 0)
(155.5556 -0.34665623 0)
(155.61124 -0.35661488 0)
(155.66993 -0.36733685 0)
(155.73188 -0.37873038 0)
(155.79728 -0.39067786 0)
(155.86627 -0.40303574 0)
(155.93896 -0.4156352 0)
(156.0154 -0.42828314 0)
(156.09559 -0.44076379 0)
(156.17945 -0.45284078 0)
(156.26685 -0.46425969 0)
(156.35758 -0.47475111 0)
(156.45135 -0.4840341 0)
(156.54779 -0.4918201 0)
(156.64646 -0.49781715 0)
(156.74683 -0.50173448 0)
(156.84827 -0.50328725 0)
(156.95011 -0.50220153 0)
(157.05156 -0.49821939 0)
(157.15181 -0.49110391 0)
(157.24993 -0.48064419 0)
(157.34497 -0.46666015 0)
(157.43592 -0.44900713 0)
(157.52175 -0.42758005 0)
(157.60136 -0.40231726 0)
(157.67368 -0.37320375 0)
(157.73763 -0.34027389 0)
(157.79212 -0.30361347 0)
(157.83612 -0.26336095 0)
(157.86863 -0.21970812 0)
(157.8887 -0.17289934 0)
(157.89546 -0.12323227 0)
(157.88814 -0.071053965 0)
(157.86605 -0.016756974 0)
(157.82865 0.039224156 0)
(157.77548 0.096412878 0)
(157.70627 0.15430245 0)
(157.62085 0.21236142 0)
(157.51924 0.27004286 0)
(157.4016 0.3267917 0)
(157.26826 0.38205437 0)
(157.1197 0.43528805 0)
(156.95656 0.48597068 0)
(156.77963 0.53361047 0)
(156.58983 0.57775612 0)
(156.38823 0.61800735 0)
(156.17597 0.65402209 0)
(155.95431 0.68552096 0)
(155.72457 0.71229157 0)
(155.48813 0.73419172 0)
(155.24638 0.7511503 0)
(155.00073 0.76316613 0)
(154.75259 0.77030489 0)
(154.50332 0.7726943 0)
(154.25423 0.770518 0)
(154.00658 0.76400839 0)
(153.76154 0.7534386 0)
(153.52021 0.73911424 0)
(153.28357 0.72136499 0)
(153.05253 0.70053635 0)
(152.82787 0.676982 0)
(152.61029 0.65105669 0)
(152.40038 0.62310998 0)
(152.19862 0.59348093 0)
(152.00541 0.56249366 0)
(151.82107 0.53045372 0)
(151.64583 0.49764595 0)
(151.47983 0.46433354 0)
(151.32316 0.43075713 0)
(151.17585 0.39713431 0)
(151.03787 0.36366033 0)
(150.90915 0.33050983 0)
(150.78958 0.2978393 0)
(150.679 0.26579043 0)
(150.57724 0.23449441 0)
(150.4841 0.20407616 0)
(150.39937 0.17465946 0)
(150.32281 0.14638129 0)
(150.25419 0.11942256 0)
(150.1934 0.094020815 0)
(150.14028 0.070396516 0)
(150.09441 0.048728573 0)
(150.05529 0.030042632 0)
(150.02437 0.015272142 0)
(150.00568 0.0059269769 0)
(154.21511 -0.21006845 0)
(154.23937 -0.21452502 0)
(154.25896 -0.21965289 0)
(154.2795 -0.22516807 0)
(154.30093 -0.23088755 0)
(154.32341 -0.23671629 0)
(154.34704 -0.24259487 0)
(154.37187 -0.24847369 0)
(154.39792 -0.25430299 0)
(154.42519 -0.26003019 0)
(154.45364 -0.26560093 0)
(154.48324 -0.27096094 0)
(154.51391 -0.27605851 0)
(154.54559 -0.28084652 0)
(154.57818 -0.28528464 0)
(154.6116 -0.28934093 0)
(154.64574 -0.29299356 0)
(154.68052 -0.2962319 0)
(154.71582 -0.29905772 0)
(154.75156 -0.30148578 0)
(154.78765 -0.30354437 0)
(154.824 -0.30527536 0)
(154.86056 -0.30673406 0)
(154.89727 -0.30798861 0)
(154.93411 -0.30911915 0)
(154.97106 -0.31021654 0)
(155.00816 -0.31138078 0)
(155.04543 -0.31271915 0)
(155.08295 -0.31434394 0)
(155.12082 -0.31637002 0)
(155.15916 -0.31891213 0)
(155.19813 -0.32208194 0)
(155.23791 -0.32598504 0)
(155.27871 -0.33071782 0)
(155.32076 -0.33636425 0)
(155.3643 -0.34299294 0)
(155.4096 -0.35065394 0)
(155.45692 -0.35937615 0)
(155.50656 -0.36916454 0)
(155.55878 -0.37999812 0)
(155.61385 -0.39182779 0)
(155.67202 -0.4045752 0)
(155.73353 -0.41813141 0)
(155.79858 -0.43235674 0)
(155.86734 -0.44708064 0)
(155.93992 -0.46210246 0)
(156.0164 -0.47719267 0)
(156.09678 -0.49209469 0)
(156.18102 -0.50652739 0)
(156.26898 -0.52018812 0)
(156.36048 -0.53275627 0)
(156.45521 -0.54389743 0)
(156.55284 -0.55326798 0)
(156.6529 -0.56052017 0)
(156.75486 -0.56530747 0)
(156.85811 -0.56729029 0)
(156.96194 -0.56614191 0)
(157.06558 -0.56155442 0)
(157.16817 -0.55324485 0)
(157.26878 -0.54096106 0)
(157.36642 -0.52448747 0)
(157.46008 -0.50365059 0)
(157.54866 -0.47832404 0)
(157.63107 -0.44843304 0)
(157.70618 -0.41395843 0)
(157.77287 -0.37493985 0)
(157.83004 -0.33147827 0)
(157.87658 -0.2837375 0)
(157.91148 -0.23194503 0)
(157.93375 -0.17639129 0)
(157.94247 -0.11743065 0)
(157.93685 -0.055476133 0)
(157.91616 0.0090046926 0)
(157.87982 0.075493546 0)
(157.82737 0.14342969 0)
(157.75849 0.2122161 0)
(157.67302 0.2812206 0)
(157.57096 0.3497907 0)
(157.45246 0.41726367 0)
(157.31785 0.48297795 0)
(157.16764 0.54628461 0)
(157.00248 0.60655931 0)
(156.82318 0.66321396 0)
(156.63071 0.71570869 0)
(156.42615 0.76356331 0)
(156.2107 0.80636647 0)
(155.98567 0.84378252 0)
(155.75242 0.87555693 0)
(155.51238 0.90151973 0)
(155.26701 0.92158648 0)
(155.01776 0.93575682 0)
(154.76608 0.94411062 0)
(154.51338 0.94680219 0)
(154.261 0.94405277 0)
(154.01024 0.93614172 0)
(153.7623 0.92339686 0)
(153.51829 0.90618441 0)
(153.27922 0.88489875 0)
(153.04599 0.8599526 0)
(152.81939 0.83176771 0)
(152.60012 0.80076643 0)
(152.38877 0.76736423 0)
(152.1858 0.73196333 0)
(151.99161 0.69494745 0)
(151.8065 0.65667756 0)
(151.63067 0.61748932 0)
(151.46427 0.57769157 0)
(151.30736 0.53756552 0)
(151.15996 0.49736468 0)
(151.02202 0.45731603 0)
(150.89346 0.41762189 0)
(150.77415 0.37846307 0)
(150.66393 0.34000278 0)
(150.56263 0.30239136 0)
(150.47005 0.26577119 0)
(150.38597 0.23028362 0)
(150.31018 0.19608372 0)
(150.24248 0.16336147 0)
(150.18277 0.13233762 0)
(150.13085 0.10321323 0)
(150.08647 0.076208559 0)
(150.04946 0.052356508 0)
(150.02127 0.031742681 0)
(150.00487 0.014819013 0)
(154.22723 -0.22379171 0)
(154.25073 -0.22873211 0)
(154.26994 -0.23435177 0)
(154.29025 -0.24044542 0)
(154.31154 -0.24683883 0)
(154.33394 -0.2534157 0)
(154.35754 -0.26008975 0)
(154.38238 -0.26678735 0)
(154.40849 -0.27343907 0)
(154.43586 -0.27997637 0)
(154.46445 -0.28633183 0)
(154.49423 -0.29244028 0)
(154.52512 -0.29824092 0)
(154.55705 -0.30367917 0)
(154.58993 -0.30870893 0)
(154.62365 -0.31329416 0)
(154.65811 -0.31741077 0)
(154.69321 -0.32104776 0)
(154.72883 -0.32420857 0)
(154.76488 -0.32691171 0)
(154.80125 -0.32919135 0)
(154.83785 -0.33109736 0)
(154.87462 -0.33269514 0)
(154.91148 -0.33406492 0)
(154.94842 -0.33530075 0)
(154.98541 -0.33650904 0)
(155.02246 -0.33780677 0)
(155.0596 -0.33931925 0)
(155.09692 -0.34117762 0)
(155.1345 -0.34351589 0)
(155.17248 -0.34646794 0)
(155.211 -0.35016399 0)
(155.25026 -0.35472726 0)
(155.29047 -0.36027022 0)
(155.33187 -0.36689096 0)
(155.37472 -0.37466967 0)
(155.4193 -0.38366506 0)
(155.46589 -0.39391126 0)
(155.51479 -0.40541459 0)
(155.56629 -0.41815126 0)
(155.62069 -0.43206479 0)
(155.67826 -0.44706473 0)
(155.73925 -0.46302503 0)
(155.80388 -0.4797839 0)
(155.87236 -0.49714363 0)
(155.94481 -0.51487141 0)
(156.02132 -0.53270074 0)
(156.10193 -0.55033358 0)
(156.18661 -0.56744313 0)
(156.27523 -0.58367737 0)
(156.36761 -0.59866314 0)
(156.46349 -0.61201096 0)
(156.56249 -0.62332033 0)
(156.66419 -0.63218557 0)
(156.76803 -0.63820208 0)
(156.8734 -0.64097293 0)
(156.97959 -0.64011573 0)
(157.08579 -0.63526964 0)
(157.19114 -0.62610238 0)
(157.29468 -0.61231719 0)
(157.3954 -0.59365953 0)
(157.49225 -0.56992348 0)
(157.58409 -0.54095766 0)
(157.6698 -0.5066706 0)
(157.74822 -0.46703533 0)
(157.81816 -0.42209328 0)
(157.87849 -0.37195722 0)
(157.92806 -0.31681322 0)
(157.9658 -0.25692153 0)
(157.99069 -0.19261637 0)
(158.00176 -0.12430656 0)
(157.99817 -0.052469281 0)
(157.97917 0.022353545 0)
(157.94413 0.099561006 0)
(157.89255 0.17848902 0)
(157.82411 0.25843435 0)
(157.73861 0.33865844 0)
(157.63603 0.41839773 0)
(157.51655 0.4968757 0)
(157.38049 0.57331632 0)
(157.22836 0.64695773 0)
(157.06085 0.71706669 0)
(156.87879 0.7829528 0)
(156.68318 0.84398258 0)
(156.47515 0.8995926 0)
(156.25598 0.94930044 0)
(156.02699 0.99271348 0)
(155.78964 1.0295354 0)
(155.5454 1.0595699 0)
(155.2958 1.0827222 0)
(155.04234 1.0989967 0)
(154.78653 1.1084925 0)
(154.52982 1.1113964 0)
(154.27363 1.1079737 0)
(154.01926 1.098558 0)
(153.76796 1.0835391 0)
(153.52085 1.0633511 0)
(153.27897 1.0384604 0)
(153.04323 1.009354 0)
(152.81441 0.97652809 0)
(152.59322 0.94047865 0)
(152.38023 0.90169233 0)
(152.1759 0.86063915 0)
(151.98061 0.81776641 0)
(151.79464 0.77349396 0)
(151.61817 0.72821105 0)
(151.45133 0.68227435 0)
(151.29416 0.63600697 0)
(151.14666 0.58969848 0)
(151.00876 0.54360603 0)
(150.88036 0.49795625 0)
(150.76132 0.45294835 0)
(150.65147 0.40875786 0)
(150.55062 0.36554112 0)
(150.45858 0.32344016 0)
(150.37512 0.28258993 0)
(150.30005 0.24313114 0)
(150.2332 0.20522297 0)
(150.17445 0.16903475 0)
(150.12365 0.13472405 0)
(150.08063 0.10249768 0)
(150.0454 0.073329324 0)
(150.01924 0.046698108 0)
(150.00436 0.022637341 0)
(154.24448 -0.23449908 0)
(154.26722 -0.24001361 0)
(154.28602 -0.246219 0)
(154.30603 -0.25296173 0)
(154.32713 -0.26007878 0)
(154.34941 -0.26744228 0)
(154.37295 -0.27494627 0)
(154.39779 -0.28249653 0)
(154.42395 -0.29000474 0)
(154.45143 -0.29738574 0)
(154.48019 -0.30455758 0)
(154.51017 -0.31144243 0)
(154.54132 -0.3179686 0)
(154.57355 -0.3240723 0)
(154.60675 -0.32969996 0)
(154.64083 -0.33480996 0)
(154.67567 -0.33937457 0)
(154.71114 -0.34338133 0)
(154.74714 -0.34683441 0)
(154.78355 -0.3497554 0)
(154.82025 -0.35218396 0)
(154.85715 -0.35417783 0)
(154.89416 -0.35581263 0)
(154.93121 -0.35718112 0)
(154.96826 -0.35839197 0)
(155.00528 -0.35956818 0)
(155.04228 -0.36084494 0)
(155.07929 -0.36236714 0)
(155.11637 -0.36428646 0)
(155.15361 -0.36675801 0)
(155.19116 -0.36993685 0)
(155.22915 -0.37397402 0)
(155.2678 -0.37901257 0)
(155.30732 -0.38518335 0)
(155.34797 -0.39260081 0)
(155.39 -0.40135895 0)
(155.43373 -0.41152716 0)
(155.47945 -0.42314665 0)
(155.52748 -0.43622678 0)
(155.57814 -0.45074232 0)
(155.63173 -0.4666305 0)
(155.68858 -0.48378951 0)
(155.74894 -0.50207661 0)
(155.81307 -0.52130792 0)
(155.88118 -0.54125821 0)
(155.95345 -0.56166178 0)
(156.02998 -0.58221409 0)
(156.11082 -0.60257415 0)
(156.19597 -0.62236775 0)
(156.28532 -0.64119138 0)
(156.3787 -0.65861703 0)
(156.47585 -0.67419756 0)
(156.57642 -0.68747288 0)
(156.67997 -0.69797654 0)
(156.78595 -0.70524298 0)
(156.89374 -0.70881507 0)
(157.00261 -0.70825199 0)
(157.11175 -0.70313731 0)
(157.22026 -0.69308706 0)
(157.32716 -0.67775772 0)
(157.43141 -0.65685401 0)
(157.53191 -0.63013624 0)
(157.62751 -0.59742719 0)
(157.71702 -0.55861827 0)
(157.79922 -0.51367489 0)
(157.87291 -0.462641 0)
(157.93688 -0.40564249 0)
(157.98995 -0.34288958 0)
(158.03097 -0.27467768 0)
(158.05888 -0.20138795 0)
(158.07267 -0.1234868 0)
(158.07143 -0.041519388 0)
(158.05437 0.043893542 0)
(158.02083 0.1320616 0)
(157.97027 0.22223747 0)
(157.90233 0.31361425 0)
(157.8168 0.40534292 0)
(157.71365 0.49654425 0)
(157.59303 0.58632288 0)
(157.45529 0.67378281 0)
(157.30094 0.75804336 0)
(157.13069 0.8382562 0)
(156.94541 0.91362212 0)
(156.74616 0.98340752 0)
(156.53412 1.0469597 0)
(156.3106 1.1037201 0)
(156.07703 1.1532347 0)
(155.8349 1.195162 0)
(155.58578 1.2292774 0)
(155.33126 1.2554745 0)
(155.07291 1.2737625 0)
(154.81231 1.2842608 0)
(154.55097 1.2871907 0)
(154.29035 1.2828641 0)
(154.03181 1.2716717 0)
(153.77662 1.2540687 0)
(153.52595 1.2305605 0)
(153.28083 1.201689 0)
(153.0422 1.1680184 0)
(152.81084 1.1301227 0)
(152.58746 1.088574 0)
(152.3726 1.0439324 0)
(152.16673 0.99673799 0)
(151.9702 0.94750332 0)
(151.78327 0.89670863 0)
(151.6061 0.84479823 0)
(151.4388 0.79217825 0)
(151.28138 0.7392158 0)
(151.13381 0.68623909 0)
(150.99601 0.63353881 0)
(150.86785 0.58137021 0)
(150.74918 0.5299564 0)
(150.63981 0.47949204 0)
(150.53954 0.43014761 0)
(150.44816 0.38207412 0)
(150.36545 0.33540973 0)
(150.29121 0.29028906 0)
(150.22529 0.24684877 0)
(150.16756 0.2052186 0)
(150.11788 0.16551501 0)
(150.07615 0.12789273 0)
(150.04244 0.093232709 0)
(150.01783 0.060560994 0)
(150.00402 0.029754688 0)
(154.26608 -0.24722297 0)
(154.28811 -0.25339872 0)
(154.30648 -0.26028608 0)
(154.32616 -0.26776158 0)
(154.34701 -0.27567015 0)
(154.36914 -0.28387665 0)
(154.3926 -0.29226038 0)
(154.41744 -0.30070998 0)
(154.44366 -0.30912017 0)
(154.47125 -0.31738999 0)
(154.50019 -0.32542321 0)
(154.53042 -0.33312922 0)
(154.56186 -0.34042516 0)
(154.59442 -0.3472377 0)
(154.628 -0.35350547 0)
(154.66248 -0.35918093 0)
(154.69774 -0.36423249 0)
(154.73364 -0.36864596 0)
(154.77007 -0.37242615 0)
(154.80688 -0.37559768 0)
(154.84395 -0.37820571 0)
(154.88118 -0.38031601 0)