/*--------------------------------*- C++ -*----------------------------------*\
| =========                 |                                                 |
| \\      /  F ield         | foam-extend: Open Source CFD                    |
|  \\    /   O peration     | Version:     4.1                                |
|   \\  /    A nd           | Web:         http://www.foam-extend.org         |
|    \\/     M anipulation  |                                                 |
\*---------------------------------------------------------------------------*/
FoamFile
{
    version     2.0;
    format      ascii;
    class       volScalarField;
    location    "0.9";
    object      p;
}
// * * * * * * * * * * * * * * * * * * * * * * * * * * * * * * * * * * * * * //

dimensions      [0 2 -2 0 0 0 0];

internalField   nonuniform List<scalar> 
4242
(
-0.1807733
-0.18191336
-0.18253548
-0.18224258
-0.18041623
-0.1760212
-0.16784371
-0.15475742
-0.13612736
-0.11208729
-0.083510804
-0.051818965
-0.018805083
0.013328354
0.04282289
0.072857563
-0.35690077
-0.35647577
-0.35537293
-0.3526338
-0.3468421
-0.33627001
-0.31928923
-0.29511042
-0.26426007
-0.22850194
-0.19008997
-0.1509181
-0.11228898
-0.075251611
-0.040888425
-0.0086529296
-0.51723957
-0.51653
-0.51523207
-0.5125238
-0.50704204
-0.4969572
-0.48018974
-0.45500897
-0.42087002
-0.37893634
-0.33183668
-0.28252622
-0.23330417
-0.18566207
-0.14060123
-0.09951306
-0.6458929
-0.64469194
-0.64293862
-0.63995171
-0.63447706
-0.62481043
-0.60890863
-0.58479292
-0.5512611
-0.50859658
-0.45875161
-0.40461615
-0.34885425
-0.29351638
-0.24014734
-0.19039684
-0.72157076
-0.72000286
-0.7179472
-0.71489274
-0.70974742
-0.70098518
-0.6866707
-0.66474002
-0.63361414
-0.59295584
-0.54409847
-0.48964503
-0.43237432
-0.37448998
-0.31743124
-0.2613006
-0.74180132
-0.74005101
-0.73789637
-0.73501464
-0.73055454
-0.72328297
-0.711519
-0.69327125
-0.66670843
-0.63088902
-0.58639713
-0.53533359
-0.48046606
-0.42425042
-0.36844769
-0.31382749
-0.71390599
-0.71216408
-0.7100992
-0.7075571
-0.70396065
-0.69844986
-0.6897496
-0.67616502
-0.65585858
-0.62743739
-0.59066526
-0.54681922
-0.49825813
-0.44747076
-0.39637825
-0.3458334
-0.65244807
-0.65090166
-0.64909589
-0.64698702
-0.64423981
-0.6403607
-0.63454678
-0.62557976
-0.61190529
-0.59199016
-0.56493988
-0.53107585
-0.49197159
-0.44979687
-0.40648753
-0.3633611
-0.57611056
-0.57491455
-0.57350196
-0.57186822
-0.56984554
-0.56722562
-0.56363265
-0.55836402
-0.55034438
-0.53826023
-0.52092614
-0.4978634
-0.46970379
-0.43798705
-0.40442295
-0.37033304
-0.50265273
-0.50192332
-0.50101792
-0.49991422
-0.49851822
-0.49674673
-0.49446325
-0.49142559
-0.48720472
-0.48102073
-0.47167059
-0.45825812
-0.44063636
-0.41951342
-0.39601839
-0.37171121
-0.44750322
-0.44733061
-0.44703672
-0.44653697
-0.44572192
-0.44449927
-0.44283795
-0.4406813
-0.43769838
-0.43329195
-0.42735157
-0.42008592
-0.41109611
-0.39906736
-0.38212417
-0.35867406
-0.40772513
-0.40802792
-0.40826203
-0.40835673
-0.4082416
-0.40778254
-0.40677145
-0.40496351
-0.40231524
-0.39927596
-0.39639419
-0.39471498
-0.3966417
-0.39600658
-0.38745226
-0.36680691
0.066221458
0.067176689
0.068433587
0.070865056
0.07555059
0.083475972
0.095278084
0.11093634
0.1296273
0.14986048
0.16992507
0.18836006
0.20404727
0.21604619
0.22446374
0.23283537
0.27956948
0.2782558
0.27719536
0.27699164
0.27819122
0.2813935
0.28700527
0.29496894
0.30464318
0.3149173
0.32449828
0.33217943
0.33691945
0.33776278
0.33413042
0.32734874
0.47320132
0.47163177
0.47012882
0.46907168
0.46868407
0.46920234
0.47070032
0.47291404
0.47519233
0.4766047
0.47615082
0.47293798
0.46620354
0.45525415
0.43995554
0.42246675
0.62020706
0.61834467
0.61642729
0.61470431
0.61317557
0.61183167
0.61052821
0.60886655
0.60617206
0.60157486
0.59416004
0.58309719
0.56764859
0.54717745
0.52185546
0.49440353
0.7223152
0.72029003
0.71812839
0.71598997
0.71373892
0.71120108
0.70805308
0.70373211
0.69745303
0.68832557
0.67551752
0.65835264
0.63626561
0.6089162
0.57755551
0.54738446
-0.51806328
-0.51735125
-0.51605211
-0.51334376
-0.50786232
-0.49777789
-0.48100958
-0.45582137
-0.4216666
-0.3797074
-0.33256992
-0.28322003
-0.23397666
-0.18637109
-0.14152217
-0.10082425
0.74780785
0.74592737
0.74385947
0.74170421
0.73927409
0.73633491
0.73251425
0.72724726
0.71982333
0.70949448
0.69559037
0.67759555
0.6551761
0.6282101
0.59699986
0.56292206
0.74817228
0.74628185
0.74420374
0.74203859
0.7395978
0.73664558
0.73280719
0.7275152
0.7200576
0.70968822
0.69574285
0.67771459
0.65528128
0.62836607
0.59743522
0.56414623
0.7222882
0.72025781
0.7180917
0.71594995
0.71369589
0.7111542
0.70799979
0.70366783
0.69737209
0.6882241
0.67539757
0.65822442
0.6361522
0.60889814
0.57787211
0.54829799
0.61926132
0.61741526
0.61551655
0.6138132
0.61230522
0.61098235
0.60969787
0.60804958
0.6053592
0.60075628
0.59333208
0.58225813
0.56674201
0.54602365
0.52052938
0.49462356
0.4719559
0.47041117
0.4689363
0.4679089
0.46755465
0.468112
0.46965656
0.47192493
0.47426448
0.47574333
0.47536634
0.47223871
0.46549042
0.45414803
0.43848579
0.42419243
0.27933201
0.27803033
0.27698456
0.27679739
0.27801753
0.28124909
0.28690593
0.2949385
0.3047118
0.31511867
0.32487027
0.33276326
0.33773205
0.33878357
0.33548821
0.32889067
0.066906773
0.067859574
0.069114163
0.071541427
0.076219228
0.084134125
0.095926812
0.11158293
0.13028454
0.15054159
0.17063847
0.18910299
0.20478367
0.21666178
0.22479403
0.23300305
-0.4073122
-0.40761398
-0.40784701
-0.40794101
-0.40782595
-0.4073682
-0.40635926
-0.40455004
-0.40188775
-0.39883212
-0.39593795
-0.39420495
-0.39590677
-0.39489911
-0.38518358
-0.3626673
-0.44677964
-0.44661191
-0.44632337
-0.44582938
-0.44502024
-0.44380135
-0.44213918
-0.43998362
-0.43701417
-0.43262967
-0.42673999
-0.41961764
-0.41098493
-0.39964592
-0.38420397
-0.36413321
-0.50136872
-0.50064437
-0.49974391
-0.4986448
-0.49725377
-0.49548868
-0.49321479
-0.49019102
-0.48599914
-0.47987937
-0.47064238
-0.45740968
-0.44005787
-0.41931894
-0.39638859
-0.37286265
-0.57450831
-0.57331613
-0.57190694
-0.57027629
-0.56825784
-0.56564593
-0.56207042
-0.55683755
-0.54887907
-0.53688927
-0.51968747
-0.49679469
-0.46883963
-0.43735506
-0.40404638
-0.370298
-0.65074943
-0.6492054
-0.6474019
-0.64529635
-0.64255621
-0.63869216
-0.63290742
-0.62399096
-0.61039462
-0.59058726
-0.56367017
-0.52995623
-0.49101218
-0.44900111
-0.40585649
-0.3629886
-0.71240762
-0.7106665
-0.70860283
-0.70606424
-0.70247709
-0.6969863
-0.68832263
-0.67479646
-0.65457245
-0.62625457
-0.58959839
-0.54587306
-0.49743762
-0.44678196
-0.39584138
-0.3456063
-0.74077537
-0.73902429
-0.73686987
-0.73399163
-0.72954161
-0.72229101
-0.7105631
-0.69236892
-0.66587583
-0.63013651
-0.58572701
-0.53474548
-0.47996794
-0.42385255
-0.36818697
-0.3138772
-0.72119471
-0.71962489
-0.71756871
-0.71451703
-0.70938009
-0.7006345
-0.68634695
-0.66445331
-0.63337149
-0.59275879
-0.5439437
-0.48953394
-0.43232294
-0.37451585
-0.31760836
-0.26184839
-0.64618804
-0.64498471
-0.64323046
-0.64024497
-0.63477478
-0.62511648
-0.60922705
-0.58512594
-0.55160793
-0.50895308
-0.45911121
-0.40498185
-0.34924502
-0.2939574
-0.24074594
-0.1913473
-0.35798763
-0.35756123
-0.35645762
-0.35371674
-0.34792
-0.33733741
-0.32033753
-0.2961277
-0.26523458
-0.22942359
-0.19095062
-0.15170977
-0.11301643
-0.075974812
-0.041704063
-0.0092206423
-0.18153746
-0.18267777
-0.18329941
-0.18300456
-0.18117368
-0.17677028
-0.16857939
-0.15547794
-0.13682862
-0.11276193
-0.084147357
-0.052407729
-0.019360411
0.012756812
0.042287495
0.072654391
-0.40454163
-0.40436653
-0.40415216
-0.40384627
-0.4033735
-0.40263289
-0.40147075
-0.3996686
-0.39696647
-0.39315078
-0.38820777
-0.38232529
-0.37525715
-0.36985872
-0.36574113
-0.36173203
-0.40307
-0.40270691
-0.40229409
-0.40183129
-0.40126021
-0.4005161
-0.39952197
-0.39820283
-0.39652994
-0.39458496
-0.39260321
-0.39096533
-0.39038482
-0.39265138
-0.39791023
-0.40101521
-0.39489492
-0.39445687
-0.3939806
-0.3934866
-0.39293813
-0.39231903
-0.39164575
-0.39099429
-0.39054163
-0.39060036
-0.39161286
-0.39409225
-0.39853154
-0.40518458
-0.41344555
-0.42258608
-0.3679954
-0.36790438
-0.36781341
-0.36772683
-0.36764503
-0.36759533
-0.36766095
-0.36801939
-0.36897741
-0.3709732
-0.37452028
-0.38009645
-0.38799828
-0.39821552
-0.41065341
-0.42562713
-0.32126743
-0.32187943
-0.32254918
-0.32324006
-0.3240053
-0.32492315
-0.32614779
-0.3279558
-0.33075034
-0.33499863
-0.34111755
-0.34934921
-0.35962131
-0.37136956
-0.38376895
-0.39740073
-0.29485571
-0.29610273
-0.29747361
-0.29889605
-0.30047134
-0.30230837
-0.30458205
-0.30757867
-0.31167889
-0.31728275
-0.32470388
-0.33408064
-0.34531243
-0.35790698
-0.3705825
-0.38100512
-0.29190688
-0.29320499
-0.29463066
-0.29610945
-0.29774608
-0.29965368
-0.30201424
-0.30512467
-0.30937764
-0.31518303
-0.32285897
-0.33253985
-0.34410828
-0.35705622
-0.37021669
-0.38183665
-0.3212778
-0.32190243
-0.32258548
-0.32328934
-0.32406993
-0.32500861
-0.32626351
-0.32811808
-0.33098564
-0.33534819
-0.34164248
-0.35014177
-0.36084307
-0.37327144
-0.38632266
-0.39921316
-0.36738864
-0.36730342
-0.36722077
-0.36714726
-0.36708672
-0.36707094
-0.36718817
-0.36761967
-0.36867198
-0.37077727
-0.37443997
-0.38013605
-0.38817177
-0.39847042
-0.41057329
-0.42484223
-0.39468176
-0.39425632
-0.39379424
-0.39331564
-0.39278504
-0.39218735
-0.39154049
-0.39092136
-0.39050685
-0.39060688
-0.39165827
-0.39417
-0.39863523
-0.40528507
-0.41346916
-0.42290731
-0.40328552
-0.40292099
-0.40250776
-0.40204689
-0.40148166
-0.4007499
-0.39977904
-0.39850024
-0.39689204
-0.39504282
-0.3931929
-0.39172898
-0.39137074
-0.39388235
-0.39951732
-0.4025861
-0.40492086
-0.40473747
-0.40451491
-0.40420202
-0.40372358
-0.40297968
-0.40181886
-0.40002718
-0.39735222
-0.3935872
-0.38871345
-0.38291671
-0.37603526
-0.37091841
-0.36691523
-0.3631934
-0.069208608
-0.069939043
-0.067888434
-0.062949614
-0.054896653
-0.043318999
-0.027563038
-0.007618931
0.015675149
0.04094062
0.066668772
0.091416431
0.11351843
0.13229171
0.15205073
-0.069951128
-0.07067243
-0.068602499
-0.063636125
-0.055551743
-0.043945503
-0.028173386
-0.0082198127
0.015084285
0.040369415
0.066128113
0.090911686
0.11309765
0.13222339
0.15172981
-0.40703442
-0.40732224
-0.40741363
-0.4071789
-0.40644528
-0.40500147
-0.40262473
-0.39919308
-0.39487584
-0.39042153
-0.38805174
-0.38516758
-0.37906484
-0.36958077
-0.35090973
-0.40705374
-0.40734672
-0.40744195
-0.40720843
-0.4064715
-0.40501822
-0.40262424
-0.39916527
-0.39480914
-0.39034955
-0.38804292
-0.38522943
-0.3791363
-0.37021272
-0.35556566
-0.065411667
-0.066152112
-0.40665049
-0.40666602
-0.18915135
0.014285939
0.28280597
0.0061092523
-0.39380779
0.043976017
0.15891712
0.20169577
0.19992608
0.15882651
0.1514391
0.016851961
0.22808231
-0.041908277
0.1640734
-0.23940086
0.091115885
-0.31264178
-0.37219056
0.014425429
-0.39046891
0.23142151
0.20787362
0.196632
0.20022631
0.041519918
0.0037805957
0.012744988
-0.0087617619
-0.031203757
0.04461285
0.16373548
0.023958727
-0.018737776
0.21718784
0.010816999
0.016897671
0.21246319
0.09128748
0.090168931
0.035864526
0.011685557
0.19768988
-0.026926415
0.19643841
0.30911631
0.009288984
0.19693207
0.17091757
0.17069569
-0.31545057
0.41991178
0.24416151
0.13325526
-0.16070448
-0.048265804
0.13153333
0.15414906
0.19615958
0.00049539907
0.0032181222
0.17402854
0.17177042
0.10120518
-0.2950426
0.1065091
0.038544559
0.0013957491
0.073474746
0.010387101
0.058486801
-0.2237219
0.071685622
0.010402281
0.0093882109
0.20608811
-0.17745647
0.059301495
0.015104533
0.13057745
-0.23408281
-0.32470451
-0.028431668
0.0053555318
0.078775276
0.019500797
0.17517937
0.0052527149
-0.26042179
0.008273869
-0.025428095
0.038342145
0.32721254
0.075200109
0.20246547
0.21785271
0.0013189405
0.29795781
-0.34612074
0.22228147
0.0086453972
0.011689031
0.040847837
0.014746862
0.0033361693
-0.04121617
0.041032032
0.0056829471
0.092555111
-0.02371083
-0.1823861
0.24443057
0.073835305
0.043003691
-0.00083914615
0.017981755
0.25906631
0.013750325
0.016840825
0.24828912
0.25440597
0.12675108
-0.38723039
0.027806785
-0.36566932
-0.41673157
0.11145145
-0.35790884
-0.28407385
0.23208737
0.11964032
0.099551529
0.026276105
0.0093204421
0.035069089
0.075568362
0.29786209
0.005606057
-0.3286063
0.0055282967
0.20458174
0.015768653
-0.38713052
-0.16805443
-0.0047936478
-0.0035769576
-0.016359166
-0.21490797
0.01124593
0.16580168
0.16435477
0.0084523495
0.056823873
0.25699675
0.02287396
0.19493709
-0.31223401
0.11472954
0.02280388
0.013385899
-0.31848703
-0.316421
0.20717424
0.23471699
0.12182509
0.025301862
0.0121483
0.15616281
-0.053383169
0.015551857
-0.14675303
0.31734728
0.069862015
0.027605142
0.010809934
0.20832494
0.12278886
0.015792233
0.0061225547
-0.20513219
0.1619547
-0.038722216
-0.016856381
0.058681717
0.073732993
0.17020519
0.20448408
-0.013190894
-0.015575691
-0.039115099
0.01398635
0.036451192
-0.004395994
-0.28408517
0.099977278
0.19646204
0.027548489
0.046406257
0.15169973
0.3359753
0.16146113
0.060853353
-0.22889398
0.13572281
0.2363908
0.17864969
0.22216153
0.031737519
0.25850147
0.021160289
-0.012364411
0.0044106753
0.12173329
0.14718962
0.014136798
0.011091636
0.0085062496
0.19942451
0.21324228
0.094386577
0.052915058
0.064611656
0.12664325
0.010732198
0.10767538
-0.24140594
0.24086061
0.0086847039
0.032081423
0.10541937
-0.31444128
0.28092087
0.018939297
0.093151054
-0.0022142846
0.052734663
0.022055849
0.19983967
-0.0027519487
0.01372752
0.04480978
0.01047307
0.072604281
0.047105005
0.27123469
0.11901369
-0.017081805
0.19050608
0.028572523
0.08939383
0.17400929
0.32351739
0.019788406
0.010614554
-0.3877188
0.0059505177
0.22418752
0.058710546
0.0071962716
-0.00026349924
0.008847441
0.0019770068
0.023236123
0.023921262
0.10158841
0.0056120811
0.044071477
-0.0040398737
0.021575268
0.091396601
0.14664692
0.10171107
0.11862603
0.22667841
-0.14407879
0.025564815
0.26106056
0.23924492
0.013913121
0.030508
-0.30555032
0.027335146
0.043698818
-0.033935781
-0.3490198
-0.391467
0.037615749
0.1159775
0.066632399
0.017421542
0.16230605
-0.015227182
-0.029452304
0.0031167641
0.26724428
0.11335595
0.049860834
0.2056451
0.065663672
0.015903907
0.015854128
0.0011094675
0.029940047
0.28071392
0.32743374
0.11045546
0.062060132
0.1302203
0.002442386
0.21057347
-0.27625747
9.0768915e-05
0.035881017
0.039824763
0.12556957
0.031086725
0.045718133
0.040625414
0.361699
-0.044815625
0.04582307
0.21927774
0.0028716231
0.012691987
0.044187661
0.11675998
0.041208349
0.028057332
0.035164468
0.0082974742
0.41863085
-0.32846421
0.15331788
0.19642642
-0.021470761
-0.030616421
0.11743799
0.018669416
0.015338185
0.041235439
0.0118609
0.041750689
0.037251569
0.25237871
0.011640796
0.027846129
0.016706055
0.024095748
0.030302064
0.0085603773
0.01493914
-0.34987641
0.069615347
0.16089143
-0.088330211
-0.049862477
0.01398234
-0.0087912145
-0.37378089
0.18018723
0.075185437
0.18780252
0.016726954
-0.36274519
0.2891878
0.21469996
0.050942574
-0.1857824
0.023231614
0.23011955
-0.044841989
0.0052083896
0.33982575
0.16285854
0.15402256
0.079542577
-0.12715783
0.069160524
0.0087002982
0.052157544
0.022348263
0.23340782
0.21533228
-0.36609705
0.069966112
0.11496886
-0.23862622
0.0080376885
0.14984121
-0.093991659
0.023806448
0.069703702
-0.089541275
0.030021866
0.05376642
0.00075200956
0.0055980491
-0.038147579
0.39780785
0.035110576
0.004806646
-0.26203721
0.042465035
-0.03563216
0.18908894
-0.28555682
0.0089824041
0.020284642
0.18999839
0.032828336
0.12241156
0.19319939
-0.0053598763
0.010608621
0.1232693
0.15946278
0.16231367
0.010890088
-0.0030173512
0.017251085
-0.076526016
0.014962167
0.0043252874
0.18989702
0.23712794
0.28117223
-0.090885078
0.023815643
0.22254301
0.040727326
0.16397741
0.16044873
0.041437798
0.047430732
-0.40275497
0.14812915
0.036538237
0.010520099
0.013632531
0.092163244
-0.16763276
-0.27448901
0.10244747
0.037390565
-0.0093949995
0.024235931
0.026521209
0.0037290991
0.0059961432
0.19761792
0.030971661
-0.22474235
-0.005719753
0.017080755
0.048293994
0.042543307
0.14077232
0.11974536
0.014228074
0.16678704
0.16972349
0.24740765
0.060803347
0.074922953
0.1530419
0.18344571
0.19461307
0.20857133
0.22520942
-0.051664565
-0.43491438
0.028401142
0.2693395
0.0072984563
0.017417185
0.042488453
0.017514749
0.021856171
0.42711294
0.024442712
0.0068304955
-0.23984286
-0.038852299
0.0011370097
-0.028987725
-0.0520536
0.036826593
0.19655642
0.19411397
-0.12320733
-0.38819856
0.005350542
0.013753571
0.00068162014
-0.047085321
-0.30820647
0.12441929
0.076003278
0.019012884
0.0062437305
0.083422332
0.11843577
0.28989619
0.15822266
0.15473311
0.021522605
-0.28619614
-0.0050407119
0.007228927
-0.058222091
0.016282417
0.019390757
-0.012383532
0.00095332208
-0.26166705
-0.28377632
0.023141232
0.19775197
0.14839564
0.19416442
0.018239457
0.10170387
0.031445877
0.01668876
-0.11708938
0.015234644
-0.2031406
0.022001635
-0.25985781
0.23735113
0.15997569
-0.23807059
0.2335955
0.051668176
-0.32197445
0.22917967
0.17063563
0.17050834
0.19590656
0.18444322
-0.3067222
-0.0092409377
0.0018576028
0.030258895
0.0056845524
-0.37203737
0.1923693
0.18474119
0.076178101
0.049268558
0.092056749
0.039887999
0.010674924
0.22701485
0.035260914
0.070826723
0.043667518
-0.30389601
0.27778421
-0.37534964
0.059037139
0.1338459
-0.37019773
-0.017084533
0.019755022
-0.28873728
-0.14523234
-0.069394006
0.18015114
0.18456946
0.10942431
0.031455253
-0.20531167
0.23111574
0.27301837
0.26659289
0.17169968
-0.014217749
0.183126
0.22106275
0.2805356
0.20597097
0.32440746
0.028775087
0.19530315
0.20720348
0.016054318
0.005637143
-0.0052864141
0.19416391
0.23832103
0.20171294
-0.19418086
0.17548536
0.014930085
0.42691985
0.20123473
0.0095035857
0.41597684
0.2333786
-0.043802386
0.045876703
-0.32183417
0.41421198
0.019563948
-0.22421706
0.21630535
0.023527159
0.3105888
0.21770674
0.22380478
0.021557606
0.0010333345
-0.31822
0.22495896
0.42773889
0.16765185
0.035154541
0.18484597
-0.03844893
-0.41078837
0.042962383
-0.080571024
0.42466811
-0.15886591
0.0094107311
0.084450912
0.28318526
0.27138151
-0.27890047
-0.022673392
0.046953001
0.21841371
-0.35719713
-0.075212638
0.0043230754
-0.028799178
0.17358274
0.17349771
-0.0015045081
-0.19169105
0.11931283
-0.37808962
-0.00065990083
-0.15159489
0.19372509
0.041832074
0.011048506
0.014410022
0.3825473
0.080938175
0.1590251
0.011008534
0.052500649
0.17999059
-0.06124843
0.41084032
0.015183235
0.0065812861
0.19696215
0.019996186
-0.02285953
0.016598549
-0.053222911
0.02289919
0.082755594
-0.021020343
0.010157003
0.28108097
-0.37859404
0.13602836
0.16944677
0.087675
0.25471361
0.015995343
0.27869128
-0.25714396
0.47290849
-0.28562642
0.090734181
-0.019445138
0.35758269
-0.35786342
0.0059242254
0.032113325
0.18534592
0.13758429
-0.32081759
0.18523316
0.18948099
-0.42326471
-0.15175273
0.033584027
-0.08447664
0.00013160812
-0.15221333
-0.3435618
0.014674713
0.021747674
0.029363628
0.035368007
0.22597815
0.027252298
-0.25762651
0.17325902
0.093010762
0.0023164072
0.13672994
-0.0026635813
-0.00051946896
-0.072056005
0.11731902
-0.38278625
-0.006394412
0.28367435
-0.11907658
0.01067367
0.0060252912
-0.11382956
0.19416031
0.22731223
0.0024470991
-0.055591787
0.015656913
0.23125612
0.21067416
-0.058168826
0.15742232
0.013483729
0.096037362
-0.40246696
-0.25490644
0.19860882
-0.25870701
-0.28140569
0.031720336
-0.2181468
0.20124251
0.1253092
-0.035525631
0.01633745
0.0063836419
-0.061516164
0.01870661
-0.39281096
0.047902836
0.056276664
0.011987268
0.075784916
0.044466974
-0.076617645
0.10558224
0.11143136
-0.35855856
0.030249164
0.032484704
0.080167208
-0.036339064
0.29139922
0.045348569
0.17152989
0.018281361
0.17324161
-0.13482231
0.01337635
-0.21006037
-0.22716439
0.037083323
0.11463911
0.081722117
0.096039691
0.0073155682
0.13860023
-0.0085748095
0.21813713
0.012376627
0.032331984
0.18728386
0.22063429
0.022054468
0.27803756
-0.026957306
0.52725275
-0.21731516
-0.054646558
0.0078395464
0.012416258
0.085384907
0.24111779
-0.0055579094
0.02412317
0.028030993
0.051902103
0.005334218
-0.003240645
0.025147401
0.014278317
0.0071183469
0.27408779
0.0083582152
0.21190614
0.23854704
0.22522166
0.22084445
0.20488202
0.17380638
0.0085323363
0.057836963
-0.11001527
0.0059606238
0.0019865161
0.13880393
0.28125894
-0.033675665
-0.086867775
0.015637591
0.22934265
0.026216283
0.23596751
0.18947171
0.087522024
0.32148009
0.13941289
0.11733152
-0.030636359
0.0088361023
0.003822827
0.013755197
0.036611154
0.42319875
0.13825091
0.098132776
0.20004804
0.14161667
0.14598219
0.020412036
0.026103824
0.23207154
0.088004464
0.10334839
0.017967363
0.19878436
0.049578153
0.16287529
0.10950971
0.013635099
0.029493038
-0.072705782
0.21640242
0.08403033
-0.061799389
0.011594206
0.029723471
-0.17944442
0.17070918
-0.0082811992
0.095988168
0.4085836
0.022807354
0.40651033
-0.3327341
0.039763462
0.14958772
0.014779118
0.18072982
0.026903069
0.25459385
0.023028685
0.21785247
0.01411441
-0.026688736
-0.23835221
-0.062588107
0.16687998
0.020558708
-0.0035199638
0.22810612
0.058000232
-0.18751184
-0.12234176
0.10680151
0.21499839
0.18766997
0.01611403
0.156169
0.11830987
-0.058881432
0.14585948
0.52062628
-0.090537948
0.052312106
0.04697153
0.37550331
0.17885829
-0.25638305
0.062867812
0.02376978
0.091730647
0.052709999
-0.035885144
-0.00021187523
0.18316208
-0.032754664
0.14110836
-0.17189868
0.044499031
0.0078413692
0.0040293261
0.0055613601
-0.18669571
0.0074980384
0.18308939
0.037801483
0.13383248
0.10931623
0.23747113
0.20338781
0.28199538
0.22110411
-0.16656459
-0.084132842
-0.30587235
-0.03760043
0.048818367
-0.15880167
-0.11962203
0.077688652
0.080476429
0.044869777
0.22726981
-0.13070758
0.0098169847
-0.03293652
0.12045611
-0.38456295
0.1225055
0.038204875
0.040858011
-0.16694001
-0.0044849302
0.032581309
0.024288648
0.13617757
0.18912603
0.16753221
0.48658576
0.034997995
0.020302108
0.13171116
0.0041589928
-0.16931066
-0.11855844
-0.14230797
-0.10041817
0.061073445
0.27505329
0.35555059
-0.21271707
0.019505389
0.24186522
-0.23125453
0.0092743446
0.0031318105
0.021992962
-0.27369857
0.19265849
0.14374888
0.18184051
0.0090817181
-0.13496745
-0.0031541714
0.22367956
0.31928465
0.023728035
0.16529842
0.33004003
0.12941215
0.084519363
0.013613295
0.25941349
-0.037387035
0.0086215406
0.042650398
0.022193836
0.11961788
-0.37727944
0.46062065
0.020295687
-0.33984983
0.018318634
0.039724379
0.35255505
-0.10428913
-0.38789338
0.012999574
0.071357021
0.019653464
0.021421403
0.16198071
0.0055797931
0.050349471
-0.18141063
0.089856196
0.21205155
0.30394099
-0.017511658
-0.25408018
0.23358682
0.14233814
0.14266844
0.01772919
-0.22963623
0.015634967
0.012267033
0.14108164
-0.031334232
0.021506007
0.17975056
0.23960942
0.18485737
-0.083035988
0.017438905
0.077776231
-0.17674084
0.039838061
0.30837357
-0.3849912
0.0066902497
0.22608898
-0.015858768
0.24044653
0.056255095
0.10161096
0.19414169
0.35046365
-0.29522335
-0.10605733
0.02003541
0.035091514
0.0082362832
-0.29336277
0.012604165
0.20536054
-0.20499819
0.022553398
0.18914876
0.00044119262
0.079387918
-0.18868953
-0.21651707
0.015413043
-0.029855854
0.15544991
0.015471816
0.27592475
-0.16684762
-0.026359194
-0.3764747
0.020944344
-0.3606909
0.032834725
0.097604624
0.20087455
0.05522555
0.15759837
0.15913585
-0.092126433
-0.005943753
-0.17731492
0.010212205
0.025848907
-0.14350139
0.054444344
0.043390427
0.0050912289
0.015982061
-0.15534109
0.015522417
0.3897368
-0.15144565
0.28442748
0.057126813
0.017040025
0.24681196
0.022761913
-0.00036292366
-0.25249785
0.020882909
0.45870265
0.14229719
-0.13615001
-0.0309295
0.19720483
-0.25017524
0.065335898
0.14540397
0.29505689
0.050254908
0.077120671
0.017002843
0.25177738
0.06121334
0.021195016
0.019831568
-0.076787253
0.001977902
0.1664687
0.019100554
0.078846752
0.14877153
0.025491829
-0.036209863
0.52938188
0.13280021
-0.28139896
-0.25757981
-0.16594567
0.17739718
0.028840025
0.39843735
0.023922531
-0.20370816
-0.31463202
-0.029433063
-0.34956843
-0.091183621
0.028752568
0.0022138855
0.007549093
0.0083376905
0.0040394251
-0.0052310033
0.17926135
0.058427613
-0.198136
0.48499276
-0.13884659
0.22002819
-0.085225205
0.20804787
0.19629414
0.0093248657
0.31136488
-0.39103546
0.040439043
0.20025529
0.010311688
0.020290674
0.16695889
-0.0094581506
0.018028172
-0.16571821
-0.16376196
0.026112634
0.0058678979
0.01413981
0.019145575
-0.084104215
0.012205239
0.018280192
-0.19132177
0.03137844
0.03589367
0.0029561988
0.0013710929
0.035295141
0.090537689
0.11793031
0.026286802
0.17847212
-0.26077053
0.24394764
0.021503573
-0.41155768
0.2348978
0.045316689
-0.25914445
0.027876185
0.029154041
-0.14360977
0.19766648
0.01869609
-0.21640218
0.00028913598
0.2776144
-0.080251452
0.16295683
0.0069599188
0.09456867
-0.21247119
-0.36704274
0.021956536
-0.37110961
0.011438366
0.048197212
-0.075135616
0.21409079
-0.093439151
0.019268727
0.19578867
0.02436355
-0.12047454
-0.069404291
0.048367425
0.011373002
0.067014584
0.01176323
0.0070110246
0.50742792
0.026168714
0.35221531
0.053869307
0.375696
-0.13260248
-0.2608801
0.015898933
0.18268179
0.19517944
0.26342988
-0.047046302
0.0076390164
0.26779121
0.20042864
0.012364127
-0.37504273
0.018965736
0.24892096
0.18920921
0.0053810393
0.03176658
0.016288256
-0.028231281
0.11032647
0.19231787
-0.4092653
-0.41509566
0.15264329
-0.32721715
0.18736618
0.064524469
0.0712802
0.0034567255
0.15528033
0.011347191
0.39615974
0.12786637
-0.016574831
0.010090794
0.24686368
0.30846856
-0.34008198
0.098442597
-0.13846376
-0.34133378
0.46784993
0.033920854
0.14691699
0.20098103
0.0225352
0.0065388912
0.03277852
-0.42338426
0.23134761
0.0067852356
0.0058642822
-0.15019461
0.18372275
0.0088606212
-0.11291299
0.018776957
0.012723762
0.025380153
0.034852713
-0.37760508
-0.10360224
0.036535763
0.0075570818
0.14418304
0.093356097
0.24210215
-0.14518991
0.022602766
-0.2991116
0.00094807441
0.21629716
0.060130232
-0.098364802
0.04033773
0.0044160438
-0.42681501
-0.063815115
-0.27812521
-0.14763442
0.038047072
0.21760161
0.21460589
0.019965549
-0.2142431
0.0055792966
-0.010311636
-0.40573169
0.25816649
-0.38984499
0.21680841
0.25934754
0.0045773805
0.34178791
0.46698798
0.19323029
0.04524838
0.043355968
-0.3834441
0.056754861
0.27147665
0.17152644
0.068369121
0.10062751
0.32316954
0.28266285
0.014748405
0.0029776428
-0.12068031
0.03084363
0.2821656
0.1509283
0.15884061
-0.14196586
0.0024628866
-0.0070956692
0.28937063
-0.34673906
0.0080507324
0.047976386
0.074379369
0.34383373
0.010974411
0.0491766
0.026189011
0.21260441
0.026424348
0.0077224276
-0.14185928
0.01371964
0.029186295
-0.13903787
-0.015588001
-0.17857878
0.026599935
-0.44017042
0.10408092
0.015724852
0.17783622
-0.35411489
0.043063261
0.0050140013
-0.013460433
0.026549549
0.034822194
0.17313326
-0.085532627
0.17688016
0.19397703
-0.11446439
-0.17385355
-0.0659096
0.0090943565
0.010362287
0.0052534738
0.049321251
0.016047124
0.18405522
0.045604649
0.017118525
0.035670386
0.25818666
0.1086665
0.31703342
-0.00033586783
0.018651145
-0.34708432
0.21206434
-0.34092487
0.24700604
0.0079456584
-0.067001139
0.076663733
0.10547854
0.027363343
-0.33576599
0.017466614
0.19156559
0.018201721
0.22114791
0.012634804
0.047979805
0.015921656
0.028507064
0.26558027
0.11339513
0.073131238
0.081451011
0.18922814
0.018194066
0.011176249
0.012139782
0.020270776
-9.3860327e-07
0.40337887
-0.03490701
0.003308067
-0.014766911
0.23311056
-0.084859708
-0.021239349
0.060189757
0.20419251
-0.33994027
0.02494497
0.015847989
0.21600512
0.024528728
0.18929224
0.016343909
-0.042821241
0.045733093
0.22726423
0.10853856
0.41736912
-0.28025982
0.040993703
0.095849552
-0.072120003
-0.072195329
0.40892289
0.22213125
-0.44234153
-0.17334459
0.019788743
0.016360434
0.25472411
0.0028740163
0.22660355
0.30055
0.002794013
-0.059917971
0.2781368
-0.42019477
0.15631722
0.026476987
0.19980913
-0.40140991
-0.060331105
0.018150336
0.15024398
0.15023916
-0.18170435
-0.15721594
0.0091963605
0.023573055
-0.21288516
-0.20780986
0.0026790752
0.012219361
-0.38543
-0.026453615
0.018407191
-0.090730258
0.032960698
0.021254639
0.15342494
-0.08767057
-0.17937975
-0.041224717
0.48232949
0.2445603
0.15566091
0.15326907
-0.21177065
0.011986497
-0.052381951
0.056359235
-0.056931661
0.19289759
0.19047955
-0.30939766
-0.13748135
-0.025612163
0.1995176
-0.11570309
-0.42637182
0.39740248
0.33418204
0.12030682
0.51033237
-0.42243262
-0.063930156
0.011264768
-0.33872914
0.46165583
0.16192317
-0.17357579
-0.067884874
0.12749754
0.0039248695
0.034515005
0.2391484
0.44199593
-0.054880293
-0.12958067
0.073240346
0.099436122
0.10943585
0.17276143
-0.38183758
0.014713459
-0.13278009
0.17253132
0.0095693904
-0.12353484
0.069033302
0.14406239
0.01045729
0.021300884
-0.11121309
0.18112822
0.13632403
-0.30774955
0.19783906
-0.40316254
-0.10976922
-0.0021101691
0.0067964113
0.0026022338
0.23710918
0.22465381
-0.10503621
0.19756343
0.4790851
-0.08228223
0.079492813
0.18332333
0.01913524
0.20538723
0.37631079
0.011481975
-0.072087807
0.055728206
-0.2310784
-0.072823247
0.20579778
0.038383792
0.0075785098
0.18175936
-0.097255563
0.09561841
0.35088786
-0.35810164
-0.033009961
0.12952097
0.067420576
0.026789313
0.012552125
0.1262855
-0.16898259
0.23207222
0.035594873
0.26231651
-0.16505508
0.014085589
0.2696215
-0.32686572
-0.35735557
0.17954436
-0.19232446
-0.4337722
-0.22844156
-0.22192508
-0.2206305
0.30272251
-0.052059955
-0.11781548
0.0013315803
0.0069564613
-0.0072465743
0.096624717
0.015833113
-0.27230756
0.028047103
-0.042673215
0.05431312
0.040816113
-0.13169175
0.071593235
0.25968984
0.046065474
0.25373644
0.11807315
0.10637462
0.24391583
-0.070884579
-0.35727251
-0.12500368
0.095526976
-0.2286354
0.020761931
0.04941656
0.068179324
0.023057448
0.14586943
0.14279294
0.25954814
0.022130412
-0.037019159
0.17403987
0.044983238
0.017418249
-0.016075011
-0.037627587
0.31799413
0.12822803
0.05096972
0.098133309
0.029639855
0.006623523
0.019211881
0.4776425
0.015865993
-0.41056079
-0.18488717
0.37953675
-0.013331611
0.020408779
0.12621344
0.19214114
0.30280504
0.019376448
0.052146109
-0.091844896
0.23159786
0.16602943
0.20619263
-0.039071231
0.0017546077
0.24138468
-0.045876183
-0.0052914051
0.050335936