/*--------------------------------*- C++ -*----------------------------------*\
| =========                 |                                                 |
| \\      /  F ield         | foam-extend: Open Source CFD                    |
|  \\    /   O peration     | Version:     4.1                                |
|   \\  /    A nd           | Web:         http://www.foam-extend.org         |
|    \\/     M anipulation  |                                                 |
\*---------------------------------------------------------------------------*/
FoamFile
{
    version     2.0;
    format      ascii;
    class       surfaceScalarField;
    location    "0.9";
    object      phi;
}
// * * * * * * * * * * * * * * * * * * * * * * * * * * * * * * * * * * * * * //

dimensions      [0 3 -1 0 0 0 0];

internalField   nonuniform List<scalar> 
6703
(
5.4905799e-06
7.4342184e-06
-1.2924798e-05
9.9673077e-06
2.7104291e-05
-3.1581019e-05
1.3451742e-05
5.6299116e-05
-5.978355e-05
1.4904303e-05
9.7764889e-05
-9.921745e-05
1.2358747e-05
0.00015419781
-0.00015165225
2.823327e-06
0.00022760934
-0.00021807392
-1.7444823e-05
0.00031853556
-0.00029826741
-5.1539077e-05
0.00042475809
-0.00039066383
-0.00010069662
0.00054203493
-0.00049287739
-0.00016389453
0.00066668996
-0.00060349205
-0.00023867161
0.00079842261
-0.00072364554
-0.0003229645
0.00094116283
-0.00085686994
-0.00041632785
0.0011012592
-0.0010078959
-0.00051999025
0.0012853333
-0.0011816709
-0.00063642071
0.001500064
-0.0013836335
0.0017537009
-0.0016216332
-0.00076848839
2.3028363e-07
7.2039347e-06
9.3403922e-07
2.6400535e-05
2.082104e-06
5.5151051e-05
3.3926307e-06
9.6454362e-05
4.1105783e-06
0.00015347986
2.7056016e-06
0.00022901432
-3.3550609e-06
0.00032459622
-1.7983839e-05
0.00043938687
-4.5679271e-05
0.00056973036
-8.9969734e-05
0.00071098043
-0.00015210231
0.00086055518
-0.00023135276
0.0010204133
-0.00032722314
0.0011971296
-0.00044051365
0.0013986238
-0.00057319116
0.0016327415
0.0019074009
-0.00072689123
4.8481277e-07
6.719122e-06
2.1084419e-06
2.4776906e-05
5.1622772e-06
5.2097215e-05
9.7909858e-06
9.1825653e-05
1.5796609e-05
0.00014747424
2.2368489e-05
0.00022244244
2.7799831e-05
0.00031916488
2.9177026e-05
0.00043800967
2.2376546e-05
0.00057653084
3.114555e-06
0.00073024242
-3.1598081e-05
0.00089526782
-8.2646423e-05
0.0010714616
-0.00014984196
0.0012643251
-0.00023346382
0.0014822457
-0.00033474718
0.0017340249
0.0020296294
-0.00045697564
8.967186e-07
5.8224034e-06
3.9710655e-06
2.170256e-05
9.950308e-06
4.6117973e-05
1.9505357e-05
8.2270604e-05
3.3019721e-05
0.00013395987
5.0254022e-05
0.00020520813
6.9943648e-05
0.00029947526
8.9444198e-05
0.00041850912
0.0001046809
0.00056129414
0.00011084657
0.00072407674
0.00010384465
0.00090226974
8.158978e-05
0.0010937165
4.4369672e-05
0.0013015453
-6.7902251e-06
0.0015334056
-7.1523431e-05
0.0017987581
0.0021071653
-0.00014905936
1.2110366e-06
4.6113668e-06
5.4577937e-06
1.7455802e-05
1.391822e-05
3.7657546e-05
2.7855623e-05
6.8333202e-05
4.8382165e-05
0.00011343333
7.6070401e-05
0.0001775199
0.00011043651
0.00026510915
0.00014942315
0.00037952248
0.00018914766
0.00052156963
0.00022430354
0.00068892087
0.00024942344
0.00087714984
0.00026058695
0.001082553
0.00025667389
0.0013054583
0.00023868111
0.0015513984
0.0002077273
0.0018297119
0.0021518976
0.000162995
1.371992e-06
3.2393748e-06
6.2810823e-06
1.2546712e-05
1.62734e-05
2.7665228e-05
3.3174261e-05
5.1432341e-05
5.8894295e-05
8.7713297e-05
9.5033016e-05
0.00014138118
0.00014226189
0.00021788027
0.00019960004
0.00032218433
0.00026387328
0.00045729639
0.00032976826
0.00062302588
0.00039079646
0.00081612165
0.00044104866
0.0010323008
0.00047704501
0.001269462
0.00049832728
0.0015301161
0.0005063953
0.0018216439
0.002154555
0.00050373796
1.372544e-06
1.8668308e-06
6.3820978e-06
7.5371584e-06
1.6793921e-05
1.7253405e-05
3.4855647e-05
3.3370615e-05
6.3204393e-05
5.936455e-05
0.00010454763
0.00010003794
0.00016102469
0.00016140322
0.00023328611
0.00024992292
0.00031958091
0.00037100159
0.0004153547
0.00052725209
0.00051379702
0.00071767933
0.00060739243
0.00093870537
0.00069001111
0.0011868433
0.00075847745
0.0014616498
0.0008126546
0.0017674667
0.0021136333
0.00085357631
1.2154698e-06
6.5136099e-07
5.7507139e-06
3.0019143e-06
1.5391267e-05
7.6128523e-06
3.257009e-05
1.6191792e-05
6.0421046e-05
3.1513593e-05
0.00010263494
5.7824046e-05
0.00016294367
0.00010109448
0.00024412398
0.00016874261
0.00034670225
0.00026842332
0.00046794442
0.00040600992
0.00060180112
0.00058382263
0.00074005329
0.00080045321
0.00087432667
0.0010525699
0.00099819531
0.0013377811
0.0011084453
0.0016572167
0.0020172056
0.001204873
9.2875297e-07
-2.7739199e-07
4.4927231e-06
-5.6205584e-07
1.2283753e-05
-1.7817776e-07
2.6623283e-05
1.8522631e-06
5.0762129e-05
7.374747e-06
8.8962632e-05
1.9623543e-05
0.00014625253
4.3804585e-05
0.00022771802
8.7277118e-05
0.00033702957
0.00015911177
0.00047460759
0.0002684319
0.00063670039
0.00042172984
0.00081587324
0.00062128035
0.0010026905
0.0008657526
0.0011879826
0.001152489
0.0013649719
0.0014802274
0.0018523001
0.0015298774
5.5237082e-07
-8.297628e-07
2.7698765e-06
-2.7795615e-06
7.8190573e-06
-5.2273585e-06
1.7542427e-05
-7.8711069e-06
3.4803897e-05
-9.8867229e-06
6.3898784e-05
-9.4713439e-06
0.00011082855
-3.1251849e-06
0.00018282845
1.5277219e-05
0.00028677996
5.5160266e-05
0.0004267983
0.00012841356
0.00060371426
0.00024481388
0.00081302069
0.00041197392
0.0010459366
0.00063283672
0.0012918623
0.00090656333
0.0015423158
0.0012297739
0.0015980208
0.0017965951
1.0567161e-07
-9.3543441e-07
6.4567325e-07
-3.3195631e-06
2.133808e-06
-6.7154933e-06
5.5572723e-06
-1.1294571e-05
1.2735247e-05
-1.7064698e-05
2.690757e-05
-2.3643666e-05
5.3572592e-05
-2.9790207e-05
0.00010126295
-3.2413141e-05
0.00018172894
-2.5305722e-05
0.00030785402
2.2884746e-06
0.00048613465
6.653325e-05
0.00071287263
0.00018523594
0.00097726268
0.00036844667
0.0012672481
0.00061657791
0.001570839
0.00092618296
0.0012874661
0.0018813938
6.4669684e-07
-1.5821312e-06
9.5330436e-07
-3.6261706e-06
1.030725e-06
-6.792914e-06
1.1544044e-06
-1.1418251e-05
2.0591921e-06
-1.7969486e-05
5.3466824e-06
-2.6931157e-05
1.4182344e-05
-3.8625868e-05
3.4579555e-05
-5.2810353e-05
7.7075057e-05
-6.7801224e-05
0.00015791333
-7.8549802e-05
0.00029622725
-7.1780668e-05
0.00050067435
-1.9211151e-05
0.00073140533
0.00013771568
0.00098187562
0.00036610763
0.0012427212
0.00066533741
0.0010291719
0.0015010153
-5.891893e-06
-7.1125034e-06
1.3004396e-05
-1.2101867e-05
-2.5603419e-05
3.1813393e-05
-1.9902036e-05
-5.2425588e-05
6.0225758e-05
-3.0356201e-05
-8.9417597e-05
9.9871761e-05
-4.4770829e-05
-0.0001379853
0.00015239993
-6.4760091e-05
-0.00019858085
0.00021857011
-9.2291031e-05
-0.00027027599
0.00029780693
-0.00012956013
-0.00035084858
0.00038811768
-0.00017849469
-0.00043776313
0.0004866977
-0.00024045799
-0.00052981313
0.00059177643
-0.00031632699
-0.00062826008
0.00070412908
-0.00040663179
-0.00073644892
0.00082675372
-0.00051175511
-0.00085843032
0.00096355363
-0.00063224824
-0.00099794556
0.0011184387
-0.00076986393
-0.0011581328
0.0012957485
-0.0013420418
0.0015036666
-0.00093148866
-1.1320858e-06
-5.9804177e-06
-5.2334357e-06
-2.1502069e-05
-1.3644681e-05
-4.4014343e-05
-2.7982913e-05
-7.5079365e-05
-5.0117356e-05
-0.00011585086
-8.2092362e-05
-0.00016660585
-0.00012598335
-0.000226385
-0.00018367912
-0.0002931528
-0.00025667394
-0.00036476832
-0.00034609711
-0.00044038995
-0.00045310994
-0.00052124726
-0.00057943297
-0.00061012588
-0.00072764285
-0.00071022044
-0.00090112411
-0.0008244643
-0.0011035656
-0.00095569133
-0.0011074744
-0.001338133
-1.3019747e-06
-4.678443e-06
-5.9789987e-06
-1.6825045e-05
-1.556189e-05
-3.4431452e-05
-3.1950255e-05
-5.8690999e-05
-5.733901e-05
-9.0462104e-05
-9.4051652e-05
-0.0001298932
-0.00014428559
-0.00017615106
-0.00020985836
-0.00022758004
-0.0002921236
-0.00028250308
-0.00039219366
-0.00034031989
-0.00051139471
-0.00040204621
-0.0006516821
-0.0004698385
-0.00081581696
-0.00054608557
-0.0010073481
-0.00063293314
-0.0012307401
-0.00073229937
-0.00084561856
-0.0014925959
-1.5276331e-06
-3.1508098e-06
-7.0073564e-06
-1.1345322e-05
-1.8171286e-05
-2.3267522e-05
-3.7084174e-05
-3.9778112e-05
-6.603155e-05
-6.1514727e-05
-0.00010730244
-8.8622314e-05
-0.00016292216
-0.00012053134
-0.00023446867
-0.00015603353
-0.00032313576
-0.00019383599
-0.00043008023
-0.00023337543
-0.00055686274
-0.00027526369
-0.00070572272
-0.00032097852
-0.00087962898
-0.00037217932
-0.0010822328
-0.00043032936
-0.0013174294
-0.00049710278
-0.00057565943
-0.0015873885
-1.6381082e-06
-1.5127016e-06
-7.4473771e-06
-5.5360532e-06
-1.9219403e-05
-1.1495495e-05
-3.9113955e-05
-1.988356e-05
-6.9510104e-05
-3.1118578e-05
-0.00011277832
-4.5354097e-05
-0.00017102751
-6.2282152e-05
-0.00024597666
-8.1084382e-05
-0.00033907579
-0.00010073686
-0.00045182583
-0.00012062539
-0.0005860943
-0.00014099522
-0.0007442749
-0.00016279791
-0.00092929365
-0.00018716057
-0.0011446617
-0.00021496127
-0.0013956201
-0.00024614443
-0.00027822743
-0.0016930521
4.9185049e-07
6.7120599e-06
-7.2039104e-06
2.140293e-06
2.475347e-05
-2.6401913e-05
5.2436761e-06
5.2053432e-05
-5.5156816e-05
9.9541449e-06
9.1759439e-05
-9.6469907e-05
1.6080532e-05
0.00014738766
-0.00015351405
2.2816374e-05
0.00022234429
-0.00022908013
2.8453919e-05
0.00031907362
-0.00032471116
3.0090375e-05
0.00043795816
-0.00043959462
2.3598e-05
0.00057655996
-0.00057006758
4.6848921e-06
0.00073038927
-0.00071147616
-2.9646181e-05
0.00089553895
-0.00086120788
-8.0294125e-05
0.0010717765
-0.0010211285
-0.00014708222
0.0012644744
-0.0011976863
-0.00023031988
0.0014819756
-0.0013987379
-0.00033115004
0.0017330497
-0.0016322195
0.0020279267
-0.0019063189
-0.00045275787
-1.511869e-06
-8.3264661e-10
-7.0459485e-06
-1.9735897e-09
-1.8538633e-05
-2.8105172e-09
-3.8418725e-05
-3.4685071e-09
-6.9533384e-05
-3.9191452e-09
-0.00011488299
-4.494867e-09
-0.00017715898
-6.1543102e-09
-0.00025823294
-1.0425903e-08
-0.00035895086
-1.8936137e-08
-0.00047954294
-3.3312169e-08
-0.00062048189
-5.626117e-08
-0.0007831874
-9.2407268e-08
-0.00097020114
-1.4683431e-07
-0.0011849362
-2.2622109e-07
-0.0014307179
-3.6274136e-07
-6.7480483e-07
-0.0017082705
-1.5204052e-06
1.5195726e-06
-7.0824486e-06
5.5600698e-06
-1.8628706e-05
1.1543447e-05
-3.8595118e-05
1.9962944e-05
-6.9835226e-05
3.1236189e-05
-0.00011535356
4.5513838e-05
-0.00017784198
6.2482268e-05
-0.00025916733
8.1314922e-05
-0.00036016395
0.00010097768
-0.00048104029
0.00012084303
-0.00062223258
0.00014113602
-0.0007851021
0.00016277711
-0.00097209231
0.00018684338
-0.0011864401
0.00021412161
-0.001431296
0.00024449317
0.00027609005
-0.0017080609
-1.6446246e-06
3.1641971e-06
-7.4757772e-06
1.1391222e-05
-1.9289943e-05
2.3357613e-05
-3.9251873e-05
3.9924874e-05
-6.9744754e-05
6.172907e-05
-0.00011314112
8.8910202e-05
-0.00017154827
0.00012088942
-0.00024667765
0.0001564443
-0.00033996264
0.00019426267
-0.0004528751
0.00023375549
-0.0005872371
0.00027549803
-0.00074537535
0.00032091536
-0.00093012736
0.0003715954
-0.0011448952
0.00042888947
-0.0013945689
0.00049416687
0.00056981669
-0.0016882956
-1.5183111e-06
4.6825082e-06
-6.9662928e-06
1.6839204e-05
-1.8068738e-05
3.4460058e-05
-3.6883456e-05
5.8739592e-05
-6.5691141e-05
9.0536756e-05
-0.0001067792
0.00012999827
-0.00016217315
0.00017628336
-0.00023344664
0.00022771779
-0.00032177435
0.00028259039
-0.00042827034
0.00034025148
-0.00055442881
0.00040165649
-0.00070240885
0.0004688954
-0.00087510923
0.00054429578
-0.001076195
0.00062997523
-0.0013097704
0.00072774232
0.00083794956
-0.0015779033
-1.2871565e-06
5.9696647e-06
-5.9143799e-06
2.1466428e-05
-1.5401038e-05
4.3946716e-05
-3.1634646e-05
7.49732e-05
-5.6799443e-05
0.00011570155
-9.3210968e-05
0.00016640979
-0.000143061
0.00022613339
-0.0002081601
0.0002928169
-0.00028984744
0.00036427772
-0.00038921003
0.00043961408
-0.0005075477
0.00051999417
-0.00064681917
0.00060816687
-0.00080986065
0.00070733726
-0.0010004084
0.00082052296
-0.0012237083
0.00095104228
0.0011053326
-0.0014910914
-1.1286776e-06
7.0983423e-06
-5.216863e-06
2.5554613e-05
-1.3599842e-05
5.2329695e-05
-2.7888017e-05
8.9261375e-05
-4.9942833e-05
0.00013775637
-8.1801361e-05
0.00019826832
-0.00012553539
0.00026986742
-0.00018303879
0.0003503203
-0.00025582591
0.00043706484
-0.00034507111
0.00052885929
-0.00045202632
0.00062694937
-0.00057859291
0.00073473347
-0.00072771507
0.00085645942
-0.00090352483
0.00099633273
-0.001110715
0.0011582324
0.0013449796
-0.0013503619
-5.8905018e-06
1.2988844e-05
-1.210785e-05
3.1771961e-05
-1.9923089e-05
6.0144934e-05
-3.0398863e-05
9.9737149e-05
-4.4839619e-05
0.00015219712
-6.4857361e-05
0.00021828606
-9.2419166e-05
0.00029742922
-0.00012972714
0.00038762827
-0.00017872484
0.00048606254
-0.00024081234
0.00059094679
-0.0003169258
0.00070306283
-0.00040767775
0.00082548542
-0.00051352211
0.00096230378
-0.0006349061
0.0011177167
-0.00077288933
0.0012962157
0.0015041805
-0.00093209026
6.4237959e-07
9.3234116e-07
-1.5747208e-06
9.4300752e-07
3.3107374e-06
-3.6113653e-06
1.0107048e-06
6.7030903e-06
-6.7707876e-06
1.1158958e-06
1.1286584e-05
-1.1391775e-05
1.9820732e-06
1.7080496e-05
-1.7946673e-05
5.1860473e-06
2.372415e-05
-2.6928124e-05
1.3842594e-05
3.0016018e-05
-3.8672564e-05
3.3864148e-05
3.2939063e-05
-5.2960617e-05
7.5656307e-05
2.6365087e-05
-6.8157246e-05
0.0001553448
-3.563855e-07
-7.9332107e-05
0.00029209909
-6.3357322e-05
-7.3396973e-05
0.00049503282
-0.00018049805
-2.2435677e-05
0.00072526641
-0.00036220576
0.00013197218
0.00097476816
-0.0006084758
0.00035897404
0.0012328614
-0.00091508379
0.00065699053
-0.0012720059
0.0010150595
0.0014898078
1.0039453e-07
8.3194663e-07
6.19859e-07
2.7912729e-06
2.0632895e-06
5.2596598e-06
5.4054557e-06
7.9444175e-06
1.2448906e-05
1.0037046e-05
2.6413051e-05
9.7600046e-06
5.2778309e-05
3.65076e-06
0.00010008867
-1.4371295e-05
0.00018015525
-5.3701492e-05
0.00030607645
-0.00012627759
0.00048461031
-0.00024189118
0.00071235093
-0.00040823867
0.00097853285
-0.00062838769
0.0012716938
-0.00090163674
0.0015816419
-0.0012250319
-0.0015964105
0.0019060465
5.4661206e-07
2.8533457e-07
2.7432405e-06
5.946445e-07
7.7490811e-06
2.538192e-07
1.7397463e-05
-1.7039639e-06
3.4542342e-05
-7.1078334e-06
6.3472985e-05
-1.9170639e-05
0.00011020059
-4.3076843e-05
0.00018201105
-8.6181756e-05
0.00028585761
-0.00015754805
0.00042591374
-0.00026633373
0.00060311338
-0.00041909082
0.00081303333
-0.00061815861
0.0010469023
-0.00086225664
0.0012940268
-0.0011487612
0.001545446
-0.0014764511
-0.0018485891
0.0017976246
9.2365033e-07
-6.3831575e-07
4.4697957e-06
-2.9515009e-06
1.222576e-05
-7.502145e-06
2.6509349e-05
-1.5987553e-05
5.0570817e-05
-3.1169302e-05
8.867945e-05
-5.7279271e-05
0.00014588165
-0.00010027905
0.00022728887
-0.00016758897
0.00033662692
-0.0002668861
0.00047437774
-0.00040408455
0.00063683748
-0.00058155056
0.00081658354
-0.00079790468
0.0010041325
-0.0010498056
0.0011901751
-0.0013348038
0.0013676577
-0.0016539337
-0.0020134037
0.0015324723
1.2119245e-06
-1.8502402e-06
5.7355925e-06
-7.4751689e-06
1.5355037e-05
-1.7121589e-05
3.2503406e-05
-3.3135922e-05
6.0319197e-05
-5.8985093e-05
0.00010250554
-9.9465612e-05
0.00016281761
-0.00016059112
0.0002440666
-0.00024883797
0.00034681927
-0.00036963877
0.00046837654
-0.00052564181
0.00060270478
-0.0007158788
0.00074156766
-0.00093676756
0.00087652731
-0.0011847652
0.0010010442
-0.0014593208
0.0011117565
-0.0017646459
-0.0021100641
0.0012084168
1.3711771e-06
-3.2214173e-06
6.377331e-06
-1.2481323e-05
1.6785506e-05
-2.7529764e-05
3.4848009e-05
-5.1198425e-05
6.3211443e-05
-8.7348527e-05
0.00010459947
-0.00014085364
0.00016117487
-0.00021716652
0.00023361642
-0.00032127952
0.00032019986
-0.0004562222
0.00041638734
-0.00062182929
0.00051536561
-0.00081485707
0.00060958774
-0.0010309897
0.00069285832
-0.0012680358
0.00076191993
-0.0015283824
0.00081657281
-0.0018192988
-0.0021514703
0.000857979
1.3732789e-06
-4.5946962e-06
6.2884474e-06
-1.7396491e-05
1.62963e-05
-3.7537617e-05
3.3229928e-05
-6.8132053e-05
5.9011909e-05
-0.00011313051
9.5258256e-05
-0.00017709999
0.00014266025
-0.00026456851
0.00020025675
-0.00037887602
0.00026488802
-0.00052085347
0.00033124399
-0.00068818527
0.0003928222
-0.00087643528
0.00044367553
-0.001081843
0.00048026241
-0.0013046227
0.00050207314
-0.0015501931
0.00051057395
-0.0018277996
-0.0021492431
0.00050834679
1.2148727e-06
-5.8095689e-06
5.4764147e-06
-2.1658033e-05
1.3969173e-05
-4.6030376e-05
2.7965728e-05
-8.2128607e-05
4.8590363e-05
-0.00013375514
7.6429809e-05
-0.00020493943
0.0001110145
-0.0002991532
0.00015029881
-0.00041816033
0.00019040536
-0.00056096002
0.00022602286
-0.00072380277
0.00025166623
-0.00090207866
0.00026337926
-0.001093556
0.00025999399
-0.0013012374
0.00024249296
-0.0015326921
0.00021200302
-0.0017973097
-0.0021051103
0.00016787018
9.0249101e-07
3.997928e-06
1.0020984e-05
1.9651816e-05
3.3284331e-05
5.068919e-05
7.0609606e-05
9.0407433e-05
0.00010600737
0.00011259388
0.00010605417
8.4274589e-05
4.7511554e-05
-3.2049328e-06
-6.7464946e-05
-0.00014464848
2.3690663e-07
-7.440817e-06
9.628699e-07
-2.7127876e-05
2.1539509e-06
-5.6347897e-05
3.5339687e-06
-9.7849925e-05
4.3526954e-06
-0.00015433277
3.0824793e-06
-0.00022780992
-2.8106377e-06
-0.00031881805
-1.7237243e-05
-0.00042516801
-4.4699465e-05
-0.00054260536
-8.8724935e-05
-0.00066745069
-0.00015055825
-0.00079937457
-0.0002294643
-0.00094222247
-0.00032495208
-0.0011021985
-0.00043789067
-0.0012857993
-0.00057036514
-0.001499745
-0.0017523966
-0.0007242874
5.4993886e-06
-1.2940206e-05
9.9934195e-06
-3.1621907e-05
1.3508643e-05
-5.986312e-05
1.5008503e-05
-9.9349785e-05
1.2527256e-05
-0.00015185153
3.0704585e-06
-0.00021835312
-1.7108731e-05
-0.00029863886
-5.1130622e-05
-0.00039114612
-0.00010023297
-0.00049350301
-0.00016337947
-0.0006043042
-0.00023807937
-0.00072467466
-0.00032224085
-0.00085806099
-0.00041543609
-0.0010090033
-0.00051902133
-0.0011822141
-0.00063553489
-0.0013832315
-0.001620773
-0.00076715852
-7.8427245e-07
-8.0014419e-07
1.5844166e-06
-1.3865515e-06
-3.0310798e-06
3.6333588e-06
-1.6645996e-06
-6.5337218e-06
6.8117698e-06
-1.2976806e-06
-1.1836134e-05
1.1469215e-05
2.1071656e-07
-1.9614998e-05
1.8106601e-05
3.5969594e-06
-3.0668115e-05
2.7281872e-05
9.918119e-06
-4.5792305e-05
3.9471146e-05
2.0689603e-05
-6.5523891e-05
5.4752408e-05
3.819256e-05
-8.9621022e-05
7.2118065e-05
6.6357427e-05
-0.0001161977
8.8032832e-05
0.00011329482
-0.00014029855
9.3361157e-05
0.00019646046
-0.00015082626
6.766062e-05
0.00036749726
-0.00012300792
-4.802888e-05
0.00062346179
-2.0451105e-05
-0.00023551343
0.00093337043
0.00018127277
-0.00049118141
0.00047929118
-0.00081056986
0.0012646491
2.8991573e-07
-1.0900599e-06
1.3490264e-06
-4.0901904e-06
3.5546557e-06
-8.739351e-06
7.4002706e-06
-1.5681749e-05
1.3501558e-05
-2.5716285e-05
2.2579228e-05
-3.9745784e-05
3.542499e-05
-5.8638068e-05
5.2852341e-05
-8.2951243e-05
7.5738341e-05
-0.00011250702
0.00010540214
-0.0001458615
0.00014487419
-0.0001797706
0.00020266109
-0.00020861316
0.00030308753
-0.00022343436
0.00049169503
-0.0002090586
0.00079690714
-0.00012393934
6.413368e-05
0.0012120646
3.5512775e-07
-1.4451877e-06
1.5932097e-06
-5.3282723e-06
4.054668e-06
-1.1200809e-05
8.1163976e-06
-1.9743479e-05
1.4136229e-05
-3.1736116e-05
2.2367555e-05
-4.797711e-05
3.2851754e-05
-6.9122266e-05
4.5317077e-05
-9.5416567e-05
5.9202997e-05
-0.00012639294
7.3966021e-05
-0.00016062452
8.9906965e-05
-0.00019571155
0.00010981607
-0.00022852226
0.00014168616
-0.00025530446
0.00020305466
-0.0002704271
0.00033975057
-0.00026063525
-0.00018866092
0.00059254517
7.5591625e-08
-1.5207793e-06
2.724174e-07
-5.5250981e-06
5.434453e-07
-1.1471837e-05
7.6318723e-07
-1.9963221e-05
6.5301822e-07
-3.1625947e-05
-3.0445369e-07
-4.7019638e-05
-2.9546893e-06
-6.6472031e-05
-8.5189524e-06
-8.9852303e-05
-1.850996e-05
-0.00011640193
-3.4384009e-05
-0.00014475047
-5.6826089e-05
-0.00017326947
-8.4718578e-05
-0.00020062977
-0.00011389298
-0.00022613006
-0.00013483679
-0.00024948329
-0.00012530654
-0.0002701655
-0.00028589079
-2.8076669e-05
-4.8824578e-07
-1.0325335e-06
-2.2521226e-06
-3.7612213e-06
-5.9112905e-06
-7.8126693e-06
-1.2297642e-05
-1.3576869e-05
-2.2484953e-05
-2.1438637e-05
-3.7825652e-05
-3.167894e-05
-5.9978446e-05
-4.4319237e-05
-9.0877591e-05
-5.8953158e-05
-0.0001325816
-7.4697921e-05
-0.00018690148
-9.0430598e-05
-0.00025488785
-0.0001052831
-0.00033648681
-0.00011903081
-0.00043062963
-0.00013198724
-0.00053564704
-0.00014446587
-0.00064936617
-0.00015644636
-0.00016877026
-0.0007664867
-1.0010746e-06
-3.1458905e-08
-4.653076e-06
-1.0921991e-07
-1.2244701e-05
-2.2104438e-07
-2.544411e-05
-3.7745917e-07
-4.6298989e-05
-5.8375809e-07
-7.7141728e-05
-8.3620015e-07
-0.00012034712
-1.1138485e-06
-0.00017792927
-1.371008e-06
-0.00025108901
-1.5381738e-06
-0.00033997843
-1.5411823e-06
-0.00044392289
-1.3386376e-06
-0.00056199286
-9.608359e-07
-0.00069344361
-5.3648828e-07
-0.00083760082
-3.0867166e-07
-0.00099355782
-4.8936583e-07
-3.5478302e-07
-0.0011619733
-1.041082e-06
1.0096231e-06
-4.817801e-06
3.6674991e-06
-1.2645854e-05
7.6070091e-06
-2.6234089e-05
1.3210775e-05
-4.7676435e-05
2.0858588e-05
-7.9353146e-05
3.0840511e-05
-0.00012368244
4.3215449e-05
-0.00018271201
5.7658557e-05
-0.00025766792
7.341774e-05
-0.00034873477
8.9525669e-05
-0.00045530465
0.00010523124
-0.00057657192
0.00012030643
-0.00071199842
0.00013489001
-0.00086124907
0.00014894198
-0.0010233787
0.00016164029
0.00017103837
-0.0011947719
-5.0091529e-07
1.5105384e-06
-2.3190032e-06
5.485587e-06
-6.0949593e-06
1.1382965e-05
-1.2677713e-05
1.9793528e-05
-2.3150955e-05
3.1331831e-05
-3.8857718e-05
4.6547274e-05
-6.1406774e-05
6.5764505e-05
-9.2627061e-05
8.8878845e-05
-0.00013440858
0.00011519926
-0.00018835086
0.00014346795
-0.00025529452
0.0001721749
-0.00033500774
0.00020001965
-0.00042621254
0.00022609481
-0.00052676057
0.00024949002
-0.00063385541
0.00026873513
0.00028270806
-0.0007455251
7.078985e-08
1.4397485e-06
2.5045021e-07
5.3059267e-06
4.8371027e-07
1.1149705e-05
6.3142402e-07
1.9645815e-05
3.9745837e-07
3.1565797e-05
-7.5355656e-07
4.7698289e-05
-3.6762363e-06
6.8687185e-05
-9.5750495e-06
9.4777658e-05
-1.989921e-05
0.00012552342
-3.5986254e-05
0.00015955499
-5.8379627e-05
0.00019456827
-8.5894778e-05
0.0002275348
-0.00011456186
0.00025476189
-0.00013578408
0.00027071223
-0.0001300475
0.00026299855
0.00019860236
-4.5941796e-05
3.4438575e-07
1.0953628e-06
1.5425906e-06
4.1077218e-06
3.9203517e-06
8.771944e-06
7.835822e-06
1.5730345e-05
1.3624328e-05
2.577729e-05
2.1514907e-05
3.9807709e-05
3.1523344e-05
5.8678748e-05
4.3361297e-05
8.2939705e-05
5.646828e-05
0.00011241643
7.0322377e-05
0.0001457009
8.5250967e-05
0.00017963968
0.00010400586
0.00020877991
0.00013433457
0.00022443319
0.00019321497
0.00021183182
0.00032550642
0.0001307071
-5.2585258e-05
0.00057669404
2.9116548e-07
8.041973e-07
1.3528321e-06
3.0460552e-06
3.5592665e-06
6.5655097e-06
7.396775e-06
1.1892836e-05
1.3467377e-05
1.9706688e-05
2.2470062e-05
3.0805025e-05
3.5164761e-05
4.598405e-05
5.2326313e-05
6.5778153e-05
7.4794433e-05
8.9948314e-05
0.00010386357
0.00011663176
0.00014255136
0.0001409519
0.00019929699
0.00015203429
0.00029796937
0.0001257608
0.00048430609
2.5495096e-05
0.00078883488
-0.00017382169
-0.00046648331
0.0012027329
-7.7293529e-07
1.5771326e-06
-1.3459351e-06
3.619055e-06
-1.57147e-06
6.7910447e-06
-1.1245203e-06
1.1445886e-05
4.9236026e-07
1.8089808e-05
4.0088065e-06
2.7288578e-05
1.0462567e-05
3.9530289e-05
2.1329882e-05
5.4910837e-05
3.882246e-05
7.2455737e-05
6.6750228e-05
8.8703988e-05
0.00011305625
9.4645878e-05
0.00019493199
7.0158545e-05
0.00036388877
-4.3195976e-05
0.00061857094
-0.00022918708
0.00092867035
-0.00048392109
-0.00080189327
0.0012640803
2.5498765e-07
-6.4045807e-08
6.1637207e-07
1.1360715e-06
1.6809455e-06
1.8930873e-06
1.0549003e-06
-1.9806634e-06
-8.7955134e-06
-2.1340773e-05
-4.1923478e-05
-7.3307998e-05
-0.00011890011
-0.00018285431
-0.00027027219
-0.00038772486
2.5567692e-07
-6.4190866e-08
6.1831422e-07
1.1402902e-06
1.6886953e-06
1.9056901e-06
1.0737653e-06
-1.95468e-06
-8.7599933e-06
-2.1287764e-05
-4.1833343e-05
-7.3140608e-05
-0.00011859027
-0.00018236565
-0.00026984866
-0.0003869551
1.0101519e-08
-2.4118552e-09
3.0358638e-08
8.4470378e-08
2.2760489e-07
5.8805876e-07
1.4457841e-06
3.3960041e-06
7.6944952e-06
1.7066377e-05
3.8315281e-05
8.603815e-05
0.00017481435
0.00030460132
0.00047767076
0.00069083699
9.4736596e-09
-2.2854093e-09
2.8329545e-08
7.9294523e-08
2.1640963e-07
5.6712485e-07
1.4124022e-06
3.3544575e-06
7.6712987e-06
1.7154328e-05
3.8734818e-05
8.7184286e-05
0.00017687109
0.00030746529
0.00048162128
0.00070022333
0.0013229711
-0.0040861505
0.0027631793
0.0070511306
-0.0074050537
0.00035392314
0.0011183722
-0.003176559
0.0020581868
0.0070511306
-0.0019792841
0.00056329768
0.0014159864
-0.0084303821
0.0050360214
0.0033943607
-0.0012515834
0.0044940941
-0.0032425106
0.007376462
0.0031814555
-0.010557918
0.007677963
0.0022485175
-0.0099264804
0.0013286714
-0.0017163963
-0.0019193246
0.0015323695
0.0035520413
0.0067145363
-0.010266578
-0.0036337272
-0.0038332182
0.0074669454
-0.0084286229
0.0037666991
0.0046619238
-0.0016010215
0.0040610757
-0.0024600542
0.0044737719
-0.00043324108
-0.0040405308
0.0077080852
-0.0079416615
0.00023357633
0.00033050886
0.0022380624
-0.0025685712
0.0010011985
-0.0017654247
0.00076422621
0.0065729087
-0.002257932
-0.0043149767
-0.0011779773
-0.00080130677
-0.0076987847
0.0040650574
-0.0094460021
0.0095195217
-7.3519556e-05
0.0007775257
0.0085265931
-0.0093041188
5.0863786e-05
-0.0056990904
0.0056482266
0.0049438869
0.00097858714
-0.005922474
-0.0041116421
-0.0061908792
0.010302521
0.0066788374
-0.0020705915
-0.0046082459
0.0014843033
0.0070418674
-0.0085261707
-0.0026584799
0.0059002146
-0.0032417347
0.0068661478
-0.0019222609
0.0020025281
-0.0015131048
-0.00048942325
-0.00021173102
0.0086143237
-0.0084025927
0.007016583
-1.6683042e-05
-0.0069999
0.0010705393
-0.0061471398
0.0050766006
0.0088766922
-0.0075089385
-0.0013677537
0.0078627221
-0.0083472418
0.00048451973
-0.0048015222
0.0058720615
0.0057772769
-0.0034674031
-0.0023098738
-0.0090092251
0.0017186532
0.0072905719
0.001078659
-0.0022355975
0.0011569385
0.010269481
-0.0044443433
-0.0058251378
0.007376462
-0.0026852007
0.0059464079
-0.0032612072
0.007677963
-0.00081446505
0.0036725843
-0.0028581193
-0.0022115406
0.0070992319
-0.0048876914
-0.0098407297
0.0041792309
0.0056614988
-0.007376462
0.011099737
-0.0037232751
-0.007677963
0.01118933
-0.0035113672
0.0038910156
-0.00118841
-0.0027026056
-0.0037924843
0.0016915186
0.0021009656
0.0013482061
-0.0026703818
0.0013221757
0.00086178801
0.0013015742
-0.0021633622
-0.003893735
0.0063571938
-0.0024634588
0.00061397435
0.0062111579
-0.0068251323
0.000873247
-0.0019533078
0.0010800608
-0.0055872168
0.0036068309
0.0019803858
-0.010553998
0.0012112324
0.0093427654
0.0092618211
-0.0035800217
-0.0056817994
0.0082916738
0.00097014731
0.0054529991
0.0043761934
-0.0098291924
0.0050847082
0.0046348513
-0.0097195595
-0.0024669026
0.005224622
-0.0027577194
0.00030344005
-0.0043922919
0.0040888518
-0.0068389837
0.0071832458
-0.00034426212
0.0042226738
-0.0080658236
0.0038431498
0.0046190853
0.0023465483
-0.0069656336
-0.0011745884
0.0065567274
-0.005382139
-0.0095836745
0.0073721339
-0.0027835363
0.0068369675
-0.0040534312
0.0022678709
0.0022059009
-0.0046138752
0.0039974387
0.0006164365
0.0049417643
0.0062539805
-0.011195745
0.0086014663
-0.0079698357
-0.00063163063
0.00055399788
-0.0033776182
0.0059522827
-0.0025746645
0.00675969
-0.0029308765
-0.0038288135
0.0093725011
-0.0084620396
-0.00091046143
0.0080185141
-0.0070313087
-0.00098720541
0.0031105811
-0.0048622114
0.0017516303
-0.0025115218
0.00068139285
0.001830129
0.0010696872
-0.0037281671
-0.0099158893
0.0067915549
0.0031243345
0.0024596311
0.0052484541
0.0025721535
-0.0096855291
0.0071133755
-0.0045796822
0.0077111197
-0.0031314375
-0.00099716873
-0.0062233016
0.0072204703
0.0033305213
-0.0021021215
-0.0012283998
0.00045239627
0.0081490701
0.0058121775
0.00038712567
-0.0061993032
-0.0078280615
0.0029000064
0.0049280551
0.00055725118
0.0035882049
-0.0041454561
0.0031708146
0.0026064623
0.0044028893
0.0024743221
-0.0068772114
0.0046163508
-0.0018438512
-0.0027724996
-0.0048540485
-0.0054652984
0.0030149965
-0.0018966242
-0.00046107579
-0.0020390785
0.0025001543
-0.0029538721
0.0056790283
-0.0027251562
-0.003107646
0.0080494103
-0.0058908709
0.0077694954
-0.0018786245
-0.0063641508
-0.0014639108
-8.6859722e-05
0.0079495818
0.0088402688
-0.0081395804
-0.00070068841
-0.0055320018
-0.002896621
-0.011383309
0.0074665208
0.0039167886
-0.0096428385
0.0068307738
0.0028120647
0.0059358179
-0.0025595055
-0.0033763124
0.0010895532
-0.0037747539
0.0017324486
-0.0056261835
-2.6960304e-05
0.0042676598
-0.0042406995
0.0031799499
-0.0043545382
-0.002442578
0.003521237
0.0017846164
0.0047882924
0.0063987805
0.0029737206
0.0038187574
-0.0038457177
0.0030747905
0.0072856117
-0.010360402
0.010229271
-0.0057786185
-0.0044506522
-0.0022552652
0.0048163431
-0.0025610779
-0.00015739271
0.0015055989
0.0020099136
-0.0011481255
0.00018620047
-0.00022039367
3.4193198e-05
0.0094119856
-0.0096237166
0.00040683672
0.00071111859
-0.0011179553
-0.00085730529
9.0818589e-05
-0.007769833
0.0083457248
-0.00057589183
-0.0019447393
0.0015270073
0.00041773198
0.0046408754
-0.0045005834
-0.000140292
-0.0056080382
0.0051483096
0.00045972859
0.0018894453
-0.0010161983
-0.00058750349
0.0025273696
-0.0019398661
-0.004967935
0.0088183536
-0.0038504186
0.0035737313
0.0066957499
0.0078639147
-0.0036412409
0.0034146888
0.002521129
-0.0035008317
0.0026863666
0.0066103864
-0.0076075551
-0.0033296522
0.0028685764
0.0061610507
0.0026792181
0.0052681534
-0.010830945
0.0055627915
0.0029858213
0.0018752558
-0.0013119581
-0.004051206
0.0053741772
0.0061084835
-0.0061084835
-0.0019443182
-0.001698607
0.0075107845
0.0012731114
-0.0046507296
-0.00042229258
0.0061072874
-0.0056849948
-0.0041079213
0.0095609204
-0.0042798337
0.0093645419
0.0089714388
-0.0053112246
-0.0036602141
0.0039761537
0.0029882681
-0.0052435333