/*--------------------------------*- C++ -*----------------------------------*\
| =========                 |                                                 |
| \\      /  F ield         | foam-extend: Open Source CFD                    |
|  \\    /   O peration     | Version:     4.1                                |
|   \\  /    A nd           | Web:         http://www.foam-extend.org         |
|    \\/     M anipulation  |                                                 |
\*---------------------------------------------------------------------------*/
FoamFile
{
    version     2.0;
    format      ascii;
    class       volVectorField;
    location    "0.9";
    object      U;
}
// * * * * * * * * * * * * * * * * * * * * * * * * * * * * * * * * * * * * * //

dimensions      [0 1 -1 0 0 0 0];

internalField   nonuniform List<vector> 
4242
(
(0.056131357 0.051061753 1.3409362e-19)
(0.16976808 0.15428667 9.3443018e-22)
(0.29333724 0.26533548 -1.5322372e-19)
(0.42390589 0.38128099 1.4039741e-19)
(0.55665272 0.49699575 2.82118e-21)
(0.68484314 0.60491347 5.796069e-22)
(0.80057435 0.69575945 0)
(0.89412418 0.75867356 6.3927837e-20)
(0.95983116 0.78735347 -1.0346986e-19)
(0.99856671 0.78306574 3.8134799e-20)
(1.0168643 0.75377469 -1.7405407e-20)
(1.0231275 0.7095647 1.4305342e-20)
(1.0240757 0.65815265 5.5202401e-21)
(1.0240652 0.60340264 -9.5153312e-22)
(1.0259478 0.54698315 6.2483084e-21)
(1.0282606 0.49380787 0)
(0.061128913 0.040873558 0)
(0.18624118 0.12467987 -2.4431454e-21)
(0.32327664 0.21679144 2.9536121e-19)
(0.46947771 0.31527104 -2.6924078e-19)
(0.61990355 0.41656559 -5.0177147e-21)
(0.76710027 0.515139 1.9214704e-19)
(0.90146767 0.60344461 -1.0075727e-20)
(1.0121634 0.67213845 -2.4622741e-19)
(1.0903167 0.71257133 2.3149948e-20)
(1.1343579 0.72170444 7.052016e-20)
(1.1507306 0.70389627 0)
(1.1501768 0.66824455 -5.0641213e-21)
(1.1422796 0.62341081 -2.3451633e-21)
(1.132975 0.57454771 -1.3435366e-20)
(1.12529 0.52397748 1.5313503e-20)
(1.1186872 0.47503143 1.9933728e-21)
(0.063345802 0.031342014 -2.3922469e-22)
(0.19386865 0.096207655 -9.1424083e-19)
(0.33804442 0.16861335 4.3031944e-19)
(0.49365127 0.24756985 -3.4220568e-21)
(0.65630663 0.33090085 -3.3641265e-19)
(0.81885837 0.41487068 2.8839158e-19)
(0.97126844 0.49391365 -4.2297624e-21)
(1.1015733 0.56077437 6.7762177e-21)
(1.1987305 0.60773737 -2.1527165e-21)
(1.2572279 0.62958894 -7.89181e-21)
(1.2800934 0.62617164 7.1778796e-20)
(1.2772893 0.60311623 -5.2911288e-20)
(1.2618654 0.56855521 -6.9080134e-20)
(1.2428526 0.52833477 5.7762179e-20)
(1.224606 0.48599582 -4.2776045e-21)
(1.2084086 0.44448671 -9.3087011e-21)
(0.060320924 0.020682384 -9.9194536e-22)
(0.18612076 0.064312051 -1.1817948e-21)
(0.32715748 0.1146067 -2.6759491e-19)
(0.48222917 0.17149907 2.4927643e-19)
(0.64809028 0.23410129 -3.5377406e-21)
(0.81861774 0.30036186 1.8533177e-19)
(0.98433846 0.36663954 -1.4401239e-19)
(1.132951 0.42756791 -2.3967864e-19)
(1.2516251 0.47665177 1.4130589e-20)
(1.3311977 0.50806818 2.9630262e-19)
(1.370292 0.51905758 -1.1227511e-19)
(1.3761522 0.51146583 0)
(1.3615039 0.49068779 5.46319e-21)
(1.3378419 0.46214766 -3.9414329e-20)
(1.311824 0.42980561 1.8880761e-20)
(1.2866558 0.39870935 -3.0988801e-20)
(0.051819273 0.010575601 9.9204287e-22)
(0.1619912 0.033723127 -3.1775429e-19)
(0.28848537 0.062156229 3.0007925e-19)
(0.4316065 0.09651648 -2.0127e-21)
(0.58992693 0.13701246 5.4358286e-21)
(0.75919247 0.18315725 -1.6237027e-21)
(0.93138526 0.23326352 -1.7558801e-19)
(1.0946443 0.28404585 1.3629978e-21)
(1.2349437 0.33068536 1.0557062e-19)
(1.3398769 0.36776191 -8.0610501e-20)
(1.4032818 0.39101152 6.5662162e-20)
(1.4278828 0.3990692 0)
(1.4239405 0.3939061 3.4620907e-20)
(1.4038304 0.37910755 -2.4197873e-20)
(1.3770624 0.35799891 6.5644932e-21)
(1.3485033 0.33494473 0)
(0.039494171 0.0028811566 -1.3763667e-19)
(0.12582586 0.0099294408 8.2422626e-20)
(0.22835815 0.020405973 1.5409923e-19)
(0.34902451 0.035230483 -1.3990323e-19)
(0.48863872 0.055246102 -1.4152918e-21)
(0.64564904 0.081114577 5.4760352e-20)
(0.81469709 0.11287434 4.6370285e-20)
(0.98570522 0.14941601 -1.1346776e-21)
(1.1446202 0.18811234 -1.3283461e-21)
(1.2765589 0.22498347 -6.5977365e-20)
(1.3705994 0.25564667 6.7340176e-20)
(1.423764 0.27674187 -2.4329519e-21)
(1.4416992 0.28705291 -6.3084903e-21)
(1.4352236 0.28740558 -1.3496823e-20)
(1.4153466 0.27966249 -8.7580364e-24)
(1.389791 0.26745037 5.3517338e-21)
(0.025430535 -0.0013838774 -6.5742215e-20)
(0.083568079 -0.0037921774 -7.8745341e-20)
(0.15628077 -0.0046895895 2.2284781e-19)
(0.24682037 -0.0033429163 -1.3494339e-19)
(0.35814127 0.0011126293 6.1497156e-20)
(0.49175046 0.0097642404 6.3581306e-24)
(0.64596848 0.0237054 8.7686373e-20)
(0.81414886 0.043633791 -3.8597136e-20)
(0.9841082 0.069286799 -4.4364607e-21)
(1.1400979 0.098974174 2.0401502e-20)
(1.2672842 0.12964136 -3.0864505e-20)
(1.356654 0.15760525 2.4270387e-20)
(1.407599 0.17964458 -6.4301998e-21)
(1.4267279 0.19380545 -2.6595342e-20)
(1.4240369 0.19948935 9.9291849e-21)
(1.4090046 0.19799043 1.2435008e-20)
(0.011948802 -0.0021352641 -1.387491e-21)
(0.042113808 -0.0068645846 2.8993704e-19)
(0.083815778 -0.011564588 -2.7224759e-19)
(0.14095522 -0.015997844 2.4507091e-19)
(0.21796173 -0.019794197 -2.2095417e-19)
(0.3190194 -0.022225726 0)
(0.44645233 -0.022137296 1.5976613e-19)
(0.59841238 -0.017983466 -1.2979356e-19)
(0.76687403 -0.0081838002 -2.8545385e-21)
(0.93775631 0.0081342921 0)
(1.094275 0.030391637 -1.1935573e-20)
(1.2222014 0.056349983 5.9506244e-21)
(1.3140727 0.082614121 -3.9380269e-20)
(1.3702495 0.10557512 7.2123033e-20)
(1.3969423 0.12237449 -4.9575119e-20)
(1.4032243 0.13229662 -1.3193529e-20)
(0.0010971084 -0.00019745376 8.917495e-22)
(0.0078343524 -0.0014747651 -1.064478e-21)
(0.022184342 -0.003390631 0)
(0.04786791 -0.0062331496 5.0333161e-21)
(0.089711063 -0.010319483 2.8424823e-21)
(0.15342046 -0.015793496 1.7206863e-19)
(0.24456073 -0.022400464 -1.5108558e-19)
(0.36643746 -0.029106153 0)
(0.51714831 -0.033832111 6.7781774e-22)
(0.68742783 -0.033843308 -9.0595615e-21)
(0.86168308 -0.026865155 7.8239803e-21)
(1.0226349 -0.012289741 5.1228298e-21)
(1.1567083 0.0083030366 8.9213849e-21)
(1.2571602 0.031539022 5.6433991e-20)
(1.3241873 0.053406297 -6.6189005e-20)
(1.3636658 0.071493024 3.5103633e-20)
(-0.0057931866 0.0029457035 0)
(-0.014883803 0.0080625932 4.4767428e-19)
(-0.02046509 0.012779842 -8.4083909e-19)
(-0.019701919 0.016484291 3.8087384e-19)
(-0.0084090577 0.018301562 -2.8491658e-21)
(0.01927443 0.017161604 -9.2958824e-21)
(0.070676946 0.012042528 2.5362476e-19)
(0.15252977 0.0027869032 -2.0911827e-19)
(0.2689645 -0.0096322322 -1.5403905e-19)
(0.4183467 -0.022789524 1.3981167e-19)
(0.59064981 -0.032816142 0)
(0.76957439 -0.035947309 -9.5216272e-20)
(0.93779019 -0.030447805 5.1250344e-20)
(1.0818039 -0.017275513 0)
(1.1944151 0.0008244383 0)
(1.2762384 0.02246726 0)
(-0.0084323607 0.005631137 6.6641505e-19)
(-0.024466202 0.016475031 -3.9956512e-19)
(-0.040158403 0.027505393 0)
(-0.054031644 0.038155437 -2.5629177e-21)
(-0.063746148 0.047657728 -2.9973422e-19)
(-0.065667133 0.054985749 2.7312356e-19)
(-0.054143208 0.058636458 2.1769367e-19)
(-0.019984643 0.05619174 4.5526365e-21)
(0.048354562 0.045408155 -1.6555471e-19)
(0.15996967 0.02663343 8.2766549e-21)
(0.30932041 0.005804022 0)
(0.48589734 -0.012920546 -1.5672763e-19)
(0.6724812 -0.026851308 1.909406e-20)
(0.85024286 -0.034092139 9.6476917e-20)
(1.0045356 -0.033524446 0)
(1.1311358 -0.016392647 1.32788e-20)
(-0.0062177102 0.0056553881 -1.6309622e-22)
(-0.018917297 0.0171351 7.2883623e-19)
(-0.032898144 0.02947272 -3.4546913e-19)
(-0.047780393 0.042440489 -3.1525151e-19)
(-0.062793585 0.055697488 2.8014722e-19)
(-0.076542681 0.06876569 -2.5317407e-19)
(-0.086574102 0.081050207 2.1492122e-19)
(-0.088632332 0.091838466 1.7479983e-19)
(-0.075518754 0.099976993 -1.6117605e-19)
(-0.035031383 0.10253515 0)
(0.056009405 0.092672984 0)
(0.20745855 0.069609796 0)
(0.39506271 0.039807304 1.6597413e-20)
(0.59109087 0.0078788777 0)
(0.77742199 -0.019844789 8.4119593e-20)
(0.94526427 -0.02749792 -1.4839528e-19)
(0.052041099 -0.057125465 -4.9381439e-20)
(0.15623813 -0.17112743 -5.9903293e-22)
(0.26649079 -0.29152273 5.8395159e-20)
(0.37906203 -0.41318626 -5.3480849e-20)
(0.48874261 -0.52926463 -1.8843814e-21)
(0.5892763 -0.63161176 4.4644171e-22)
(0.67446456 -0.71181174 0)
(0.73983255 -0.76306841 -5.2047198e-20)
(0.78440282 -0.78269275 9.9177799e-20)
(0.81140119 -0.77358916 -4.2260841e-20)
(0.82693028 -0.74293503 4.4893908e-20)
(0.83723134 -0.69870746 -3.6915001e-20)
(0.8466472 -0.64684885 -6.4058666e-21)
(0.85754642 -0.59065093 9.3787584e-21)
(0.87036512 -0.53226143 2.4064483e-20)
(0.88121728 -0.47722682 0)
(0.036661066 -0.05439832 0)
(0.11051652 -0.16278665 1.8958223e-21)
(0.19044765 -0.27668798 -2.3110466e-19)
(0.27412973 -0.39137666 2.1060185e-19)
(0.35789049 -0.5001201 3.8164204e-21)
(0.43705945 -0.59453255 -1.6579875e-19)
(0.50683812 -0.66603697 -3.316973e-21)
(0.56380769 -0.70838221 2.4590517e-19)
(0.60740606 -0.72025804 -9.6209792e-21)
(0.64023592 -0.70608438 -8.7805382e-20)
(0.66670263 -0.67378426 0)
(0.69092384 -0.63104879 9.4021123e-21)
(0.7154741 -0.58297404 9.9747887e-21)
(0.74148764 -0.53202097 7.2039709e-20)
(0.76902575 -0.47923564 -9.4440066e-20)
(0.79631918 -0.42619832 -1.3823956e-20)
(0.024150796 -0.048282164 5.2923603e-22)
(0.073035365 -0.14433903 8.356189e-19)
(0.12672377 -0.24501989 -3.9314622e-19)
(0.18398578 -0.34599398 3.222035e-21)
(0.24274235 -0.44114581 3.1456483e-19)
(0.30031308 -0.52294599 -2.694634e-19)
(0.35390522 -0.58384845 4.2073867e-21)
(0.40152361 -0.61860936 -7.0627169e-21)
(0.44288528 -0.62653527 2.5894527e-21)
(0.47959064 -0.6119089 9.5873434e-21)
(0.51424503 -0.58179475 -1.0999438e-19)
(0.54916985 -0.54281827 7.9446952e-20)
(0.58571489 -0.49932965 1.4816937e-19)
(0.62443748 -0.4535486 -1.2513957e-19)
(0.66513207 -0.40672831 1.8245817e-20)
(0.7054056 -0.36056953 5.8218417e-20)
(0.013108333 -0.037550924 9.7407131e-22)
(0.04013902 -0.11227295 1.1603395e-21)
(0.071177423 -0.19057254 2.5723989e-19)
(0.10601793 -0.2690553 -2.3984887e-19)
(0.14396188 -0.3429111 3.5059317e-21)
(0.18396504 -0.40620707 -1.8423349e-19)
(0.22478829 -0.45301688 1.4327638e-19)
(0.26541608 -0.47927943 2.5742338e-19)
(0.30556339 -0.48455903 -2.4418061e-21)
(0.34584357 -0.47232054 -3.5272841e-19)
(0.38736682 -0.44815413 1.390031e-19)
(0.43107589 -0.41724686 0)
(0.47741472 -0.38297375 -9.7223074e-21)
(0.5264339 -0.34707116 7.9129257e-20)
(0.57738775 -0.31062564 -3.7636646e-20)
(0.62713115 -0.27494135 8.8427316e-20)
(0.0048790985 -0.022548731 -9.7423449e-22)
(0.015619466 -0.067882131 3.1829673e-19)
(0.029750282 -0.11600114 -3.0095238e-19)
(0.047851837 -0.16501713 1.9851118e-21)
(0.070296811 -0.21205081 -5.4400999e-21)
(0.097299991 -0.25328239 1.6639111e-21)
(0.12880561 -0.28456907 1.8496677e-19)
(0.16454295 -0.30269178 3.2191701e-21)
(0.20425084 -0.30677047 -1.1515892e-19)
(0.24785811 -0.29879695 9.7764974e-20)
(0.29542048 -0.28259423 -7.9583795e-20)
(0.34689401 -0.26193344 0)
(0.40208249 -0.23928582 -5.3172926e-20)
(0.46067396 -0.21577317 3.7442851e-20)
(0.52106481 -0.19191069 -1.3015162e-20)
(0.57738039 -0.16874137 0)
(0.063312566 -0.031324775 0)
(0.19378095 -0.096168567 4.5968564e-19)
(0.33791585 -0.16857016 -8.6038731e-19)
(0.49350451 -0.24754714 3.9476011e-19)
(0.65617264 -0.33092931 3.0082452e-21)
(0.8187735 -0.41498453 1.3132583e-21)
(0.97127194 -0.49414719 2.2920455e-19)
(1.1017114 -0.56116809 -1.9585079e-19)
(1.1990214 -0.60831585 -1.371787e-19)
(1.2576496 -0.63035204 1.0125694e-19)
(1.2805632 -0.62710172 0)
(1.2776448 -0.6041033 -4.0835024e-20)
(1.2618675 -0.56949266 3.2680183e-20)
(1.2423468 -0.52912904 0)
(1.2236829 -0.48650974 0)
(1.2073965 -0.44454119 0)
(0.00081633575 -0.0076888311 1.3878852e-19)
(0.0034195427 -0.023640246 -8.3214324e-20)
(0.0088667354 -0.041295942 -1.558622e-19)
(0.018166546 -0.060262226 1.4196374e-19)
(0.032390255 -0.079671999 1.7044867e-21)
(0.052688611 -0.097986165 -5.615608e-20)
(0.079991396 -0.11300654 -4.8774885e-20)
(0.11466976 -0.12239646 3.2025256e-22)
(0.15633567 -0.12476209 3.9022104e-22)
(0.20395461 -0.12057312 7.6271704e-20)
(0.25625054 -0.11188825 -8.1374856e-20)
(0.3120786 -0.10101422 9.2832671e-22)
(0.37051948 -0.089404538 7.0361933e-21)
(0.43075946 -0.077501644 1.9353813e-20)
(0.49180487 -0.065129542 1.3849452e-23)
(0.55194221 -0.052266774 -1.0188645e-20)
(0.00081841059 0.0076831178 6.8894007e-20)
(0.0034299701 0.02363095 8.2596577e-20)
(0.0088983032 0.041291856 -2.3401003e-19)
(0.018235256 0.060273658 1.4202502e-19)
(0.032514472 0.079708994 -6.4939283e-20)
(0.05288823 0.098055485 -6.6385663e-24)
(0.080285873 0.11310854 -9.4748247e-20)
(0.11507527 0.12252408 4.1276015e-20)
(0.15686153 0.12490303 4.2557667e-21)
(0.20459858 0.12071251 -2.4854854e-20)
(0.25699376 0.11200924 3.614173e-20)
(0.31288525 0.10109968 -3.1522339e-20)
(0.37134182 0.089443865 7.0353006e-21)
(0.43151605 0.077505723 3.7850499e-20)
(0.49226138 0.065182361 -1.4604989e-20)
(0.55153633 0.052675061 -2.0559124e-20)
(0.004906894 0.022684659 1.5070616e-21)
(0.015704292 0.068276035 -3.206008e-19)
(0.029900702 0.11664844 3.0093364e-19)
(0.048074639 0.16589481 -2.7103839e-19)
(0.070595539 0.21311287 2.4435448e-19)
(0.097674312 0.25445895 0)
(0.12925115 0.28577238 -1.7929685e-19)
(0.16505136 0.30382899 1.4615658e-19)
(0.2048084 0.30775667 3.2379922e-21)
(0.24844047 0.29955883 0)
(0.29598505 0.28306195 1.4241267e-20)
(0.34737888 0.26202904 -7.3001109e-21)
(0.40241158 0.23891388 5.233183e-20)
(0.46071499 0.21480001 -1.0018097e-19)
(0.52047991 0.19010877 6.9350902e-20)
(0.57567133 0.16577614 1.9969276e-20)
(0.013142632 0.037665517 -9.7336299e-22)
(0.040234875 0.11260479 1.1595028e-21)
(0.071318895 0.19112292 0)
(0.10618073 0.26981409 -5.2006654e-21)
(0.14411451 0.34385365 -2.8531995e-21)
(0.18406994 0.40729158 -1.8398174e-19)
(0.22480356 0.45418169 1.6178798e-19)
(0.26529586 0.48044139 0)
(0.30525489 0.48561656 -1.2114836e-21)
(0.34527904 0.47316345 9.6007958e-21)
(0.38644939 0.44867731 -9.2132175e-21)
(0.42967551 0.41735876 -5.0947845e-21)
(0.47543679 0.38257396 -1.1313236e-20)
(0.52395885 0.34595699 -7.2633122e-20)
(0.57441132 0.30841964 8.5624386e-20)
(0.62212738 0.2716147 -4.7303154e-20)
(0.024125432 0.048246006 0)
(0.072961043 0.1442441 -4.1800444e-19)
(0.12658535 0.24488931 7.8322697e-19)
(0.18376614 0.345862 -3.5333766e-19)
(0.24242285 0.44105348 2.8475384e-21)
(0.29986987 0.52293017 8.3598055e-21)
(0.35330227 0.58392163 -2.3866008e-19)
(0.40070423 0.61873625 1.9669022e-19)
(0.44176704 0.62662135 1.5029284e-19)
(0.47806741 0.61181662 -1.3769917e-19)
(0.512189 0.58138675 0)
(0.54644417 0.54199898 1.0019082e-19)
(0.5823107 0.49801604 -5.536408e-20)
(0.6208203 0.45154692 0)
(0.66196176 0.40398959 0)
(0.70043738 0.35891285 0)
(0.036570233 0.054269255 -4.1502114e-19)
(0.1102599 0.16242157 2.4843948e-19)
(0.19002914 0.27610729 0)
(0.27356159 0.39062076 1.0295623e-21)
(0.35719199 0.4992466 1.8646854e-19)
(0.43624958 0.59360526 -1.6827767e-19)
(0.50592278 0.66510374 -1.4143616e-19)
(0.56276633 0.70744652 -6.2949654e-21)
(0.60618903 0.71926056 1.1189344e-19)
(0.63878394 0.70491674 -7.0168125e-21)
(0.66498813 0.67234038 0)
(0.68901502 0.62928546 1.2519823e-19)
(0.71366056 0.58093552 -1.4085246e-20)
(0.74042473 0.52990149 -8.0656977e-20)
(0.76952007 0.47780032 0)
(0.79930432 0.42688835 -1.0184219e-20)
(0.051962253 0.057038111 1.0115974e-21)
(0.15600609 0.17086618 -1.2073539e-19)
(0.26610453 0.29108045 5.7459677e-20)
(0.37852861 0.41256729 5.560623e-20)
(0.48807881 0.52848748 -4.8645423e-20)
(0.58850676 0.63070767 5.5289817e-20)
(0.67361332 0.71081559 -4.9588626e-20)
(0.73890963 0.7620013 -4.9570715e-20)
(0.78339768 0.78154718 4.4059671e-20)
(0.81029712 0.77233339 0)
(0.82574553 0.7415512 0)
(0.83607435 0.69724954 0)
(0.84577569 0.64548177 -4.8831598e-21)
(0.85738514 0.58966868 0)
(0.87126631 0.53207023 -5.0812458e-20)
(0.88257657 0.4777901 9.5005351e-20)
(-0.0061675606 -0.0056106509 3.0176182e-19)
(-0.018782724 -0.0170135 1.4900996e-21)
(-0.032696948 -0.029288362 -3.4529548e-19)
(-0.047546047 -0.042219355 3.175746e-19)
(-0.062582264 -0.055480498 4.6462387e-21)
(-0.076443275 -0.068610908 3.8854717e-21)
(-0.086723886 -0.081033989 0)
(-0.08924265 -0.092060413 1.8060662e-19)
(-0.076922351 -0.10058373 -3.0283625e-19)
(-0.037844549 -0.10376665 1.2540839e-19)
(0.051433241 -0.094577414 -1.0198332e-19)
(0.2011674 -0.072045791 8.3477697e-20)
(0.38829192 -0.042391388 6.654801e-22)
(0.584025 -0.010574059 -1.3755398e-20)
(0.77020541 0.016493544 -4.2277206e-20)
(0.940179 0.018582971 0)
(-0.0084311463 -0.0056302932 0)
(-0.024486042 -0.016482587 -3.1290169e-21)
(-0.040238211 -0.027534706 3.743674e-19)
(-0.054231118 -0.038227859 -3.4248739e-19)
(-0.064154942 -0.047806773 -7.0682879e-21)
(-0.066417603 -0.055264829 2.6353561e-19)
(-0.055428985 -0.059132869 -9.5752224e-22)
(-0.022098465 -0.057037252 -3.7541747e-19)
(0.045259714 -0.046674397 2.073348e-20)
(0.15605971 -0.02828223 1.2603759e-19)
(0.30478977 -0.0078777059 0)
(0.48108358 0.01034299 -1.0326293e-20)
(0.66777694 0.023660127 -1.5127302e-20)
(0.84610234 0.030051018 -8.1591206e-20)
(1.0013593 0.028340318 1.097647e-19)
(1.1277569 0.015073023 1.3478606e-20)
(-0.0058379132 -0.0029673815 -2.4438041e-22)
(-0.015050873 -0.0081388042 -8.8884896e-19)
(-0.020813313 -0.012928233 4.1976549e-19)
(-0.020313862 -0.016729898 -3.2042272e-21)
(-0.0093896151 -0.018675809 -3.3643194e-19)
(0.017801022 -0.01770017 2.8968155e-19)
(0.068597575 -0.012774832 -4.1708794e-21)
(0.14983542 -0.0037138799 6.9389462e-21)
(0.26565126 0.0084893996 -4.4447765e-21)
(0.41453636 0.021433925 -9.1102134e-21)
(0.58658525 0.031271312 1.0792236e-19)
(0.7655698 0.034236471 -7.6516696e-20)
(0.93416419 0.028590872 -1.3687461e-19)
(1.0788369 0.015293126 1.1454447e-19)
(1.1923365 -0.0027474915 -1.8194731e-20)
(1.2744181 -0.022227243 -5.3014795e-20)
(0.00099398705 0.00016253859 -8.8935562e-22)
(0.0074938118 0.0013639773 -1.061622e-21)
(0.021545805 0.0031924966 -2.3951799e-19)
(0.046861652 0.0059350586 2.2390637e-19)
(0.088258477 0.0099066143 -3.2216388e-21)
(0.15144897 0.015251915 1.7160205e-19)
(0.24202816 0.021721554 -1.3299529e-19)
(0.36336558 0.028293326 -2.3594956e-19)
(0.51365185 0.032901235 4.0782664e-21)
(0.68371419 0.032813133 3.141325e-19)
(0.85800732 0.025746376 -1.2200889e-19)
(1.0192328 0.011080645 0)
(1.1537386 -0.0096082831 8.4321532e-21)
(1.2546774 -0.032938498 -6.2461606e-20)
(1.3221479 -0.054853938 2.9911129e-20)
(1.3616325 -0.072096477 -6.5583185e-20)
(0.011799179 0.0021054564 8.8926521e-22)
(0.041640605 0.0067735298 -2.8706129e-19)
(0.082964352 0.011407134 2.7154259e-19)
(0.13967072 0.015769198 -1.8155234e-21)
(0.2161989 0.01949063 4.9940455e-21)
(0.31675952 0.021845661 -1.5351115e-21)
(0.44372598 0.021681754 -1.6452951e-19)
(0.5953197 0.017454641 -1.5524712e-21)
(0.76358639 0.0075809049 1.0055749e-19)
(0.93448799 -0.0088199188 -8.1814449e-20)
(1.0912301 -0.031178351 6.6399622e-20)
(1.2195159 -0.057261249 0)
(1.311773 -0.083664579 3.9571422e-20)
(1.368248 -0.10676585 -2.7848582e-20)
(1.395075 -0.12368677 9.4395979e-21)
(1.4012113 -0.13303754 0)
(0.025252135 0.0013720786 -1.3219792e-19)
(0.083020476 0.003757429 7.9208507e-20)
(0.15532488 0.0046311759 1.4817547e-19)
(0.24542809 0.0032596357 -1.3466252e-19)
(0.35630718 -0.0012232034 -1.4014612e-21)
(0.48950697 -0.0099069733 5.2813958e-20)
(0.64339974 -0.023889728 4.5040349e-20)
(0.81139433 -0.043876407 -8.5346843e-22)
(0.98134634 -0.069613332 -1.034982e-21)
(1.1375084 -0.09941764 -6.5621397e-20)
(1.2649988 -0.13023664 6.7595237e-20)
(1.3547101 -0.15837786 -2.1077235e-21)
(1.4059153 -0.1805937 -6.4170772e-21)
(1.4251303 -0.19491637 -1.402699e-20)
(1.4223248 -0.20073294 -8.7183401e-24)
(1.4070901 -0.19870337 5.9242288e-21)
(0.039315352 -0.0028695088 -6.8192773e-20)
(0.12529 -0.0098952299 -8.1665761e-20)
(0.22744588 -0.020350285 2.3096032e-19)
(0.3477349 -0.035157955 -1.3971151e-19)
(0.48699943 -0.05516696 6.3669191e-20)
(0.64372582 -0.08104701 6.3298921e-24)
(0.8125975 -0.11284638 8.9912029e-20)
(0.98357025 -0.14946562 -3.9845387e-20)
(1.1426004 -0.18828409 -4.8020428e-21)
(1.2747781 -0.22532122 2.0103271e-20)
(1.3691133 -0.25618378 -3.0939273e-20)
(1.4225248 -0.27748445 2.3628338e-20)
(1.4405485 -0.28796572 -6.3021634e-21)
(1.4339493 -0.28845225 -2.530883e-20)
(1.4137615 -0.28077357 9.3614698e-21)
(1.3880203 -0.26797139 1.0643627e-20)
(0.051669766 -0.010545758 -1.5222861e-21)
(0.16155308 -0.033638595 3.1995263e-19)
(0.28775702 -0.062022854 -2.9992397e-19)
(0.4306066 -0.09634706 2.6883693e-19)
(0.58870085 -0.13682905 -2.4193539e-19)
(0.75781551 -0.18299284 0)
(0.92995907 -0.23316153 1.7009504e-19)
(1.093284 -0.28405678 -1.3832406e-19)
(1.2337543 -0.33085937 -2.8781767e-21)
(1.338923 -0.36813814 0)
(1.402554 -0.39160761 -1.1270413e-20)
(1.4272714 -0.39985797 5.2009602e-21)
(1.4232426 -0.39481661 -3.3394363e-20)
(1.4028383 -0.38009913 6.0778183e-20)
(1.3756339 -0.35895563 -3.9435844e-20)
(1.3469585 -0.33532592 -9.4960719e-21)
(0.0602241 -0.02064905 9.9188589e-22)
(0.18584447 -0.06422186 -1.181722e-21)
(0.32671151 -0.11447205 0)
(0.48163989 -0.17134095 -1.4139764e-21)
(0.64740309 -0.23395064 -3.0071767e-21)
(0.81789578 -0.30025926 1.7518596e-19)
(0.98365697 -0.36663209 -1.5412822e-19)
(1.1323873 -0.42770527 0)
(1.2512371 -0.4769759 1.1629353e-20)
(1.3309998 -0.50860125 7.8677662e-21)
(1.370229 -0.5197954 7.2397086e-21)
(1.376078 -0.51234127 -1.3264708e-20)
(1.3611946 -0.4916054 7.334038e-21)
(1.3371293 -0.46307448 3.7308231e-20)
(1.3106231 -0.43053699 -3.9574536e-20)
(1.2853761 -0.39889328 2.0358628e-20)
(0.061162838 -0.040895047 5.3242248e-19)
(0.18634461 -0.12475227 -3.1872163e-19)
(0.32345673 -0.21692945 0)
(0.46974122 -0.31549057 -1.5901306e-21)
(0.62025472 -0.41688214 -2.2860559e-19)
(0.76753774 -0.51556461 2.0679918e-19)
(0.90197996 -0.6039844 1.5026232e-19)
(1.0128165 -0.67284896 -8.4470363e-21)
(1.091091 -0.71344824 -1.051251e-19)
(1.1352072 -0.72272307 5.4108873e-21)
(1.1515609 -0.70500176 0)
(1.1508249 -0.66934306 -5.0198896e-20)
(1.1425359 -0.62437625 1.7869539e-20)
(1.132713 -0.57522339 2.2974974e-20)
(1.1246094 -0.52417828 0)
(1.1175553 -0.47474559 -1.317394e-21)
(0.056195013 -0.051118109 -9.7381023e-22)
(0.16995578 -0.15445758 3.2462084e-19)
(0.2936544 -0.26563234 -1.5367601e-19)
(0.42435299 -0.38171274 -1.3858855e-19)
(0.55722292 -0.49756571 1.2233485e-19)
(0.68552044 -0.60561648 -1.0634098e-19)
(0.80133321 -0.6965825 9.2331698e-20)
(0.89498375 -0.75963086 6.1150312e-20)
(0.96077624 -0.78842611 -5.4316574e-20)
(0.99957251 -0.78423639 0)
(1.0178632 -0.75501291 0)
(1.0239697 -0.71079427 0)
(1.0245425 -0.65922744 -2.8496259e-21)
(1.023986 -0.6041336 0)
(1.0252559 -0.54734889 -1.2433083e-20)
(1.0267074 -0.49397915 2.7410226e-20)
(-0.0048375537 0.0051792777 2.9970085e-19)
(-0.015216725 0.016403555 1.4079933e-21)
(-0.027164698 0.029643102 -3.4199325e-19)
(-0.040696674 0.045088449 3.1453015e-19)
(-0.055640946 0.062848529 4.3855206e-21)
(-0.07151501 0.082852563 3.8824579e-21)
(-0.087296466 0.10461665 0)
(-0.10123406 0.12709351 1.783108e-19)
(-0.11052903 0.14841605 -2.9836697e-19)
(-0.11098205 0.1657163 1.2376507e-19)
(-0.096342999 0.17498233 -9.9828393e-20)
(-0.055750884 0.17063152 8.2038481e-20)
(0.039429148 0.14360229 -3.3268131e-23)
(0.21635187 0.08992473 -1.3371582e-20)
(0.4246346 0.035556484 -4.2305698e-20)
(0.63748726 -0.0023621251 0)
(-0.0049845567 0.0075686001 0)
(-0.015560779 0.023931772 -2.786229e-21)
(-0.027486468 0.043253793 3.3731412e-19)
(-0.04071329 0.065833063 -3.0848927e-19)
(-0.055033232 0.091790174 -6.4108182e-21)
(-0.069947326 0.12090459 2.3761193e-19)
(-0.084538846 0.15235792 -5.7848944e-22)
(-0.097347228 0.18445371 -3.3942478e-19)
(-0.10630414 0.21443577 1.8114252e-20)
(-0.10877351 0.23859237 1.1504529e-19)
(-0.10154231 0.25279877 0)
(-0.080147188 0.2534199 -9.3841376e-21)
(-0.036834908 0.23787912 -1.4649929e-20)
(0.040677262 0.20297564 -8.4670646e-20)
(0.18931555 0.13403746 1.1337792e-19)
(0.39609153 0.059313516 1.5374719e-20)
(-0.0056279213 0.011604889 -1.4777898e-22)
(-0.017289479 0.036074959 -7.0004824e-19)
(-0.03003002 0.064050725 3.3062489e-19)
(-0.04365369 0.095522446 -2.2801761e-21)
(-0.057815675 0.13011836 -2.6581926e-19)
(-0.071939884 0.16692929 2.2951115e-19)
(-0.085196383 0.20430448 -3.00525e-21)
(-0.096518837 0.23972596 5.0517184e-21)
(-0.10468699 0.26990861 -4.5029323e-21)
(-0.10846022 0.29125516 -6.920994e-21)
(-0.10665454 0.30066517 9.304909e-20)
(-0.097975345 0.29640334 -6.579615e-20)
(-0.080523806 0.27847182 -1.308017e-19)
(-0.050647362 0.24789094 1.1028512e-19)
(0.003117588 0.20383704 -1.9531722e-20)
(0.11192323 0.14140631 -6.3964706e-20)
(-0.0051337737 0.015225248 -5.0026898e-22)
(-0.015636939 0.046407322 -5.9890921e-22)
(-0.027118417 0.080665891 -1.5423455e-19)
(-0.039420339 0.11741918 1.4437995e-19)
(-0.052290834 0.15561441 -1.8449745e-21)
(-0.065376939 0.19362299 1.1275223e-19)
(-0.078247686 0.22917681 -8.7514448e-20)
(-0.090423497 0.25936266 -1.5998311e-19)
(-0.10149857 0.28104832 -8.3690941e-22)
(-0.11121849 0.29155766 2.2322343e-19)
(-0.1194629 0.28960475 -8.8396007e-20)
(-0.12602203 0.27592286 0)
(-0.13008632 0.25299919 7.5493201e-21)
(-0.12927585 0.22393944 -6.1581265e-20)
(-0.11871149 0.19061899 2.9349936e-20)
(-0.091488723 0.15034326 -8.1289949e-20)
(-0.0028446361 0.013729579 5.0026898e-22)
(-0.008889229 0.041529865 -1.4261924e-19)
(-0.016247084 0.071511716 1.350819e-19)
(-0.025110968 0.10288663 -1.0346345e-21)
(-0.035642946 0.13438566 2.6747596e-21)
(-0.048011311 0.16418084 -7.2657948e-22)
(-0.0623775 0.18992249 -8.6733353e-20)
(-0.078910727 0.20898409 -2.7923216e-21)
(-0.097810308 0.21902653 5.4265159e-20)
(-0.11926025 0.21883535 -4.8991221e-20)
(-0.14327644 0.20900357 3.9886504e-20)
(-0.16952192 0.19180683 0)
(-0.1971196 0.17018547 3.1245545e-20)
(-0.22432568 0.14666052 -2.2164831e-20)
(-0.24875971 0.1227438 9.5157778e-21)
(-0.27086308 0.097818545 0)
(-0.00064523524 0.0065995785 -5.4893993e-20)
(-0.0025626896 0.020103542 3.2690043e-20)
(-0.0063624621 0.034852245 6.2359775e-20)
(-0.012723343 0.05050683 -5.7281863e-20)
(-0.022400176 0.066404921 -9.7603629e-22)
(-0.036265706 0.081427792 2.3044544e-20)
(-0.05514762 0.093958495 2.0576005e-20)
(-0.079605998 0.10210494 1.8947038e-22)
(-0.10969128 0.10434772 2.0708945e-22)
(-0.14477391 0.10040218 -3.4552292e-20)
(-0.18360152 0.091567362 3.8240524e-20)
(-0.22461728 0.080054451 4.9299801e-22)
(-0.26630644 0.067855036 -2.9052024e-21)
(-0.30719536 0.056157997 -1.0629341e-20)
(-0.34527149 0.045535255 -8.6424787e-24)
(-0.37730167 0.036118827 7.18189e-21)
(-0.0006245874 -0.0060528518 -2.6952619e-20)
(-0.0025116776 -0.018452791 -3.281086e-20)
(-0.0063294611 -0.032019968 9.2566828e-20)
(-0.012777405 -0.046469375 -5.6744846e-20)
(-0.022634307 -0.061230989 2.612832e-20)
(-0.036801621 -0.075324824 2.7215112e-24)
(-0.056135297 -0.087313733 3.9577258e-20)
(-0.081215479 -0.095492016 -1.6962253e-20)
(-0.11209599 -0.098460163 -1.5405304e-21)
(-0.14813167 -0.095896348 1.1759876e-20)
(-0.18804681 -0.088858902 -1.6308448e-20)
(-0.23026747 -0.07916933 1.6041331e-20)
(-0.27325949 -0.068410512 -2.8910151e-21)
(-0.31551081 -0.057441863 -2.1581174e-20)
(-0.35507169 -0.0465861 8.6775508e-21)
(-0.38939391 -0.035860151 1.4513489e-20)
(-0.0028380967 -0.013702622 -7.2236388e-22)
(-0.0088702803 -0.041380338 1.4382992e-19)
(-0.016226349 -0.071145658 -1.3509445e-19)
(-0.025105069 -0.10219811 1.230274e-19)
(-0.035674939 -0.13327579 -1.1120382e-19)
(-0.048111298 -0.16259343 0)
(-0.062577915 -0.18789851 8.4275406e-20)
(-0.079233916 -0.20672464 -6.8518119e-20)
(-0.098247431 -0.21692908 -2.0936535e-21)
(-0.11974193 -0.21744848 0)
(-0.1436394 -0.20886624 -7.7372779e-21)
(-0.16948749 -0.1932122 4.3523723e-21)
(-0.19634725 -0.17295515 -3.1784257e-20)
(-0.22255314 -0.14999169 6.2461324e-20)
(-0.2453647 -0.12533181 -4.58836e-20)
(-0.26242968 -0.09882649 -1.5042645e-20)
(-0.0050913011 -0.015096935 4.9983765e-22)
(-0.015506314 -0.046005299 -5.9841207e-22)
(-0.026894029 -0.079947866 0)
(-0.039101846 -0.11634209 3.3133371e-21)
(-0.051887083 -0.15413903 2.0270458e-21)
(-0.064910821 -0.19172364 1.1260311e-19)
(-0.077752382 -0.22683736 -9.890504e-20)
(-0.089953934 -0.25663958 0)
(-0.10111981 -0.27809934 -3.2963999e-22)
(-0.11098441 -0.28866634 -6.9312954e-21)
(-0.11938469 -0.28714524 5.3091407e-21)
(-0.1260605 -0.27423008 4.9005457e-21)
(-0.13024033 -0.25216573 7.1891371e-21)
(-0.12965672 -0.22373678 5.5218997e-20)
(-0.1188562 -0.19120728 -6.9517764e-20)
(-0.090479243 -0.15418674 3.9255186e-20)
(-0.0056370337 -0.011619388 0)
(-0.01731386 -0.036096455 3.517271e-19)
(-0.030073699 -0.064043192 -6.6053882e-19)
(-0.043720872 -0.095432784 2.9953884e-19)
(-0.057911324 -0.1298753 -2.0255262e-21)
(-0.072072732 -0.16644653 -7.1973607e-21)
(-0.085384251 -0.2034917 2.0123866e-19)
(-0.096796927 -0.23851317 -1.6668225e-19)
(-0.10511593 -0.26828187 -1.2528195e-19)
(-0.1091295 -0.28929417 1.1337389e-19)
(-0.10767773 -0.29855983 0)
(-0.099491892 -0.29442022 -8.5129715e-20)
(-0.082744212 -0.27686758 4.5657947e-20)
(-0.053861822 -0.2469193 0)
(-0.001233491 -0.20429692 0)
(0.10434078 -0.14465072 0)
(-0.0050316933 -0.0076403724 6.005401e-19)
(-0.015700553 -0.024144872 -3.5985251e-19)
(-0.027720774 -0.043612057 0)
(-0.041038946 -0.066328692 -2.4163425e-21)
(-0.055441082 -0.092397442 -2.696168e-19)
(-0.070422785 -0.12157438 2.4566419e-19)
(-0.085066286 -0.15301665 1.9604057e-19)
(-0.097920479 -0.18501247 4.7097946e-21)
(-0.10694279 -0.21481541 -1.4947356e-19)
(-0.10954035 -0.2387643 7.1393223e-21)
(-0.10255622 -0.25282941 0)
(-0.081609369 -0.2534994 -1.4978774e-19)
(-0.039119131 -0.23832366 1.4849449e-20)
(0.037036287 -0.20423024 9.5649312e-20)
(0.18282564 -0.13675772 0)
(0.38943813 -0.062962207 1.4229825e-20)
(-0.0048281004 -0.0051727275 6.9329922e-23)
(-0.015195129 -0.016398029 7.2299868e-19)
(-0.027135274 -0.029661487 -3.4249165e-19)
(-0.040666845 -0.045161015 -3.1201551e-19)
(-0.055621961 -0.063011447 2.7738085e-19)
(-0.071516321 -0.083137421 -2.4991369e-19)
(-0.087332451 -0.10505019 2.1187233e-19)
(-0.10132562 -0.12768507 1.7280261e-19)
(-0.11071976 -0.14915256 -1.5922464e-19)
(-0.11137272 -0.16657335 0)