/*--------------------------------*- C++ -*----------------------------------*\
| =========                 |                                                 |
| \\      /  F ield         | foam-extend: Open Source CFD                    |
|  \\    /   O peration     | Version:     4.1                                |
|   \\  /    A nd           | Web:         http://www.foam-extend.org         |
|    \\/     M anipulation  |                                                 |
\*---------------------------------------------------------------------------*/
FoamFile
{
    version     2.0;
    format      ascii;
    class       volScalarField;
    location    "1.55";
    object      p;
}
// * * * * * * * * * * * * * * * * * * * * * * * * * * * * * * * * * * * * * //

dimensions      [0 2 -2 0 0 0 0];

internalField   nonuniform List<scalar> 
4393
(
-46.41827
-92.9818
-146.74659
-201.53766
-258.52843
-318.0296
-380.42412
-446.02153
-515.04609
-587.60795
-663.67507
-743.04503
-825.31972
-909.88655
-995.91027
-1082.3383
-1167.9202
-1251.2385
-1330.7462
-1404.8059
-1471.7264
-1529.7972
-1577.3237
-1612.6682
-1634.3031
-1640.8853
-1631.3604
-1605.1086
-1562.0229
-1502.6038
-1428.0623
-1340.3039
-1241.8232
-1135.5205
-1024.4764
-911.72569
-800.06773
-691.93516
-589.3251
-493.78574
-406.44452
-328.0625
-259.10023
-199.78357
-150.17386
-110.24013
-79.763052
-57.832109
-43.627813
-45.166106
-92.39598
-146.034
-200.67384
-257.4955
-316.84188
-379.10956
-444.62016
-513.60978
-586.20063
-662.37227
-741.93235
-824.48981
-909.43454
-995.9281
-1082.9089
-1169.1128
-1253.1059
-1333.3244
-1408.1149
-1475.7716
-1534.5694
-1582.7972
-1618.7953
-1641.0074
-1648.0567
-1638.8537
-1612.7036
-1569.4359
-1509.5439
-1434.2446
-1345.4783
-1245.8052
-1138.2115
-1025.8678
-911.88857
-799.1335
-690.07182
-586.71508
-490.60811
-402.86264
-324.21718
-255.10965
-195.75307
-146.20031
-106.36003
-75.961393
-54.862459
-44.264288
-44.361867
-91.499227
-144.77572
-199.05478
-255.52561
-314.56076
-376.5789
-441.92394
-510.85512
-583.51833
-659.91598
-739.87535
-823.01872
-908.73982
-996.19228
-1084.2946
-1171.7531
-1257.0995
-1338.7352
-1414.9749
-1484.0842
-1544.31
-1593.9089
-1631.1783
-1654.5011
-1662.4207
-1653.7589
-1627.7378
-1584.0954
-1523.2531
-1446.4219
-1355.6117
-1253.5191
-1143.3089
-1028.3378
-911.88364
-796.92605
-686.00477
-581.15542
-483.91029
-395.34351
-316.14195
-246.68969
-187.1561
-137.55057
-97.687738
-67.25763
-46.702706
-37.920178
-43.571148
-90.203481
-142.872
-196.57255
-252.49935
-311.05358
-372.68273
-437.76268
-506.58746
-579.33948
-656.05697
-736.59863
-820.60885
-907.48888
-996.38119
-1086.1739
-1175.5278
-1262.9212
-1346.7024
-1425.1386
-1496.4544
-1558.8582
-1610.5621
-1649.8027
-1674.8748
-1684.1993
-1676.4521
-1650.704
-1606.5448
-1544.2892
-1465.1353
-1371.199
-1265.3938
-1151.1693
-1032.1786
-911.95583
-793.6669
-679.95725
-572.89526
-473.98939
-384.25252
-304.29081
-234.40452
-174.68781
-125.07504
-85.291207
-55.022019
-34.93407
-26.789946
-42.746014
-88.58606
-140.40161
-193.29784
-248.47662
-306.36995
-367.4608
-432.16657
-500.82789
-573.67705
-650.80209
-732.10627
-817.26625
-905.69529
-996.5211
-1088.589
-1180.4946
-1270.6403
-1357.3005
-1438.679
-1512.9481
-1578.27
-1632.8042
-1674.713
-1702.1781
-1713.4587
-1707.0289
-1681.7389
-1636.9528
-1572.8175
-1490.4975
-1392.2535
-1281.3115
-1161.5346
-1037.0025
-911.61311
-788.78878
-671.31354
-561.29004
-460.1828
-368.9114
-287.96524
-217.52562
-157.57746
-107.95347
-68.296413
-38.299561
-18.683203
-10.926794
-41.737436
-86.536872
-137.25305
-189.11398
-243.33037
-300.36942
-360.75686
-424.96189
-493.38474
-566.32285
-643.93063
-726.17222
-812.77012
-903.15673
-996.4421
-1091.4141
-1186.5792
-1280.2367
-1370.5624
-1455.6796
-1533.7002
-1602.7367
-1660.8934
-1706.249
-1736.8499
-1750.7504
-1746.1563
-1721.615
-1676.1688
-1609.7096
-1523.33
-1419.4771
-1301.8087
-1174.7657
-1043.0176
-910.95446
-782.33299
-660.10527
-546.39986
-442.605
-349.50289
-267.41943
-196.37206
-136.1949
-86.586527
-47.090253
-17.368505
1.895545
9.4343672
-40.595506
-84.127156
-133.49116
-184.07005
-237.0879
-293.05299
-352.54159
-416.08546
-484.15857
-557.14069
-635.2721
-718.59806
-806.90493
-899.6552
-995.9394
-1094.4703
-1193.6349
-1291.5939
-1386.3952
-1476.0638
-1558.6461
-1632.2097
-1694.81
-1744.4433
-1779.0048
-1796.3011
-1794.1935
-1770.8248
-1724.7862
-1655.586
-1564.1761
-1453.2319
-1326.9986
-1190.7117
-1049.8411
-909.42575
-773.64328
-645.63641
-527.53692
-420.6085
-325.43833
-242.13237
-170.49397
-110.16476
-60.679626
-21.460497
7.9043105
26.823876
34.19114
-39.186004
-81.205535
-128.95642
-178.00157
-229.577
-284.2373
-342.61686
-405.3213
-472.91369
-545.8757
-624.55659
-709.10805
-799.40444
-894.95481
-994.83031
-1097.6467
-1201.6305
-1304.7571
-1404.9086
-1499.9922
-1587.9888
-1666.9347
-1734.8566
-1789.6811
-1829.1466
-1850.7724
-1851.9886
-1830.4102
-1784.0052
-1711.709
-1614.214
-1494.4631
-1357.4972
-1209.6429
-1057.4492
-906.79862
-762.38294
-627.54403
-504.37031
-393.92783
-296.53012
-211.99128
-139.84061
-79.481157
-30.252975
8.5658653
37.490365
56.044001
63.248756
-37.653444
-77.930922
-123.79685
-171.03282
-220.8902
-273.97548
-330.98872
-392.62106
-459.54162
-532.3565
-611.55192
-697.41821
-789.95101
-888.73173
-992.81683
-1100.6982
-1210.3872
-1319.6101
-1426.0327
-1527.4228
-1621.7032
-1706.907
-1781.0685
-1842.0769
-1887.5229
-1914.6048
-1920.2262
-1901.3231
-1855.0119
-1779.3759
-1674.6453
-1544.0578
-1393.7392
-1231.524
-1065.4178
-902.39103
-747.74684
-605.0106
-476.14631
-361.91639
-262.25636
-176.5992
-104.13022
-43.963
4.7915547
43.02388
71.374989
89.494314
96.517127
-35.748811
-74.004813
-117.69205
-162.83151
-210.68182
-261.9042
-317.27071
-377.56959
-443.59407
-516.10034
-595.74475
-682.99664
-778.01785
-880.501
-989.49989
-1103.3488
-1219.767
-1336.1396
-1449.847
-1558.492
-1659.9568
-1752.3184
-1833.6802
-1901.9525
-1954.611
-1988.5128
-1999.9351
-1984.9551
-1939.5401
-1860.5124
-1747.2972
-1603.4217
-1436.5073
-1256.5007
-1073.3827
-895.51862
-728.91336
-577.21762
-442.1377
-323.98076
-222.16708
-135.63932
-63.159344
-3.4978591
44.496754
81.904584
109.50769
127.0891
133.89281
-33.79863
-69.806227
-111.02786
-153.76789
-199.29478
-248.32728
-301.7145
-360.35247
-425.17736
-497.12406
-577.05822
-665.67857
-763.37413
-870.00853
-984.66013
-1105.4661
-1229.7461
-1354.4136
-1476.4672
-1593.3171
-1702.84
-1803.2311
-1892.756
-1969.4399
-2030.7075
-2073.0753
-2092.1036
-2082.7927
-2039.5855
-1957.4485
-1834.424
-1674.2472
-1486.6341
-1284.5442
-1080.6574
-885.1159
-704.69047
-543.02728
-401.36488
-279.34204
-175.68569
-88.71638
-16.683647
42.039669
88.898661
125.17898
151.81147
168.71738
175.25014
-31.322725
-64.74834
-103.16395
-143.16707
-186.01789
-232.49042
-283.51342
-340.10042
-403.35023
-474.40909
-554.39859
-644.30966
-744.84095
-856.1185
-977.29907
-1106.2776
-1239.8196
-1374.1693
-1505.8013
-1631.8963
-1750.3824
-1859.68
-1958.3489
-2044.6711
-2116.1355
-2168.9571
-2197.9197
-2196.6906
-2157.7324
-2073.3253
-1939.1481
-1758.8895
-1545.2549
-1315.6015
-1086.3276
-869.81837
-673.60667
-501.08677
-352.7077
-227.14579
-122.2084
-35.439573
35.51849
92.743152
137.99758
172.78102
198.17323
214.23522
220.43275
-28.935349
-59.575003
-94.898049
-131.84684
-171.67521
-215.21018
-263.45967
-317.56068
-378.79204
-448.5448
-528.24824
-619.2585
-722.68944
-839.06427
-967.71672
-1106.2531
-1250.6594
-1396.2152
-1538.6634
-1674.9218
-1803.0777
-1921.9451
-2030.5692
-2127.6997
-2211.0799
-2276.7103
-2318.5364
-2328.6704
-2297.0935
-2212.192
-2065.6518
-1860.4851
-1613.7492
-1349.4068
-1089.011
-847.73825
-633.73455
-449.70497
-294.82713
-166.4168
-61.081284
24.586141
93.645965
148.66949
191.75122
224.60077
248.43755
263.4592
269.24639
-25.834181
-53.293403
-85.133305
-118.63355
-155.00881
-195.1276
-240.0711
-291.10188
-349.69465
-417.52239
-496.38348
-588.08839
-694.30528
-816.16068
-953.3534
-1103.1786
-1260.5219
-1419.2471
-1574.0532
-1721.5572
-1860.1744
-1989.336
-2108.7968
-2218.0397
-2315.3459
-2396.6699
-2455.0968
-2481.0198
-2461.4974
-2379.4188
-2219.758
-1983.4123
-1693.8846
-1385.4098
-1086.7044
-816.33241
-582.61597
-386.83318
-226.18347
-96.095661
8.3588107
91.722873
157.84487
209.81629
250.05854
280.47323
302.3987
316.15977
321.45256
-22.98827
-47.105599
-75.194226
-104.93104
-137.49255
-173.77998
-214.93907
-262.35449
-317.7063
-382.98372
-460.41857
-552.37006
-661.22084
-788.98792
-936.05531
-1099.4241
-1272.3861
-1446.6588
-1615.3975
-1774.882
-1924.158
-2063.6283
-2194.0745
-2316.1131
-2429.0546
-2529.1505
-2608.6683
-2656.1731
-2655.5153
-2582.0933
-2409.6774
-2133.8909
-1787.8781
-1422.5327
-1076.4501
-772.13822
-517.10629
-310.00217
-145.03262
-15.064403
86.749102
166.26581
228.18016
276.10018
312.74407
340.1674
359.793
372.05537
376.76321
-19.234001
-39.56612
-63.483961
-89.028645
-117.28549
-149.16094
-185.84177
-228.81604
-279.96334
-341.61493
-416.50491
-507.64534
-618.31829
-751.84286
-909.86982
-1089.2874
-1281.1051
-1473.7725
-1658.1737
-1830.2916
-1990.3738
-2140.3274
-2282.2796
-2418.371
-2549.5396
-2672.7613
-2779.482
-2856.4145
-2884.436
-2829.5601
-2647.2459
-2321.0869
-1898.5224
-1458.8316
-1053.8855
-710.45782
-433.22515
-216.29679
-49.466758
77.789834
174.63837
248.39192
304.59757
347.33037
379.5405
403.37529
420.29186
430.80773
434.83679
-15.909557
-32.367236
-51.889431
-72.946128
-96.528065
-123.52994
-155.1611
-192.99617
-239.10676
-296.19282
-367.57395
-457.03007
-568.92175
-708.3959
-879.34016
-1079.0097
-1295.0589
-1510.7435
-1713.4126
-1898.7624
-2069.1469
-2228.6984
-2381.1215
-2530.4772
-2680.3854
-2829.6036
-2969.1764
-3084.3378
-3154.0987
-3134.0109
-2949.9598
-2559.1605
-2029.2975
-1490.9053
-1012.5343
-624.92441
-325.9914
-102.36318
62.502768
183.47679
272.40199
338.09621
386.87988
423.18056
450.07156
469.70204
483.49649
492.01895
495.27624
-11.48393
-23.591255
-38.294682
-54.438644
-72.848103
-94.363197
-120.16994
-151.87512
-191.68067
-242.61944
-308.63686
-394.36259
-505.3331
-649.10806
-833.41837
-1057.118
-1303.0124
-1546.0298
-1768.1207
-1964.9807
-2142.974
-2309.8845
-2471.3078
-2633.6115
-2804.7352
-2986.7698
-3170.3477
-3338.498
-3469.9064
-3511.2588
-3344.1365
-2870.7981
-2184.143
-1512.8698
-942.74491
-506.96154
-189.29448
35.498805
192.78372
302.75076
380.12588
435.11313
474.59784
503.16027
523.83656
538.65846
548.93495
555.23107
557.62939
-7.5459515
-15.399257
-25.214354
-36.272616
-49.208282
-64.768079
-84.068945
-108.69888
-140.93293
-184.11084
-242.90332
-322.98249
-431.14914
-577.96563
-777.58722
-1033.2897
-1320.8801
-1601.2873
-1847.8977
-2056.6835
-2241.3069
-2415.234
-2585.4239
-2759.5247
-2951.4772
-3168.7935
-3401.8411
-3630.665
-3839.9338
-3979.4503
-3868.0217
-3294.13
-2367.8696
-1515.4533
-830.29315
-345.15952
-15.871837
201.09531
342.92659
435.89052
497.45839
538.82682
567.06005
586.58931
600.19899
609.65749
616.06276
619.92861
621.3922
-2.4940589
-5.6554148
-10.105305
-15.573835
-22.444997
-31.342395
-43.273874
-59.749412
-83.013055
-116.56759
-165.75621
-237.36429
-339.18042
-484.64168
-697.71901
-992.03944
-1333.7672
-1659.6113
-1930.1028
-2142.1464
-2323.1197
-2495.6056
-2666.7927
-2843.1719
-3048.9945
-3303.1736
-3599.0873
-3914.1973
-4241.4068
-4553.2173
-4583.0232
-3903.4781
-2589.311
-1483.2201
-653.43072
-124.34815
202.50754
397.84733
513.68366
582.39903
623.43342
648.1775
663.26869
672.58015
678.38253
682.01654
684.26812
685.54496
686.01551
2.9587869
3.972983
4.5462514
4.37276
3.3873211
1.1546644
-3.1201752
-10.724066
-23.652365
-45.261228
-81.374448
-140.13095
-230.27344
-367.38844
-589.8777
-934.91048
-1357.8537
-1750.6932
-2054.8899
-2266.9249
-2439.8805
-2611.5587
-2788.5985
-2969.4135
-3193.9258
-3500.0124
-3883.2969
-4313.0919
-4763.903
-5291.5199
-5573.81
-4825.3575
-2837.3017
-1376.2417
-376.92556
174.90866
474.14933
627.83462
704.34028
740.62148
756.28053
761.57938
761.89138
760.03448
757.47756
754.96748
752.88247
751.47276
750.91523
8.2851122
13.265321
19.323526
25.157974
31.02066
36.677889
41.595139
44.763105
44.510425
37.799819
18.452081
-23.539222
-98.146808
-220.10647
-443.94202
-853.46423
-1397.282
-1876.4147
-2210.7429
-2392.8793
-2530.4283
-2685.6833
-2862.7824
-3027.8148
-3238.6398
-3573.5313
-4023.7136
-4561.7457
-5089.7115
-5960.3607
-6823.7178
-6299.5143
-3074.0126
-1170.9512
36.506942
572.65514
805.01227
890.17386
911.79931
907.31743
893.25945
876.87556
861.26397
847.6614
836.46196
827.67567
821.197
817.07841
815.48609
17.841141
25.859709
36.761753
47.719768
59.416664
71.801415
84.631584
97.258527
108.52234
116.23581
114.9665
93.71535
41.619979
-49.538376
-244.67544
-715.15131
-1441.88
-2033.6099
-2413.3729
-2545.7121
-2643.0181
-2787.1989
-2982.1458
-3113.6795
-3276.6771
-3677.6985
-4224.3711
-4961.703
-5679.3053
-7242.8537
-8882.0923
-9068.3525
-3578.1295
-1038.2192
635.19347
1099.0923
1197.3512
1178.9797
1129.5276
1077.2887
1030.5878
991.36683
959.44142
934.02459
914.23879
899.26883
888.48501
881.72049
879.11852
22.150583
30.895254
46.136765
62.238261
80.171593
100.10834
122.2922
146.74791
173.26297
201.23852
227.41509
240.71458
225.96321
180.34554
45.408665
-483.28438
-1555.1588
-2311.4993
-2773.6624
-2771.0088
-2749.6655
-2813.1449
-3022.6407
-3099.9054
-3207.1633
-3763.2631
-4232.9944
-5185.2217
-6470.8429
-7863.4474
-9589.1439
-12103.54
-4823.2655
-72.514674
1722.831
1811.983
1641.1424
1478.7604
1346.2298
1243.2036
1163.5574
1101.9567
1054.3116
1017.6219
989.6906
968.87464
954.02904
944.77084
941.21755
36.937088
46.533255
66.460129
87.314051
110.74812
137.07749
166.90667
200.72093
238.86219
281.66274
327.57466
365.355
371.82658
347.26628
293.74161
-191.10959
-1818.0783
-2617.1351
-3115.4962
-2772.7576
-2626.8082
-2732.5427
-3131.7556
-3271.1272
-3302.4336
0
0
0
0
0
0
0
0
6202.3754
3402.4564
2582.4957
2068.2387
1755.8597
1545.1254
1396.0886
1287.0016
1205.4552
1143.778
1096.9953
1061.7471
1035.6643
1017.1506
1005.637
1001.2226
35.366749
42.182758
64.02844
87.075121
113.20497
142.73979
176.57938
215.6767
261.07489
314.42469
377.59027
445.9894
502.79967
560.82586
710.68078
552.80417
-1996.7854
-2776.9625
-3646.9055
-2968.6375
-3044.3361
-3012.3244
0
0
0
0
0
0
0
0
0
0
10129.575
6286.2539
4123.955
3000.3245
2361.3131
1969.1783
1709.0494
1527.5634
1396.2861
1299.0429
1225.9926
1170.8556
1129.4572
1098.8969
1077.2399
1063.7841
1058.6267
44.263801
54.950273
80.950075
106.97764
136.15446
169.03611
206.87582
251.10431
303.50628
367.08053
447.11669
546.08858
653.28879
754.39122
842.19567
568.47299
-3108.2258
-3581.5987
-3205.2809
0
0
0
0
0
0
0
0
0
0
0
1780.6719
3364.5945
5756.1167
5236.0898
3961.3826
3100.1686
2507.1432
2107.7403
1830.6545
1632.9922
1488.4299
1380.731
1299.5699
1238.1937
1192.0516
1157.9578
1133.7809
1118.7537
1112.9927
22.191625
42.166335
66.371021
91.284948
118.75245
149.54736
184.74338
225.5055
273.13263
329.82998
399.50005
478.02733
537.5302
536.2476
558.1069
702.38674
0
0
0
0
0
0
-1132.0676
-1103.5233
-1011.3055
-917.55613
-790.08495
-495.29875
-94.947138
697.08401
2026.44
3361.9108
4750.9875
4489.8578
3714.8023
3058.6868
2552.6656
2182.2205
1911.4458
1711.6616
1562.3548
1449.5322
1363.6926
1298.3451
1248.9836
1212.3855
1186.3706
1170.178
1163.9663
19.954013
50.022175
74.970497
100.54385
127.96166
158.05688
191.47981
228.6651
269.57218
313.41815
357.89983
396.56224
406.14886
338.09141
142.01708
-338.13629
-1284.4181
-1227.4746
-1147.1012
-1100.4778
-1051.0809
-1021.6125
-1010.3638
-803.28906
-838.68204
-583.18158
-362.34489
-204.61718
259.08299
904.85477
1960.2928
3049.3235
3956.5656
3851.8969
3404.2982
2933.5973
2528.4619
2206.0158
1956.7042
1765.4226
1618.529
1505.381
1418.1056
1351.0014
1299.9425
1261.8835
1234.7286
1217.7886
1211.2841
20.663338
46.485412
72.120267
97.971799
125.28643
154.81522
187.13925
222.62512
261.2593
302.13431
342.03511
373.73554
384.81848
353.1579
205.21503
-227.92297
-792.30559
-920.95896
-962.54777
-966.15042
-887.80249
-842.31997
-818.54923
-691.79992
-620.94355
-417.54022
-179.14319
77.743047
510.88709
1096.4664
1896.187
2721.5884
3334.8857
3356.8269
3105.6569
2777.1433
2463.3576
2193.8103
1973.5976
1797.6788
1658.5139
1548.9433
1463.039
1396.1806
1344.8437
1306.3179
1278.6981
1261.4187
1254.7759
14.996589
36.230594
58.796994
81.291041
104.29088
128.03557
152.53061
177.41613
201.79018
223.68933
238.89696
240.18107
218.24874
159.21406
15.074578
-283.91258
-606.90353
-732.46464
-784.51829
-794.28615
-753.12494
-703.47388
-642.23473
-537.76193
-423.88623
-238.24301
-11.498452
269.88395
668.60859
1187.7223
1823.2424
2450.8966
2889.5206
2967.0588
2834.9723
2613.0013
2376.1816
2157.6764
1969.1886
1812.3857
1684.4724
1581.3764
1499.0911
1434.1698
1383.8002
1345.704
1318.2396
1300.9996
1294.3628
23.838357
46.44488
70.189866
93.65616
117.54426
141.96106
166.72608
191.21062
214.09593
232.81529
242.68443
236.66994
205.98859
135.39728
-7.2597617
-236.55141
-460.15497
-579.80581
-635.38306
-644.54067
-615.83437
-568.29247
-497.28082
-394.4598
-264.34894
-82.932753
139.16114
416.1136
777.02674
1223.7722
1735.5104
2221.7456
2557.2302
2658.5603
2599.6228
2454.8464
2280.178
2107.123
1949.7498
1813.4691
1698.7944
1604.111
1527.1064
1465.4577
1417.0852
1380.1848
1353.4181
1336.5535
1330.0514
12.024195
29.927694
50.032185
70.035756
90.041062
109.92733
129.3863
147.7471
163.76096
175.18291
178.31582
168.0616
137.63844
74.654082
-40.055468
-203.508
-358.8074
-456.74755
-506.07894
-514.23344
-488.92987
-440.00539
-365.68905
-262.60069
-128.53839
46.964319
261.85461
525.19109
849.67445
1232.3375
1648.6364
2032.8059
2301.949
2411.5834
2398.1278
2308.5357
2183.1597
2048.9512
1920.387
1804.4656
1703.8312
1618.6752
1548.0643
1490.6663
1445.0905
1410.0052
1384.387
1368.1816
1361.9234
21.407249
40.63241
60.854081
80.367729
99.453621
117.84353
135.02377
150.10189
161.62916
167.32383
163.94555
147.54858
113.08098
52.273407
-43.557235
-165.6156
-279.00357
-356.12484
-395.68997
-400.45658
-375.18727
-324.72541
-248.67389
-145.28255
-11.774069
156.79255
361.05924
606.02208
895.9519
1224.4161
1567.8665
1878.5078
2101.9972
2212.1877
2227.1468
2176.7608
2089.8438
1988.0679
1885.1
1788.39
1701.7414
1626.5699
1562.991
1510.4911
1468.2868
1435.4861
1411.3701
1396.051
1390.1251
11.864129
27.968637
45.959737
63.611624
80.82055
97.232004
112.31678
125.22221
134.61731
138.50982
134.22496
118.55908
87.502175
35.679449
-40.002532
-130.43201
-213.52498
-271.8308
-300.84902
-300.6264
-273.46189
-221.63373
-145.03178
-42.510992
87.994326
248.90871
441.01383
666.30056
924.57427
1207.7345
1495.1771
1752.1625
1942.6283
2049.764
2082.4755
2059.9383
2002.6784
1927.6337
1846.8496
1767.6917
1694.4095
1629.1885
1572.894
1525.6526
1487.1887
1456.9989
1434.6433
1420.3808
1414.854
17.140345
33.2373
50.219986
66.36477
81.714346
95.886789
108.32936
118.22228
124.38342
125.18575
118.61233
102.36242
73.690919
29.625219
-29.989129
-97.382399
-158.13666
-200.46221
-219.3849
-213.53434
-183.55762
-130.34305
-53.764177
46.960441
173.10564
325.77671
505.17505
711.24646
941.41841
1187.1583
1431.2314
1648.3115
1813.9323
1916.4941
1960.2188
1957.4981
1922.9613
1869.6954
1807.8368
1744.3106
1683.4267
1627.7753
1578.7192
1536.8594
1502.3259
1474.944
1454.5176
1441.4279
1436.3465
11.965865
26.365697
42.104175
57.216597
71.535776
84.633804
95.955593
104.72793
109.89857
110.11359
103.80206
89.276616
64.758147
28.907116
-17.01989
-66.703896
-110.25024
-139.22894
-148.99452
-137.55125
-104.54772
-50.079475
26.068065
124.39893
245.54598
389.78556
556.6474
744.78773
950.46879
1165.4735
1375.7036
1562.5377
1708.9274
1806.45
1856.8892
1868.2993
1851.1312
1815.4436
1769.5687
1719.725
1670.0961
1623.407
1581.3251
1544.7832
1514.2211
1489.7316
1471.324
1459.4743
1454.866
13.672509
27.359561
41.871648
55.550752
68.315743
79.771236
89.415528
96.581251
100.40729
99.849048
93.763607
81.007123
60.559405
32.098245
-2.58963
-38.476807
-68.50186
-86.407755
-88.110034
-71.43119
-35.489495
20.054169
95.479487
191.07389
307.00138
442.97361
597.96308
769.86581
954.48583
1144.302
1327.8971
1491.4047
1622.6063
1715.1568
1769.5579
1791.0639
1787.1666
1765.5773
1733.0734
1695.0582
1655.4636
1616.9946
1581.4711
1550.0423
1523.3735
1501.7676
1485.4002
1474.8153
1470.6914
11.353737
24.027819
37.645104
50.50056
62.432392
73.046833
81.880121
88.352122
91.760794
91.312718
86.206098
75.732666
59.44587
37.650849
12.275802
-12.652605
-31.897036
-40.645223
-35.405084
-14.037798
24.575538
80.98846
155.49858
248.21865
358.97857
487.10028
631.16266
788.66212
955.34908
1124.5375
1287
1432.2483
1551.2805
1639.1811
1695.7799
1724.5055
1730.7502
1720.4244
1699.0135
1671.1271
1640.3517
1609.2938
1579.8158
1553.1934
1530.248
1511.4415
1497.08
1487.7494
1484.1079
11.407405
23.295983
35.923457
47.754339
58.666204
68.305069
76.268532
82.076814
85.182653
85.010433
81.033254
72.876266
60.488945
44.521855
26.847023
10.72093
0.16229796
-1.0283953
10.105371
35.553958
76.498842
133.57359
207.05514
296.91492
402.7468
523.6092
657.83547
802.75917
954.29723
1106.6007
1252.1845
1382.9756
1492.1646
1575.8548
1633.5316
1667.4215
1681.4225
1680.0722
1667.8004
1648.5065
1625.3923
1600.9186
1576.9179
1554.7272
1535.268
1519.1188
1506.6847
1498.5705
1495.3987
10.34369
21.515199
33.41846
44.56053
54.805677
63.829464
71.285796
76.7871
79.922924
80.301688
77.620608
71.762606
62.95093
52.019313
40.711514
31.704613
28.181905
33.20634
49.281253
78.20442
121.12221
178.668
251.07269
338.19335
439.45908
553.75822
679.29323
813.38259
952.21549
1090.7115
1222.7515
1342.0033
1443.1852
1523.1436
1581.1973
1618.774
1638.7039
1644.4831
1639.6905
1627.6168
1611.083
1592.3714
1573.2516
1555.0723
1538.8132
1525.1351
1514.5166
1507.5612
1504.8395
9.9405997
20.476347
31.670288
42.130002
51.740071
60.213333
67.259766
72.57524
75.865324
76.886754
75.510387
71.80739
66.178147
59.538017
53.481293
50.249819
52.43166
62.543953
82.715205
114.543
159.08961
216.94407
288.27821
372.85693
469.99615
578.48227
696.4678
821.34184
949.60222
1076.8386
1197.9927
1307.9984
1402.6586
1479.3701
1537.3817
1577.5854
1602.046
1613.4718
1614.7643
1608.7018
1597.7599
1584.0285
1569.1944
1554.5867
1541.2125
1529.7898
1520.8528
1514.9874
1512.6936
9.3564821
19.364672
30.008301
39.956319
49.101874
57.191882
63.988324
69.26156
72.816011
74.529311
74.407964
72.661095
69.801531
66.769535
65.017846
66.459414
73.249387
87.495479
111.02118
145.2358
191.09842
249.13296
319.44861
401.73669
495.23717
598.68218
710.22654
827.37318
946.92385
1065.0321
1177.4573
1280.0605
1369.4254
1443.3602
1501.0943
1543.1584
1571.0668
1586.9347
1593.1295
1592.0071
1585.7419
1576.2385
1565.0921
1553.5961
1542.7637
1533.3525
1525.9437
1521.0961
1519.2106
8.9349198
18.485925
28.650061
38.160457
46.922837
54.715698
61.346594
66.648602
70.506368
72.892287
73.915152
73.881656
73.372772
73.323483
75.061914
80.251886
90.729802
108.29442
134.52467
170.66345
217.56528
275.68331
345.06678
425.34916
515.72101
614.89182
721.04875
831.82339
944.29386
1055.0746
1160.5507
1257.2642
1342.3652
1413.9708
1471.3166
1514.6886
1545.2059
1564.5398
1574.6428
1577.5292
1575.1202
1569.1528
1561.1299
1552.3027
1543.6753
1536.0298
1529.9957
1526.1076
1524.6263
8.5490849
17.743426
27.53966
36.720598
45.201141
52.788137
59.328821
64.708745
68.877144
71.879971
73.902183
75.31823
76.748588
79.109476
83.625403
91.77279
105.15311
125.33304
153.69926
191.35471
239.05863
297.19708
365.76622
444.35507
532.12334
627.77722
729.54978
835.19757
942.03535
1047.0436
1147.0793
1239.1827
1320.9149
1390.6226
1447.5584
1491.8428
1524.312
1546.3087
1559.4682
1565.5346
1566.2223
1563.1246
1557.6593
1551.0354
1544.239
1538.0666
1533.2131
1530.2281
1529.1733
8.1797919
17.102068
26.616361
35.549367
43.821691
51.264891
57.758982
63.231191
67.680425
71.20759
74.052593
76.635731
79.599293
83.837234
90.492178
100.90216
116.49778
138.67441
168.6721
207.48189
255.78281
313.9031
381.79492
459.0141
544.70191
637.57117
735.90266
837.56232
940.05608
1040.6447
1136.5327
1225.119
1304.2585
1372.4661
1429.014
1473.9123
1507.7984
1531.7775
1547.2492
1555.7521
1558.8388
1557.9876
1554.5459
1549.689
1544.3862
1539.4369
1535.617
1533.5684
1533.0778
7.8074628
16.603247
25.940261
34.712464
42.846989
50.199362
56.676615
62.238045
66.919298
70.860786
74.340495
77.808537
81.918121
87.542169
95.761458
107.81584
125.01723
148.64062
179.82015
219.46344
268.18769
326.27588
393.64663
469.83239
553.96418
644.76503
740.55752
839.29447
938.62573
1036.0149
1128.9111
1214.9614
1292.2231
1359.3288
1415.5685
1460.8802
1495.767
1521.1691
1538.3194
1548.6079
1553.4682
1554.2921
1552.3723
1548.859
1544.7055
1540.6823
1537.6141
1536.3938
1536.6789
7.3041578
16.16768
25.42416
34.111385
42.165204
49.465598
55.940382
61.571025
66.417274
70.644587
74.554281
78.613544
83.479818
90.010291
99.245834
112.36633
130.61014
155.17359
187.12057
227.30323
276.29698
334.35394
401.37023
476.86338
559.95911
649.38936
743.50686
840.32395
937.58598
1032.8879
1123.8347
1208.2293
1284.2564
1350.6235
1406.6336
1452.1815
1487.6871
1513.9862
1532.2049
1543.6368
1549.6373
1551.5384
1550.5928
1547.9361
1544.5157
1541.0472
1538.3507
1537.9201
1540.1132
6.0814575
15.835463
25.143159
33.822798
41.84593
49.124569
55.600749
61.268137
66.198788
70.570686
74.696897
79.053358
84.300384
91.289989
101.04783
114.71763
133.49009
158.52466
190.85532
231.30732
280.43518
338.47537
405.31251
480.4566
563.03077
651.77184
745.04823
840.90286
937.12939
1031.3886
1121.3626
1204.9314
1280.3424
1346.3407
1402.2365
1447.9045
1483.724
1510.4799
1529.2466
1541.2704
1547.8635
1550.3273
1549.9022
1547.7276
1544.7605
1541.6762
1539.2604
1539.7834
1545.6256
-2227.7591
-2483.6258
-2699.5398
-2881.4844
-3023.968
-3106.215
-3108.2258
-3029.2216
-2857.2789
-2664.0036
-3205.3889
-3205.2809
-3198.4354
-3187.4485
-3173.3343
-3160.5815
-3148.7457
-3158.2124
-3158.8145
-3131.4102
-3183.0313
-3181.9068
-3167.1524
-3150.1892
-3133.2741
-3124.2833
-3105.9907
-3113.2078
-3100.0762
-3046.55
-3137.8419
-3135.1798
-3126.5766
-3117.8809
-3109.0874
-3112.0996
-3101.004
-3098.9713
-3085.5701
-3048.7082
-3078.1498
-3076.7152
-3072.1697
-3066.2523
-3057.7468
-3058.1468
-3057.8125
-3057.1424
-3055.6638
-3059.4007
-3030.1691
-3029.3767
-3023.6159
-3013.4547
-2998.1998
-2968.6375
-2990.8015
-3003.1023
-3009.748
-3023.0968
-3013.4128
-3015.1069
-3018.3586
-3021.7458
-3032.6625
-3008.5366
-3008.2146
-3004.5873
-2989.6692
-2966.6811
-3027.923
-3029.5539
-3035.6397
-3044.3361
-3068.3861
-3076.1026
-3056.7214
-3030.7039
-3000.8671
-2965.4632
-3848.4524
-3860.7647
-3831.7259
-3787.3163
-3749.7565
-3717.6914
-3696.1881
-3682.4619
-3673.522
-3675.2641
-2986.9813
-2985.7892
-2977.9082
-2960.9531
-2921.5849
-2946.9459
-2958.9507
-2961.1434
-2950.6575
-2923.5506
-3009.2479
-3012.3244
-3018.6876
-3037.931
-3013.9709
-3005.2504
-3001.2988
-2993.8832
-2979.8931
-2964.7514
-3048.5065
-3050.9591
-3056.137
-3080.7262
-3093.4959
-3069.4237
-3042.6917
-3022.4071
-3003.5383
-2987.0526
-2999.6593
-2995.8306
-2976.9418
-2951.6609
-2974.5978
-2992.0788
-3003.3179
-3010.7378
-3013.0009
-3020.0183
-3033.265
-3035.7254
-3034.8618
-2997.9706
-3007.104
-3020.7168
-3031.517
-3038.75
-3041.7994
-3051.3641
-3156.8899
-3164.6839
-3188.9172
-3187.4464
-3159.5466
-3131.7556
-3111.0621
-3095.6693
-3080.2518
-3063.019
-3141.9777
-3137.143
-3129.6594
-3149.8305
-3150.4243
-3144.6316
-3138.4091
-3132.974
-3126.976
-3128.8783
-3162.7552
-3162.0346
-3137.7501
-3147.9042
-3159.3499
-3167.486
-3171.9061
-3173.7099
-3173.0004
-3177.7018
-3277.1159
-3289.5192
-3285.4684
-3271.1272
-3255.8054
-3243.7646
-3235.0331
-3229.2394
-3222.4241
-3213.8638
-3282.4885
-3286.56
-3294.0146
-3285.9367
-3276.2936
-3270.7936
-3270.5585
-3274.9996
-3280.0403
-3292.3428
-3186.3245
-3172.2145
-3189.5509
-3215.4278
-3244.9012
-3273.5981
-3300.572
-3325.1449
-3345.2977
-3370.2629
-3326.0527
-3302.4336
-3312.041
-3332.3487
-3359.1121
-3384.36
-3406.8255
-3425.2568
-3437.7752
-3453.4901
-3701.6745
-3692.6551
-3661.9564
-3627.8853
-3602.8064
-3583.3212
-3571.2311
-3564.0732
-3557.9582
-3555.0922
-3016.6785
-3015.1529
-3009.7379
-2998.1196
-2992.6336
-2999.8924
-2999.5296
-2994.179
-2984.9468
-2983.9231
-3540.5381
-3549.135
-3563.5693
-3610.8531
-3667.0287
-3718.8602
-3739.9425
-3721.8035
-3638.1028
-3466.2532
-3268.7585
-3268.9933
-3271.9428
-3276.8109
-3277.9217
-3277.0256
-3275.0643
-3269.9197
-3265.762
-3219.2848
-3179.5262
-3227.5524
-3289.6669
-3394.3699
-3505.6952
-3592.5209
-3635.0766
-3595.2072
-3447.0639
-3214.6351
-3480.2768
-3490.3204
-3511.2511
-3547.9504
-3581.5987
-3610.2583
-3618.8294
-3618.3246
-3582.5466
-3470.1575
-3367.3452
-3371.7352
-3385.9147
-3409.873
-3430.8339
-3448.4898
-3456.6154
-3446.1965
-3433.5788
-3381.8273
11318.722
10715.547
10129.575
9489.9394
8832.8462
8179.5392
7545.1805
6936.7839
6347.3442
5770.3043
8301.8486
8224.5317
8101.2597
7839.6077
7501.7193
7111.285
6689.6067
6254.5663
5816.3992
5360.0012
-3709.5004
-3727.936
-3745.3437
-3751.3101
-3759.9988
-3763.2631
-3768.0586
-3771.4944
-3772.8196
-3776.3112
-3705.8516
-3709.7028
-3745.0491
-3776.2798
-3815.3388
-3842.5105
-3866.4368
-3882.4669
-3891.1144
-3895.3022
-3946.5152
-3939.2797
-3955.5086
-3963.0857
-3991.4656
-4009.8453
-4029.6722
-4042.6485
-4048.0678
-4043.6179
-4222.4229
-4212.0679
-4226.3368
-4216.9232
-4232.9944
-4234.8763
-4241.3989
-4242.4475
-4238.8755
-4234.5144
-4544.8764
-4526.7367
-4538.4819
-4511.4467
-4515.2325
-4497.3856
-4484.9275
-4464.9005
-4437.233
-4404.8723
-4901.1052
-4873.883
-4883.4901
-4837.0688
-4828.6369
-4790.1479
-4757.317
-4713.8949
-4659.2254
-4599.0144
-5281.8493
-5243.3989
-5252.039
-5185.2217
-5165.6716
-5107.5829
-5056.1875
-4992.7185
-4916.4631
-4831.1512
-5682.8599
-5630.7848
-5639.6095
-5550.5884
-5519.7715
-5441.5435
-5370.8772
-5288.4423
-5198.4683
-5115.9179
-6105.0437
-6035.9212
-6045.7703
-5931.776
-5888.3053
-5787.8965
-5693.529
-5583.5005
-5458.1873
-5322.5869
-6548.5
-6458.4122
-6470.8429
-6329.198
-6271.9438
-6149.0591
-6030.8961
-5896.784
-5747.1779
-5585.4185
-7019.3411
-6902.2101
-6917.9741
-6744.4914
-6670.3451
-6522.7543
-6376.8529
-6214.628
-6036.1366
-5850.266
-7516.44
-7366.2086
-7388.326
-7179.8867
-7085.7236
-6911.6631
-6733.8682
-6537.7858
-6319.1646
-6081.8845
-8058.1144
-7863.4474
-7892.3973
-7643.1903