/*--------------------------------*- C++ -*----------------------------------*\
| =========                 |                                                 |
| \\      /  F ield         | foam-extend: Open Source CFD                    |
|  \\    /   O peration     | Version:     4.1                                |
|   \\  /    A nd           | Web:         http://www.foam-extend.org         |
|    \\/     M anipulation  |                                                 |
\*---------------------------------------------------------------------------*/
FoamFile
{
    version     2.0;
    format      ascii;
    class       surfaceScalarField;
    location    "1.55";
    object      phi;
}
// * * * * * * * * * * * * * * * * * * * * * * * * * * * * * * * * * * * * * //

dimensions      [0 3 -1 0 0 0 0];

internalField   nonuniform List<scalar> 
8438
(
-0.59744717
0.0016735747
-0.59918601
0.0017388457
-0.60095974
0.0017737304
-0.60277736
0.0018176168
-0.60464862
0.0018712599
-0.60658395
0.0019353363
-0.60859277
0.0020088153
-0.61068268
0.0020899057
-0.61285879
0.00217611
-0.61512302
0.0022642368
-0.61747342
0.002350397
-0.61990346
0.0024300392
-0.62240151
0.0024980522
-0.62495047
0.0025489571
-0.62752765
0.0025771846
-0.63010509
0.0025774383
-0.63265009
0.0025449946
-0.63512609
0.0024760024
-0.6374937
0.0023676129
-0.63971167
0.0022179699
-0.64173781
0.002026135
-0.6435298
0.0017919948
-0.64504604
0.0015162422
-0.64624654
0.0012004974
-0.64709416
0.00084761989
-0.64755639
0.00046222442
-0.64760745
5.1063362e-05
-0.64722997
-0.00037747711
-0.64641896
-0.00081100918
-0.6451859
-0.0012330659
-0.64355966
-0.0016262424
-0.64158628
-0.0019733716
-0.63932685
-0.0022594358
-0.63685338
-0.0024734682
-0.63424361
-0.0026097657
-0.63157548
-0.0026681304
-0.62892227
-0.002653211
-0.62634902
-0.0025732551
-0.62391038
-0.00243864
-0.62164988
-0.0022604931
-0.61960029
-0.0020495931
-0.61778467
-0.0018156156
-0.61621798
-0.0015666997
-0.61490862
-0.0013093577
-0.61385967
-0.0010489465
-0.61306934
-0.00079033332
-0.61253392
-0.00053541583
-0.61225857
-0.00027535526
-1.3616136e-05
-0.61123932
0.0031393395
-0.61269844
0.0031979713
-0.61418469
0.0032599837
-0.61571134
0.0033442586
-0.61729081
0.0034507375
-0.61893433
0.0035788536
-0.62065174
0.0037262188
-0.62245099
0.0038891572
-0.62433754
0.0040626627
-0.62631365
0.004240352
-0.62837769
0.0044144315
-0.6305234
0.0045757535
-0.63273937
0.0047140139
-0.63500854
0.0048181347
-0.63730819
0.0048768303
-0.63961011
0.0048793558
-0.64188125
0.0048161397
-0.64408465
0.0046794034
-0.64618047
0.0044634246
-0.648127
0.0041645054
-0.64988166
0.0037807905
-0.65140171
0.0033120492
-0.65264508
0.0027596143
-0.6535712
0.0021266163
-0.65414218
0.0014186008
-0.65432449
0.00064453549
-0.65409144
-0.00018199483
-0.65342717
-0.001041744
-0.65232856
-0.0019096183
-0.65080653
-0.0027550948
-0.64888913
-0.0035436399
-0.6466221
-0.0042404053
-0.64406683
-0.0048147063
-0.64129618
-0.00524412
-0.6383889
-0.0055170459
-0.63542384
-0.0056331872
-0.63247491
-0.0056021397
-0.6296074
-0.0054407719
-0.62687585
-0.0051701801
-0.62432349
-0.0048128628
-0.62198258
-0.0043904957
-0.61987577
-0.0039224255
-0.61801763
-0.0034248413
-0.61641635
-0.0029106355
-0.61507525
-0.0023900494
-0.61399457
-0.0018710134
-0.61317381
-0.0013561776
-0.61260469
-0.00084446857
-0.00037351022
-0.61228485
0.0045549617
-0.61369872
0.0046118353
-0.61513739
0.0046986529
-0.61661582
0.0048226879
-0.6181473
0.0049822237
-0.61974365
0.0051751985
-0.62141518
0.0053977552
-0.62317037
0.0056443465
-0.62501523
0.0059075176
-0.62695263
0.0061777537
-0.62898159
0.0064433863
-0.63109648
0.0066906466
-0.6332864
0.0069039401
-0.63553469
0.0070664165
-0.6378187
0.007160843
-0.64011013
0.0071707818
-0.6423756
0.0070816149
-0.64457772
0.0068815253
-0.6466762
0.006561902
-0.64862894
0.0061172484
-0.65039298
0.0055448305
-0.6519252
0.0048442621
-0.65318293
0.0040173483
-0.65412472
0.0030684059
-0.65471132
0.0020052036
-0.65490734
0.00084055224
-0.65468363
-0.0004057039
-0.65402013
-0.0017052418
-0.6529094
-0.0030203558
-0.65136036
-0.0043041322
-0.64940092
-0.0055030806
-0.64707852
-0.0065628018
-0.644458
-0.0074352317
-0.64161674
-0.0080853723
-0.63863834
-0.0084954466
-0.63560595
-0.0086655768
-0.63259673
-0.0086113653
-0.62967792
-0.0083595807
-0.62690484
-0.00794326
-0.62432044
-0.0073972626
-0.62195609
-0.0067548425
-0.61983312
-0.0060453978
-0.61796465
-0.005293313
-0.61635748
-0.0045178082
-0.61501398
-0.0037335465
-0.61393431
-0.0029506845
-0.61311673
-0.0021737536
-0.61255274
-0.0014084603
-0.00068129917
-0.61264179
0.0059411991
-0.61403529
0.0060053318
-0.61545424
0.0061175998
-0.61691359
0.0062820362
-0.6184271
0.0064957399
-0.62000729
0.0067553882
-0.62166526
0.0070557227
-0.62341031
0.0073893981
-0.62524937
0.0077465796
-0.62718628
0.0081146574
-0.62922095
0.0084780606
-0.63134858
0.008818275
-0.63355881
0.009114171
-0.63583515
0.0093427544
-0.63815469
0.0094803807
-0.64048835
0.0095044411
-0.64280161
0.0093948838
-0.64505573
0.0091356411
-0.64720902
0.0087151914
-0.64921812
0.0081263487
-0.65103892
0.0073656301
-0.65262718
0.0064325267
-0.65393899
0.0053291546
-0.6549312
0.0040606145
-0.65556227
0.00263627
-0.65579373
0.0010720118
-0.65559262
-0.00060681428
-0.65493482
-0.0023630423
-0.65380916
-0.0041460096
-0.65222203
-0.005891261
-0.65020101
-0.0075241003
-0.64779616
-0.0089676519
-0.64507771
-0.010153685
-0.64213028
-0.011032804
-0.63904509
-0.011580634
-0.63591207
-0.011798598
-0.63281339
-0.011710045
-0.62981927
-0.011353702
-0.62698605
-0.010776473
-0.62435621
-0.010027102
-0.62195961
-0.0091514496
-0.61981548
-0.008189522
-0.61793472
-0.0071740788
-0.616322
-0.0061305264
-0.614978
-0.0050775429
-0.61390129
-0.0040273972
-0.61308826
-0.0029867827
-0.61253352
-0.0019631975
-0.00096987248
-0.61306642
0.0073003879
-0.61443669
0.0073756056
-0.61583338
0.0075142852
-0.61727162
0.0077202767
-0.61876567
0.0079897938
-0.62032883
0.0083185427
-0.62197314
0.0087000303
-0.623709
0.0091252575
-0.62554454
0.0095821278
-0.62748489
0.010055003
-0.62953121
0.010524384
-0.63167979
0.010966852
-0.63392103
0.011355411
-0.63623868
0.011660407
-0.63860942
0.011851119
-0.64100306
0.011898078
-0.64338342
0.011775246
-0.6457098
0.011462023
-0.64793861
0.010943997
-0.65002478
0.010212519
-0.65192277
0.0092636196
-0.65358702
0.0080967828
-0.65497213
0.0067142636
-0.65603293
0.0051214103
-0.65672495
0.0033282937
-0.6570057
0.0013527573
-0.65683705
-0.0007754614
-0.65618912
-0.0030109729
-0.65504514
-0.0052899863
-0.65340746
-0.0075289475
-0.65130282
-0.0096287337
-0.64878483
-0.011485651
-0.64593141
-0.013007099
-0.64283764
-0.014126578
-0.63960572
-0.014812557
-0.63633514
-0.015069177
-0.633115
-0.014930183
-0.63001942
-0.014449283
-0.62710589
-0.01369
-0.62441592
-0.01271707
-0.62197705
-0.011590325
-0.6198055
-0.010361066
-0.617909
-0.0090705776
-0.61628934
-0.0077501868
-0.61494476
-0.0064221259
-0.61387165
-0.0051005033
-0.61306508
-0.0037933524
-0.61252114
-0.0025071381
-0.0012462157
-0.61360378
0.0086273419
-0.61494439
0.008716221
-0.61631278
0.0088826726
-0.61772424
0.0091317416
-0.61919362
0.009459169
-0.62073509
0.0098600129
-0.62236185
0.010326789
-0.62408565
0.010849063
-0.62591619
0.011412665
-0.62786023
0.011999046
-0.62992063
0.012584781
-0.63209515
0.013141371
-0.63437528
0.013635543
-0.63674518
0.014030302
-0.63918101
0.014286948
-0.64165111
0.014368184
-0.64411707
0.014241205
-0.64653555
0.013880505
-0.64886042
0.013268864
-0.65104447
0.012396568
-0.65304046
0.011259614
-0.6548014
0.0098577225
-0.65628026
0.0081931178
-0.65742954
0.0062706996
-0.65820128
0.004100026
-0.65854781
0.0016992947
-0.65842428
-0.00089899477
-0.65779294
-0.0036423189
-0.65662905
-0.0064538675
-0.65492887
-0.0092291306
-0.6527174
-0.011840209
-0.65005267
-0.014150374
-0.64702325
-0.016036519
-0.64373871
-0.017411121
-0.64031642
-0.018234851
-0.6368688
-0.018516791
-0.63349401
-0.018304975
-0.63027091
-0.017672387
-0.62725799
-0.016702917
-0.624495
-0.015480063
-0.622006
-0.014079324
-0.61980298
-0.012564082
-0.61788932
-0.010984234
-0.61626285
-0.0093766596
-0.61491838
-0.0077665995
-0.61384945
-0.0061694261
-0.61304947
-0.0045933338
-0.61251416
-0.0030424499
-0.0015154265
-0.61425698
0.0099183211
-0.61556199
0.01002124
-0.61689569
0.010216364
-0.61827406
0.010510115
-0.61971273
0.010897843
-0.62122695
0.011374232
-0.62283126
0.011931097
-0.62453906
0.012556865
-0.62636195
0.013235558
-0.62830882
0.013945913
-0.63038467
0.014660628
-0.63258925
0.015345952
-0.63491557
0.015961858
-0.63734841
0.01646315
-0.6398634
0.016801936
-0.64242697
0.016931753
-0.64499771
0.01681194
-0.64752879
0.016411588
-0.64997079
0.015710866
-0.65227389
0.014699663
-0.65438898
0.013374704
-0.65626767
0.011736408
-0.6578614
0.0097868483
-0.65912032
0.0075296209
-0.65999244
0.0049721528
-0.66042393
0.0021307825
-0.6603613
-0.00096162646
-0.65975636
-0.0042472602
-0.65857327
-0.0076369554
-0.65679915
-0.011003248
-0.6544556
-0.014183764
-0.65160601
-0.01699996
-0.64835324
-0.01928929
-0.64482674
-0.020937625
-0.64116442
-0.021897167
-0.6374958
-0.022185408
-0.63393043
-0.021870349
-0.63055262
-0.021050192
-0.62742137
-0.019834171
-0.62457342
-0.01832801
-0.6220279
-0.01662485
-0.61979106
-0.014800923
-0.61786063
-0.01291466
-0.61622936
-0.011007924
-0.61488775
-0.0091082098
-0.61382587
-0.0072313087
-0.61303474
-0.00538446
-0.61250833
-0.0035688632
-0.001778808
-0.61502046
0.011164885
-0.61628263
0.011283412
-0.61757484
0.011508573
-0.61891351
0.011848791
-0.62031512
0.012299444
-0.62179608
0.012855194
-0.6233725
0.013507519
-0.62505973
0.014244095
-0.62687168
0.015047512
-0.62881985
0.015894082
-0.63091199
0.016752761
-0.63315045
0.017584415
-0.63553032
0.018341728
-0.63803741
0.018970244
-0.64064677
0.019411289
-0.64332239
0.019607375
-0.6460189
0.019508454
-0.64868487
0.019077553
-0.65126661
0.018292605
-0.65371115
0.017144204
-0.65596746
0.01563102
-0.65798603
0.013754972
-0.65971717
0.011517987
-0.66110888
0.0089213374
-0.66210496
0.0059682264
-0.66264431
0.0026701391
-0.66266281
-0.00094313324
-0.66209864
-0.0048114236
-0.66090071
-0.008834885
-0.65904264
-0.012861316
-0.65653977
-0.01668664
-0.6534616
-0.020078127
-0.64993015
-0.022820739
-0.64610204
-0.024765732
-0.64214288
-0.025856333
-0.63820439
-0.026123893
-0.63441012
-0.025664625
-0.63085018
-0.024610131
-0.62758291
-0.023101443
-0.6246402
-0.021270719
-0.62203415
-0.019230899
-0.61976341
-0.017071661
-0.61781849
-0.014859585
-0.61618582
-0.012640594
-0.61485068
-0.010443342
-0.61379911
-0.0082828852
-0.6130192
-0.0061643682
-0.61250253
-0.0040855314
-0.0020365399
-0.61589531
0.012363635
-0.61710865
0.012496753
-0.61835249
0.012752414
-0.61964438
0.013140682
-0.62100183
0.013656889
-0.6224426
0.01429597
-0.62398458
0.015049493
-0.62564535
0.015904867
-0.62744159
0.016843752
-0.62938798
0.017840478
-0.63149574
0.018860514
-0.63377061
0.019859289
-0.63621054
0.020781661
-0.63880295
0.021562655
-0.64152239
0.022130722
-0.6443298
0.022414791
-0.64717458
0.022353228
-0.64999911
0.021902087
-0.65274424
0.021037732
-0.65535324
0.019753207
-0.65777328
0.018051052
-0.65995429
0.015935982
-0.66184629
0.013409989
-0.66339581
0.010470862
-0.66454251
0.0071149189
-0.66521718
0.0033448154
-0.66534276
-0.00081755368
-0.66483994
-0.0053142489
-0.66363681
-0.010038013
-0.66168716
-0.014810966
-0.6589953
-0.0193785
-0.65563716
-0.023436263
-0.65176053
-0.026697367
-0.64755943
-0.028966837
-0.64323679
-0.030178972
-0.6389731
-0.030387586
-0.6349086
-0.02972912
-0.63113898
-0.028379749
-0.62771988
-0.026520546
-0.62467558
-0.024315017
-0.62200844
-0.021898037
-0.61970715
-0.019372959
-0.61775313
-0.016813604
-0.61612516
-0.014268556
-0.6148024
-0.011766109
-0.61376616
-0.0093191172
-0.61300116
-0.0069293719
-0.61249627
-0.0045904181
-0.0022878642
-0.6168749
0.013502649
-0.61803068
0.013652533
-0.6192184
0.013940134
-0.62045586
0.014378139
-0.62176148
0.014962511
-0.62315445
0.015688937
-0.62465457
0.016549609
-0.62628199
0.017532295
-0.62805663
0.018618393
-0.62999703
0.019780877
-0.6321187
0.020982177
-0.63443179
0.022172381
-0.63693816
0.023288029
-0.63962769
0.024252188
-0.64247471
0.024977737
-0.64543634
0.025376425
-0.64845496
0.025371842
-0.65146463
0.024911759
-0.65439898
0.023972083
-0.65719683
0.02255106
-0.65980384
0.020658062
-0.66217049
0.018302631
-0.66424787
0.015487366
-0.66598232
0.012205316
-0.66731
0.0084426013
-0.66815302
0.0041878321
-0.66841903
-0.00055154649
-0.66800646
-0.0057268199
-0.66681546
-0.011229007
-0.66477084
-0.016855592
-0.66185798
-0.022291361
-0.6581585
-0.027135736
-0.65385515
-0.031000724
-0.64919402
-0.033627957
-0.64442877
-0.034944223
-0.63977685
-0.035039512
-0.63539787
-0.0341081
-0.63139171
-0.032385903
-0.62780792
-0.030104339
-0.62465921
-0.027463724
-0.62193459
-0.024622658
-0.6196099
-0.02169765
-0.61765542
-0.018768082
-0.61604086
-0.015883116
-0.61473833
-0.013068641
-0.61372395
-0.010333497
-0.61297865
-0.0076746752
-0.61248851
-0.0050805612
-0.0025314195
-0.61795824
0.014581215
-0.61905096
0.014745254
-0.62017532
0.015064496
-0.62135055
0.015553371
-0.62259621
0.016208168
-0.62393296
0.017025685
-0.62538269
0.01799934
-0.62696842
0.019118021
-0.62871376
0.020363741
-0.63064188
0.021708992
-0.63277358
0.023113878
-0.63512468
0.024523483
-0.63770237
0.025865714
-0.64050031
0.027050128
-0.64349317
0.027970604
-0.64663341
0.028516661
-0.64985394
0.028592376
-0.65307747
0.028135287
-0.65622803
0.027122641
-0.65923916
0.025562185
-0.66205573
0.023474635
-0.66463048
0.020877383
-0.66691773
0.017774611
-0.66886576
0.014153347
-0.67040864
0.0099854788
-0.67145956
0.0052387523
-0.67190885
-0.00010225131
-0.67162683
-0.0060088446
-0.67047653
-0.012379306
-0.66834076
-0.018991362
-0.66517299
-0.025459132
-0.66105756
-0.031251164
-0.65622511
-0.035833169
-0.65099574
-0.038857332
-0.64569249
-0.040247466
-0.64058019
-0.040151819
-0.63583988
-0.03884841
-0.63157244
-0.036653344
-0.62781585
-0.033860927
-0.62456569
-0.030713886
-0.62179292
-0.027395424
-0.61945709
-0.024033477
-0.61751501
-0.020710169
-0.61592586
-0.017472264
-0.61465393
-0.014340567
-0.61366973
-0.0113177
-0.61295022
-0.0083941818
-0.61247871
-0.0055520718
-0.0027653301
-0.61914198
0.015582388
-0.62016077
0.015764051
-0.6212127
0.016116425
-0.62231663
0.016657303
-0.62349287
0.0173844
-0.62476346
0.018296285
-0.62615249
0.019388362
-0.62768606
0.020651591
-0.62939204
0.022069725
-0.63129904
0.023615991
-0.6334344
0.025249242
-0.63582119
0.026910271
-0.63847384
0.028518365
-0.64139182
0.029968105
-0.64455132
0.031130103
-0.64789916
0.031864499
-0.65135543
0.032048648
-0.65482692
0.031606779
-0.65822457
0.030520289
-0.66147549
0.028813108
-0.66452496
0.0265241
-0.66733044
0.023682866
-0.66985255
0.020296721
-0.67204474
0.016345534
-0.67384159
0.011782332
-0.67514796
0.0065451207
-0.67583362
0.00058340813
-0.67573584
-0.0061066237
-0.67467066
-0.013444487
-0.67245946
-0.02120256
-0.66900236
-0.02891623
-0.66437868
-0.035874847
-0.65888558
-0.041326268
-0.65295063
-0.044792283
-0.64699297
-0.046205128
-0.64133763
-0.045807158
-0.63618754
-0.043998495
-0.63163826
-0.041202625
-0.6277078
-0.037791385
-0.62436686
-0.034054824
-0.62156245
-0.03019984
-0.61923377
-0.026362156
-0.61732168
-0.022622254
-0.61577355
-0.019020395
-0.61454522
-0.015568902
-0.61360136
-0.012261555
-0.61291503
-0.0090805115
-0.6124669
-0.0060002064
-0.0029872783
-0.62041601
0.016509916
-0.62135649
0.016704537
-0.6223287
0.017088627
-0.62335307
0.017681682
-0.62445087
0.018482192
-0.6256455
0.019490921
-0.62696322
0.020706074
-0.62843342
0.022121797
-0.6300887
0.023724999
-0.63196397
0.025491261
-0.6340945
0.027379773
-0.63651248
0.029328253
-0.63924208
0.031247959
-0.64229141
0.033017436
-0.64564028
0.03447898
-0.64922898
0.035453196
-0.6529599
0.035779566
-0.65671716
0.035364041
-0.66039348
0.034196603
-0.66390827
0.032327897
-0.66720944
0.029825273
-0.67026323
0.026736662
-0.67304111
0.023074593
-0.67550646
0.018810893
-0.67759876
0.013874622
-0.67921654
0.008162901
-0.68020745
0.001574327
-0.680369
-0.0059450772
-0.67945662
-0.014356869
-0.67720537
-0.023453813
-0.67342744
-0.032694156
-0.66817962
-0.041122668
-0.66185245
-0.047653435
-0.6550343
-0.051610438
-0.64827864
-0.052960783
-0.6419862
-0.052099598
-0.63637858
-0.049606116
-0.63153461
-0.046046593
-0.62743967
-0.041886321
-0.62402913
-0.03746537
-0.62121869
-0.033010281
-0.61892274
-0.028658108
-0.61706377
-0.02448122
-0.61557624
-0.020507923
-0.61440727
-0.016737874
-0.61351583
-0.013152996
-0.61287131
-0.0097250303
-0.61245208
-0.0064194346
-0.0031945582
-0.62178408
0.017340802
-0.62263305
0.017553513
-0.62351511
0.017970688
-0.62444933
0.018615901
-0.62545711
0.019489968
-0.62656288
0.020596698
-0.62779491
0.021938106
-0.62918598
0.023512861
-0.63077376
0.025312783
-0.63260047
0.027317968
-0.63471091
0.029490215
-0.6371488
0.03176614
-0.63995131
0.034050469
-0.64313958
0.036205711
-0.64670101
0.038040406
-0.65056915
0.039321335
-0.65462208
0.039832499
-0.65871123
0.039453191
-0.66270346
0.038188834
-0.66650883
0.036133264
-0.67008142
0.033397864
-0.67340169
0.030056934
-0.67645743
0.026130331
-0.67922793
0.021581393
-0.68166373
0.01631042
-0.68366113
0.010160304
-0.68504494
0.002958135
-0.6855664
-0.0054236201
-0.68490676
-0.015016508
-0.6826823
-0.025678271
-0.67856204
-0.036814414
-0.67254266
-0.047142047
-0.66514627
-0.05504983
-0.65721049
-0.059546214
-0.64947825
-0.06069302
-0.64244327
-0.059134578
-0.63633521
-0.055714179
-0.63119663
-0.051185172
-0.62696164
-0.046121315
-0.62351646
-0.040910545
-0.62073686
-0.03578988
-0.6185077
-0.030887274
-0.61673103
-0.02625789
-0.61532785
-0.021911104
-0.61423677
-0.017828948
-0.6134116
-0.013978171
-0.61281865
-0.010317976
-0.61243453
-0.0068035537
-0.0033841423
-0.6232128
0.01808403
-0.62396717
0.018307879
-0.62475179
0.018755311
-0.62558715
0.019451262
-0.626495
0.020397811
-0.62750058
0.02160228
-0.62863399
0.023071515
-0.62993133
0.024810206
-0.63143571
0.026817161
-0.63319751
0.029079764
-0.63527287
0.031565582
-0.6377198
0.034213064
-0.64059244
0.03692311
-0.64393089
0.039544158
-0.64773663
0.041846154
-0.65193737
0.043522075
-0.65637685
0.044271979
-0.66085756
0.043933897
-0.66520812
0.042539395
-0.66932671
0.040251851
-0.67317964
0.037250796
-0.67677021
0.033647506
-0.68011053
0.029470644
-0.68320467
0.024675534
-0.68602507
0.019130822
-0.68847434
0.012609572
-0.69035572
0.0048395159
-0.69136801
-0.0044113261
-0.69110474
-0.015279784
-0.68902368
-0.027759326
-0.68456395
-0.041274145
-0.67758416
-0.054121834
-0.66878933
-0.063844666
-0.6594204
-0.068915144
-0.65048832
-0.069625092
-0.64259643
-0.067026471
-0.63595738
-0.062353233
-0.63054511
-0.056597441
-0.62621573
-0.050450694
-0.62278883
-0.044337446
-0.62009052
-0.038488183
-0.6179718
-0.033005995
-0.61631305
-0.027916644
-0.61502211
-0.023202038
-0.61403006
-0.018821005
-0.61328657
-0.014721664
-0.61275587
-0.010848669
-0.61241358
-0.0071458499
-0.0035527674
-0.6247371
0.018710742
-0.62538234
0.018953127
-0.62605906
0.019432026
-0.62678479
0.020176996
-0.62758032
0.021193336
-0.62847091
0.022492872
-0.62948787
0.024088471
-0.63067016
0.025992502
-0.63206616
0.028213165
-0.633735
0.030748598
-0.63574594
0.033576526
-0.63817442
0.036641539
-0.64109635
0.039845041
-0.64457898
0.043026793
-0.6486494
0.045916567
-0.65323421
0.048106892
-0.65812975
0.049167511
-0.66306534
0.048869492
-0.66781373
0.047287787
-0.67225969
0.044697811
-0.67639371
0.041384811
-0.68025559
0.037509389
-0.68389096
0.033106016
-0.68733731
0.028121875
-0.69060138
0.022394901
-0.69360286
0.015611047
-0.69612483
0.007361491
-0.69780726
-0.0027288953
-0.69814552
-0.014941532
-0.69640195
-0.029502895
-0.6916583
-0.046017795
-0.68347805
-0.06230208
-0.67280694
-0.074515783
-0.66157165
-0.080150428
-0.65116045
-0.080036292
-0.64229542
-0.075891505
-0.63511992
-0.069528731
-0.62948728
-0.062230079
-0.62513852
-0.054799456
-0.62180543
-0.047670532
-0.61925475
-0.041038866
-0.61730052
-0.034960222
-0.61580175
-0.029415419
-0.61465476
-0.02434902
-0.61378499
-0.019690779
-0.61313974
-0.015366911
-0.61268256
-0.011305848
-0.61238908
-0.0074393284
-0.0036970523
-0.62626635
0.019234669
-0.62680024
0.019487018
-0.62736121
0.019992998
-0.62796734
0.020783129
-0.62863848
0.02186447
-0.62939946
0.023253853
-0.63028231
0.024971318
-0.6313285
0.027038699
-0.63259161
0.029476275
-0.63414016
0.032297144
-0.63605876
0.035495123
-0.63844436
0.039027143
-0.64140049
0.042801173
-0.64503219
0.046658489
-0.64941077
0.050295144
-0.65447376
0.053169887
-0.65995079
0.054644535
-0.66545677
0.054375472
-0.67067761
0.052508631
-0.67547952
0.049499715
-0.67989418
0.045799475
-0.68401587
0.041631074
-0.68793199
0.037022136
-0.69172136
0.031911244
-0.69544595
0.026119489
-0.69906793
0.019233035
-0.70236453
0.010658092
-0.70492027
-0.00017315905
-0.70612756
-0.013734241
-0.70503036
-0.030600095
-0.70016745
-0.050880704
-0.69049452
-0.071975009
-0.67722428
-0.087786027
-0.66351626
-0.093858444
-0.65127909
-0.09227346
-0.64133916
-0.085831435
-0.63366804
-0.077199852
-0.62791729
-0.067980829
-0.6236636
-0.059053143
-0.62052755
-0.050806582
-0.61820853
-0.04335789
-0.6164834
-0.036685354
-0.61519254
-0.030706279
-0.61422423
-0.025317324
-0.6135014
-0.020413611
-0.6129715
-0.015896815
-0.61259923
-0.011678121
-0.61236154
-0.0076770116
-0.0038136446
-0.62789335
0.019621647
-0.62830149
0.019895158
-0.62873792
0.020429423
-0.62921568
0.021260895
-0.62975193
0.022400722
-0.63036989
0.023871814
-0.63110111
0.025702535
-0.63198826
0.027925849
-0.63308871
0.030576726
-0.63447934
0.033687776
-0.63626073
0.037276514
-0.63855471
0.041321122
-0.64149758
0.045744045
-0.64524315
0.050404059
-0.64993514
0.054987134
-0.65554973
0.058784471
-0.66172515
0.060819954
-0.66789534
0.06054567
-0.67361416
0.058227445
-0.6787273
0.054612856
-0.68334596
0.050418136
-0.68765633
0.045941441
-0.69180385
0.041169652
-0.69591802
0.036025417
-0.70014754
0.030349008
-0.70453335
0.023618851
-0.70885854
0.014983282
-0.7126143
0.0035826006
-0.71508879
-0.011259756
-0.71513534
-0.030553544
-0.71053261
-0.055483432
-0.69905587
-0.083451745
-0.68204861
-0.10479329
-0.66500969
-0.11089736
-0.65052663
-0.10675652
-0.63945816
-0.096899905
-0.6314127
-0.085245312
-0.62571787
-0.073675656
-0.62172508
-0.063045929
-0.61892161
-0.053610051
-0.61693676
-0.045342738
-0.61551496
-0.038107162
-0.6144844
-0.031736831
-0.61373116
-0.026070564
-0.61318021
-0.020964566
-0.61278244
-0.016294587
-0.612506
-0.011954555
-0.61233071
-0.0078523088
-0.0038994006
-0.6293474
0.019883629
-0.62962643
0.020174189
-0.6299287
0.020731694
-0.63026516
0.02159735
-0.63064959
0.022785157
-0.63110239
0.024324609
-0.63165316
0.026253304
-0.63234426
0.028616954
-0.63323546
0.031467924
-0.63441106
0.034863381
-0.63598899
0.038854441
-0.63812212
0.043454254
-0.64098849
0.048610412
-0.64480398
0.054219548
-0.64982818
0.06001134
-0.65613882
0.065095107
-0.66325568
0.06793682
-0.67031424
0.067604225
-0.67666168
0.064574881
-0.68211399
0.060065173
-0.68692372
0.055227861
-0.69141968
0.050437399
-0.69580791
0.045557883
-0.70024273
0.040460235
-0.70498216
0.035088434
-0.71018916
0.02882585
-0.71568411
0.02047824
-0.72086957
0.0087680564
-0.72495699
-0.0071723364
-0.72678797
-0.028722564
-0.72322075
-0.05905065
-0.70978739
-0.096885107
-0.68722579
-0.1273549
-0.66564776
-0.13247538
-0.64843587
-0.12396842
-0.63629665
-0.10903913
-0.62813228
-0.093409674
-0.62276931
-0.079038625
-0.61926714
-0.066548102
-0.61696694
-0.055910248
-0.61543591
-0.046873775
-0.61439869
-0.039144377
-0.61368276
-0.032452767
-0.61318056
-0.026572756
-0.61282517
-0.021319959
-0.61257495
-0.016544809
-0.61240412
-0.012125381
-0.61229699
-0.0079594427
-0.003951589
-0.630502
0.019982426
-0.63063167
0.020303859
-0.63078276
0.02088279
-0.63095963
0.021774219
-0.63117128
0.0229968
-0.63143423
0.024587566
-0.63177495
0.026594018
-0.63223378
0.029075791
-0.63287057
0.03210471
-0.63377367
0.035766479
-0.63507516
0.040155938
-0.63696078
0.045339871
-0.63965545
0.051305085
-0.6434387
0.0580028
-0.64873005
0.065302688
-0.65582864
0.072193703
-0.66411586
0.076224041
-0.67221054
0.075698902
-0.67914834
0.071512677
-0.68470201
0.065618841
-0.68938916
0.05991501
-0.69377102
0.054819266
-0.69812707
0.049913933
-0.70258749
0.04492065
-0.70759844
0.040099382
-0.71358008
0.03480749
-0.72048901
0.027387179
-0.72771872
0.015997759
-0.7342663
-0.00062475191
-0.73919062
-0.023798244
-0.73831981
-0.059921464
-0.72348463
-0.11172029
-0.69247428
-0.15836524
-0.66468993
-0.16025973
-0.64429616
-0.14436218
-0.63138782
-0.12194747
-0.62358046
-0.10121703
-0.61896473
-0.083654355
-0.61625709
-0.069255743
-0.61466457
-0.057502769
-0.61371918
-0.047819173
-0.6131499
-0.039713652
-0.61280088
-0.032801784
-0.61258251
-0.026791129
-0.61244321
-0.02145926
-0.61235333
-0.016634684
-0.61229594
-0.012182777
-0.61226147
-0.0079939116
-0.0039681085
-0.63009006
0.019881273
-0.63003962
0.020253422
-0.63000709
0.020850262
-0.6299881
0.021755221
-0.62998465
0.022993351
-0.63000667
0.024609587
-0.63007343
0.026660786
-0.63021789
0.029220242
-0.63049299
0.032379812
-0.63098226
0.036255756
-0.63182212
0.040995799
-0.63322982
0.046747569
-0.63549138
0.053566643
-0.63895502
0.061466445
-0.64424711
0.070594779
-0.65214203
0.080088621
-0.66195493
0.086036935
-0.67135691
0.085100886
-0.67893934
0.079095103
-0.68436533
0.071044833
-0.6886531
0.064202781
-0.69274349
0.058909649
-0.69703903
0.054209475
-0.70149941
0.04938103
-0.70682298
0.045422955
-0.71384441
0.041828913
-0.72258201
0.036124782
-0.73260534
0.026021091
-0.74189115
0.0086610612
-0.75051703
-0.015172366
-0.75420627
-0.056232222
-0.74046498
-0.12546158
-0.69641127
-0.20241896
-0.66054922
-0.19612178
-0.63703055
-0.16788085
-0.62415057
-0.13482745
-0.61751483
-0.10785277
-0.61423746
-0.086931724
-0.61270344
-0.070789765
-0.6120469
-0.058159302
-0.6118208
-0.048045279
-0.61179691
-0.039737534
-0.61185967
-0.032739025
-0.61195119
-0.026699616
-0.61204317
-0.021367279
-0.61212247
-0.016555377
-0.61218357
-0.012121679
-0.61222454
-0.0079529451
-0.0039476986
-0.62619433
0.019549916
-0.62590675
0.019965842
-0.625615
0.020558514
-0.62531249
0.021452713
-0.62499391
0.022674775
-0.62466054
0.024276214
-0.62432123
0.026321471
-0.6239973
0.028896313
-0.6237303
0.032112817
-0.62359363
0.036119085
-0.62371978
0.041121951
-0.62435415
0.047381936
-0.6258665
0.055079002
-0.6286738
0.064273737
-0.63356528
0.075486266
-0.64216801
0.088691349
-0.65404471
0.097913639
-0.66488209
0.095938265
-0.67276242
0.086975429
-0.67706899
0.0753514
-0.67990747
0.067041262
-0.68281402
0.061816203
-0.68641413
0.057809579
-0.69002827
0.052995175
-0.69448924
0.049883922
-0.7015995
0.048939176
-0.71114311
0.045668396
-0.72408529
0.038963263
-0.73555358
0.020129355
-0.74984852
-0.00087743061
-0.76243732
-0.043643414
-0.7591535
-0.1287454
-0.69458133
-0.26699113
-0.65072829
-0.23997482
-0.62530019
-0.19330894
-0.61396027
-0.14616738
-0.60976149
-0.11205154
-0.60860866
-0.088084561
-0.60868331
-0.070715111
-0.60919142
-0.057651193
-0.60980235
-0.047434345
-0.61038408
-0.039155805
-0.61088927
-0.03223384
-0.6113061
-0.026282785
-0.61163695
-0.021036424
-0.61188902
-0.01630331
-0.61207019
-0.011940511
-0.61218722
-0.0078359071
-0.0038901225
-0.61277394
0.018730448
-0.61204351
0.019235418
-0.61129691
0.019811913
-0.61050726
0.020663059
-0.60965683
0.021824348
-0.60873357
0.023352954
-0.60772917
0.025317073
-0.606643
0.027810137
-0.60548953
0.03095935
-0.60430816
0.03493772
-0.60318572
0.03999951
-0.60233064
0.046526855
-0.60215741
0.054905773
-0.60313884
0.065255174
-0.60601282
0.078360247
-0.61372574
0.096404263
-0.62752954
0.11171744
-0.63869557
0.1071043
-0.64546184
0.093741698
-0.64633557
0.076225133
-0.64573155
0.066437239
-0.64566324
0.061747896
-0.64725895
0.059405288
-0.64829087
0.054027095
-0.64942614
0.051019201
-0.656157
0.055670033
-0.66606368
0.055575075
-0.68382999
0.056729577
-0.69887852
0.035177887
-0.72785102
0.028095064
-0.75026239
-0.021232045
-0.77322249
-0.10578531
-0.67714991
-0.3630637
-0.63076301
-0.28636173
-0.60622083
-0.21785112
-0.59991937
-0.15246885
-0.60026521
-0.1117057
-0.60224834
-0.086101435
-0.60437292
-0.068590529
-0.60623151
-0.055792604
-0.60775518
-0.045910673
-0.60897136
-0.037939625
-0.60992805
-0.031277152
-0.6106712
-0.025539638
-0.61123894
-0.020468685
-0.61166103
-0.015881212
-0.6119598
-0.011641748
-0.61215112
-0.0076445823
-0.0037962941
-0.58477963
0.017486302
-0.58350967
0.017965462
-0.58214046
0.0184427
-0.58066778
0.019190384
-0.57906542
0.020221993
-0.57730252
0.021590046
-0.57534242
0.02335698
-0.57314529
0.025613001
-0.5706735
0.028487563
-0.56789983
0.032164054
-0.56482292
0.036922595
-0.56155003
0.043253967
-0.55852526
0.051881006
-0.55651858
0.063248495
-0.55613601
0.077977683
-0.56151743
0.10178568
-0.5804869
0.13068691
-0.59265577
0.11927317
-0.59891779
0.10000371
-0.59402231
0.071329652
-0.58775092
0.060165852
-0.58242827
0.056425248
-0.58154172
0.05851874
-0.57950202
0.051987396
-0.57385429
0.045371474
-0.58517991
0.032528337
-0.59560799
0.03743523
-0.60467345
0.040311052
-0.60342498
0.020479922
-0.63525309
0.039878858
-0.71434282
0.019774681
-0.66918103
-0.054713181
-0.60685232
-0.22709231
-0.57379871
-0.31941534
-0.57150781
-0.22014202
-0.58113666
-0.14283999
-0.58945219
-0.10339017
-0.59561848
-0.079935147
-0.60008642
-0.064122589
-0.60336078
-0.052518238
-0.60579616
-0.043475297
-0.60762929
-0.036106495
-0.60901854
-0.029887904
-0.61007174
-0.024486438
-0.61086354
-0.019676887
-0.61144607
-0.015298681
-0.61185565
-0.011232168
-0.61211694
-0.0073832929
-0.0036683264
-0.52684922
0.015074267
-0.52435034
0.015466577
-0.52169582
0.015788183
-0.51884352
0.016338088
-0.51573921
0.017117676
-0.51231507
0.018165906
-0.50848541
0.019527329
-0.50414509
0.02127268
-0.49916986
0.023512327
-0.49342175
0.026415945
-0.48675761
0.030258457
-0.47907292
0.035569278
-0.4705638
0.043371892
-0.46219762
0.054882315
-0.45432316
0.070103224
-0.44756409
0.095026613
-0.47075686
0.15387968
-0.4699832
0.11849952
-0.460877
0.090897514
-0.42695975
0.037412408
-0.39537872
0.02858482
-0.36797635
0.02902288
-0.30344927
0.020739094
-0.16299653
0.013473622
-0.041132546
0.0077694683
0
0
0
0
0
0
0
0
0
0
0
0
0