/*--------------------------------*- C++ -*----------------------------------*\
| =========                 |                                                 |
| \\      /  F ield         | foam-extend: Open Source CFD                    |
|  \\    /   O peration     | Version:     4.1                                |
|   \\  /    A nd           | Web:         http://www.foam-extend.org         |
|    \\/     M anipulation  |                                                 |
\*---------------------------------------------------------------------------*/
FoamFile
{
    version     2.0;
    format      ascii;
    class       surfaceScalarField;
    location    "1.55";
    object      phi;
}
// * * * * * * * * * * * * * * * * * * * * * * * * * * * * * * * * * * * * * //

dimensions      [0 3 -1 0 0 0 0];

internalField   nonuniform List<scalar> 
8438
(
-0.59744044
0.0016735536
-0.5991793
0.0017388565
-0.60095307
0.0017737754
-0.60277077
0.0018176985
-0.60464215
0.0018713802
-0.60657765
0.0019354975
-0.60858667
0.0020090189
-0.61067682
0.0020901532
-0.61285322
0.0021764023
-0.6151178
0.0022645743
-0.61746858
0.0023507796
-0.61989904
0.0024304657
-0.62239756
0.0024985209
-0.62494703
0.0025494651
-0.62752475
0.0025777278
-0.63010277
0.0025780113
-0.63264836
0.0025455904
-0.63512497
0.0024766128
-0.6374932
0.0023682276
-0.63971177
0.0022185775
-0.6417385
0.0020267233
-0.64353105
0.001792551
-0.6450478
0.0015167542
-0.64624876
0.0012009541
-0.64709677
0.0008480121
-0.64755931
0.00046254509
-0.64761062
5.1308088e-05
-0.64723331
-0.00037730928
-0.6464224
-0.00081091757
-0.64518935
-0.001233048
-0.64356305
-0.0016262929
-0.64158957
-0.001973483
-0.63932997
-0.0022595993
-0.6368563
-0.0024736741
-0.63424629
-0.0026100038
-0.6315779
-0.0026683907
-0.62892442
-0.002653484
-0.62635089
-0.0025735323
-0.62391197
-0.0024389138
-0.62165122
-0.0022607571
-0.61960137
-0.002049842
-0.61778553
-0.0018158451
-0.61621862
-0.0015669063
-0.61490908
-0.0013095388
-0.61385998
-0.0010491
-0.61306953
-0.0007904578
-0.61253402
-0.00053550961
-0.6122586
-0.00027541857
-1.3648025e-05
-0.61123264
0.0031392964
-0.61269177
0.0031979896
-0.61417807
0.0032600703
-0.61570479
0.0033444183
-0.61728438
0.0034509747
-0.61892806
0.0035791723
-0.62064566
0.0037266225
-0.62244516
0.0038896488
-0.624332
0.0040632441
-0.62630845
0.0042410241
-0.62837286
0.0044151941
-0.630519
0.0045766045
-0.63273543
0.0047149496
-0.63500512
0.0048191495
-0.6373053
0.0048779162
-0.63960779
0.004880502
-0.64187954
0.0048173326
-0.64408355
0.004680626
-0.64617998
0.0044646566
-0.64812713
0.0041657239
-0.64988237
0.0037819706
-0.65140299
0.0033131652
-0.65264687
0.0027606415
-0.65357345
0.0021275322
-0.65414483
0.0014193868
-0.65432746
0.00064517737
-0.65409465
-0.000181506
-0.65343054
-0.0010414115
-0.65233202
-0.0019094402
-0.65081
-0.0027550641
-0.64889255
-0.0035437454
-0.6466254
-0.0042406323
-0.64406996
-0.0048150369
-0.6412991
-0.0052445348
-0.63839158
-0.0055175246
-0.63542626
-0.0056337098
-0.63247706
-0.0056026873
-0.62960927
-0.0054413275
-0.62687745
-0.0051707285
-0.62432482
-0.0048133912
-0.62198367
-0.0043909936
-0.61987663
-0.0039228843
-0.61801828
-0.0034252543
-0.61641682
-0.0029109975
-0.61507556
-0.0023903563
-0.61399476
-0.0018712623
-0.6131739
-0.0013563652
-0.61260473
-0.00084459525
-0.000373574
-0.61227817
0.0045549034
-0.61369205
0.004611871
-0.61513077
0.0046987901
-0.61660928
0.0048229335
-0.61814089
0.0049825844
-0.6197374
0.0051756804
-0.62140914
0.0053983635
-0.62316458
0.0056450856
-0.62500972
0.0059083906
-0.62694746
0.0061787621
-0.6289768
0.0064445299
-0.63109212
0.0066919226
-0.63328251
0.0069053433
-0.6355313
0.0070679385
-0.63781585
0.0071624723
-0.64010785
0.0071725026
-0.64237393
0.0070834068
-0.64457667
0.0068833631
-0.64667576
0.0065637554
-0.64862912
0.0061190826
-0.65039376
0.0055466076
-0.65192654
0.0048459432
-0.65318479
0.0040188956
-0.65412705
0.0030697851
-0.65471404
0.0020063862
-0.65491038
0.00084151678
-0.65468692
-0.00040497094
-0.65402359
-0.0017047453
-0.65291293
-0.0030200926
-0.65136391
-0.004304092
-0.6494044
-0.0055032462
-0.64708189
-0.0065631506
-0.64446119
-0.0074357367
-0.64161972
-0.0080860037
-0.63864107
-0.0084961737
-0.63560841
-0.0086663691
-0.6325989
-0.0086121942
-0.62967981
-0.0083604203
-0.62690645
-0.0079440878
-0.62432178
-0.0073980593
-0.62195718
-0.0067555925
-0.61983398
-0.0060460884
-0.6179653
-0.0052939343
-0.61635794
-0.0045183524
-0.61501429
-0.0037340078
-0.6139345
-0.0029510585
-0.61311683
-0.0021740354
-0.61255277
-0.0014086506
-0.00068139497
-0.61263502
0.0059411263
-0.61402854
0.0060053846
-0.61544753
0.0061177873
-0.61690697
0.0062823675
-0.61842061
0.0064962239
-0.62000096
0.006756033
-0.62165913
0.0070565356
-0.62340443
0.0073903852
-0.62524379
0.0077477453
-0.62718103
0.0081160039
-0.62921608
0.0084795878
-0.63134414
0.0088199798
-0.63355485
0.0091160467
-0.6358317
0.0093447905
-0.63815179
0.0094825619
-0.64048603
0.0095067469
-0.64279991
0.0093972876
-0.64505466
0.0091381092
-0.64720859
0.0087176831
-0.64921832
0.008128817
-0.65103974
0.0073680235
-0.65262858
0.0064347916
-0.65394093
0.0053312393
-0.65493362
0.004062472
-0.65556509
0.0026378612
-0.65579688
0.0010733076
-0.65559602
-0.00060583222
-0.65493838
-0.0023623802
-0.65381281
-0.0041456634
-0.65222569
-0.0058912162
-0.6502046
-0.0075243336
-0.64779962
-0.0089681323
-0.64508098
-0.010154375
-0.64213332
-0.011033664
-0.63904787
-0.011581621
-0.63591457
-0.011799671
-0.6328156
-0.011711165
-0.62982119
-0.011354835
-0.62698769
-0.010777588
-0.62435757
-0.010028173
-0.62196071
-0.0091524565
-0.61981635
-0.0081904479
-0.61793537
-0.0071749109
-0.61632247
-0.0061312547
-0.61497832
-0.0050781598
-0.61390148
-0.004027897
-0.61308836
-0.0029871592
-0.61253356
-0.0019634517
-0.00097000041
-0.61305953
0.0073002986
-0.61442982
0.0073756735
-0.61582655
0.0075145212
-0.61726487
0.0077206921
-0.61875905
0.0079903999
-0.62032237
0.0083193499
-0.62196688
0.008701048
-0.62370299
0.0091264935
-0.62553883
0.009583588
-0.62747952
0.010056691
-0.62952623
0.010526299
-0.63167524
0.010968992
-0.63391696
0.011357768
-0.63623514
0.011662967
-0.63860644
0.011853865
-0.64100068
0.011900984
-0.64338167
0.01177828
-0.6457087
0.011465143
-0.64793817
0.010947151
-0.650025
0.010215648
-0.65192364
0.0092666561
-0.6535885
0.0080996579
-0.65497417
0.0067169098
-0.65603547
0.0051237667
-0.65672792
0.0033303099
-0.65700901
0.001354396
-0.65684061
-0.00077422359
-0.65619285
-0.0030101437
-0.65504895
-0.0052895599
-0.65341127
-0.0075289052
-0.65130655
-0.0096290453
-0.64878841
-0.011486276
-0.64593479
-0.01300799
-0.64284078
-0.014127682
-0.63960858
-0.01481382
-0.6363377
-0.015070546
-0.63311726
-0.014931608
-0.63002137
-0.014450721
-0.62710755
-0.013691411
-0.6244173
-0.012718424
-0.62197816
-0.011591594
-0.61980638
-0.010362232
-0.61790967
-0.009071624
-0.61628982
-0.0077511015
-0.61494508
-0.0064229
-0.61387185
-0.00510113
-0.61306518
-0.0037938242
-0.61252118
-0.0025074565
-0.0012463759
-0.61359673
0.0086272339
-0.61493736
0.0087163014
-0.61630579
0.0088829545
-0.61771734
0.009132239
-0.61918683
0.0094598955
-0.62072847
0.0098609814
-0.62235543
0.010328011
-0.62407948
0.010850549
-0.62591032
0.011414422
-0.62785471
0.012001079
-0.6299155
0.01258709
-0.63209046
0.013143953
-0.63437108
0.01363839
-0.63674151
0.014033399
-0.63917792
0.014290274
-0.64164865
0.01437171
-0.64411526
0.014244892
-0.64653442
0.013884304
-0.64885998
0.013272712
-0.65104472
0.01240039
-0.6530414
0.011263328
-0.65480298
0.0098612416
-0.65628243
0.0081963566
-0.65743224
0.0062735816
-0.65820442
0.0041024882
-0.65855131
0.0017012908
-0.65842804
-0.00089749311
-0.65779687
-0.0036413207
-0.65663306
-0.006453365
-0.65493287
-0.0092291001
-0.6527213
-0.011840612
-0.65005641
-0.014151162
-0.64702677
-0.01603763
-0.64374197
-0.01741249
-0.64031937
-0.018236411
-0.63687145
-0.018518475
-0.63349633
-0.018306723
-0.63027291
-0.017674143
-0.62725968
-0.016704636
-0.6244964
-0.015481708
-0.62200713
-0.014080864
-0.61980387
-0.012565493
-0.61788999
-0.010985498
-0.61626333
-0.0093777634
-0.6149187
-0.0077675326
-0.61384965
-0.0061701808
-0.61304957
-0.0045939017
-0.61251419
-0.0030428329
-0.0015156192
-0.61424975
0.0099181907
-0.61555478
0.01002133
-0.61688851
0.010216689
-0.61826696
0.010510691
-0.61970576
0.010898687
-0.62122014
0.01137536
-0.62282465
0.011932523
-0.6245327
0.012558601
-0.62635589
0.013237614
-0.62830311
0.013948295
-0.63037935
0.014663337
-0.63258439
0.015348986
-0.6349112
0.015965207
-0.6373446
0.016466798
-0.63986019
0.016805861
-0.6424244
0.016935922
-0.64499582
0.016816309
-0.64752762
0.0164161
-0.64997035
0.015715445
-0.65227418
0.014704222
-0.65438999
0.01337914
-0.65626936
0.011740613
-0.65786373
0.0097907187
-0.65912321
0.0075330617
-0.65999581
0.004975087
-0.66042767
0.002133154
-0.66036531
-0.00095985099
-0.65976054
-0.0042460907
-0.65857752
-0.0076363819
-0.65680338
-0.011003241
-0.65445972
-0.014184277
-0.65160995
-0.017000932
-0.64835693
-0.019290647
-0.64483014
-0.020939286
-0.6411675
-0.02189905
-0.63749854
-0.022187431
-0.63393282
-0.02187244
-0.63055468
-0.021052286
-0.6274231
-0.019836214
-0.62457485
-0.018329958
-0.62202905
-0.01662667
-0.61979195
-0.014802586
-0.61786131
-0.012916148
-0.61622985
-0.01100922
-0.61488808
-0.0091093038
-0.61382607
-0.0072321927
-0.61303484
-0.0053851246
-0.61250836
-0.0035693112
-0.0017790333
-0.61501302
0.011164729
-0.6162752
0.011283507
-0.61756745
0.011508937
-0.6189062
0.011849443
-0.62030792
0.012300404
-0.62178904
0.01285648
-0.62336566
0.013509149
-0.62505314
0.014246083
-0.6268654
0.015049869
-0.62881392
0.015896818
-0.63090646
0.016755878
-0.63314538
0.01758791
-0.63552577
0.018345592
-0.63803343
0.018974461
-0.6406434
0.019415833
-0.64331969
0.019612212
-0.64601692
0.019513536
-0.64868364
0.019082815
-0.65126615
0.018297962
-0.65371148
0.017149548
-0.65596857
0.01563623
-0.65798787
0.013759916
-0.65971969
0.011522536
-0.66111201
0.0089253773
-0.66210858
0.0059716633
-0.66264834
0.0026729071
-0.66266711
-0.00094107288
-0.66210312
-0.0048100814
-0.66090526
-0.0088342476
-0.65904715
-0.012861348
-0.65654414
-0.016687285
-0.65346576
-0.020079311
-0.64993404
-0.022822373
-0.64610561
-0.024767717
-0.64214609
-0.025858569
-0.63820724
-0.026126284
-0.63441259
-0.025667084
-0.63085229
-0.024612583
-0.62758468
-0.023103827
-0.62464166
-0.021272985
-0.62203532
-0.019233007
-0.61976432
-0.017073583
-0.61781917
-0.014861299
-0.61618631
-0.012642085
-0.61485101
-0.010444599
-0.6137993
-0.0082838994
-0.6130193
-0.00616513
-0.61250256
-0.0040860446
-0.0020367979
-0.61588763
0.012363447
-0.61710097
0.012496848
-0.61834485
0.012752812
-0.61963681
0.013141406
-0.62099437
0.013657961
-0.6224353
0.014297412
-0.62397747
0.015051324
-0.6256385
0.015907106
-0.62743504
0.016846413
-0.6293818
0.017843571
-0.63148996
0.018864044
-0.63376531
0.019863256
-0.63620577
0.020786054
-0.63879877
0.021567458
-0.64151884
0.022135909
-0.64432696
0.022420326
-0.64717248
0.02235906
-0.64999781
0.021908146
-0.65274377
0.02104392
-0.65535362
0.019759399
-0.65777449
0.018057101
-0.6599563
0.015941728
-0.66184904
0.013415276
-0.66339921
0.010475549
-0.66454645
0.0071188955
-0.66522154
0.0033480044
-0.66534742
-0.0008151956
-0.66484477
-0.0053127323
-0.6636417
-0.010037321
-0.66169199
-0.014811055
-0.65899997
-0.019379302
-0.65564159
-0.023437692
-0.65176465
-0.026699314
-0.64756318
-0.028969185
-0.64324015
-0.0301816
-0.63897605
-0.03039038
-0.63491116
-0.029731978
-0.63114116
-0.028382585
-0.6277217
-0.026523289
-0.62467707
-0.024317613
-0.62200963
-0.021900445
-0.61970807
-0.019375148
-0.61775382
-0.016815551
-0.61612566
-0.014270245
-0.61480272
-0.01176753
-0.61376636
-0.0093202626
-0.61300126
-0.0069302315
-0.61249631
-0.0045909967
-0.002288155
-0.61686696
0.013502426
-0.61802273
0.013652623
-0.61921048
0.013940562
-0.62044801
0.014378929
-0.62175373
0.01496369
-0.62314685
0.01569053
-0.62464717
0.01655164
-0.62627485
0.017534785
-0.6280498
0.01862136
-0.62999056
0.019784333
-0.63211264
0.02098613
-0.63442622
0.022176831
-0.63693313
0.023292968
-0.63962327
0.024257597
-0.64247095
0.024983591
-0.64543332
0.025382688
-0.64845272
0.025378465
-0.65146324
0.024918666
-0.65439848
0.023979164
-0.65719726
0.022558169
-0.65980518
0.020665025
-0.66217271
0.018309256
-0.66425089
0.015493459
-0.66598605
0.012210708
-0.66731431
0.0084471599
-0.66815778
0.0041914692
-0.6684241
-0.00054887712
-0.6680117
-0.0057251286
-0.66682075
-0.011228271
-0.66477605
-0.01685576
-0.66186299
-0.022292353
-0.65816324
-0.027137449
-0.65385952
-0.031003031
-0.64919799
-0.033630715
-0.6444323
-0.034947288
-0.63977993
-0.035042749
-0.63540052
-0.03411139
-0.63139395
-0.032389149
-0.62780978
-0.030107463
-0.62466073
-0.027466667
-0.6219358
-0.024625376
-0.61961083
-0.021700112
-0.61765612
-0.018770266
-0.61604136
-0.015885006
-0.61473866
-0.013070228
-0.61372415
-0.010334774
-0.61297875
-0.0076756325
-0.61248854
-0.005081205
-0.002531743
-0.61794999
0.014580949
-0.6190427
0.014745332
-0.62016709
0.015064947
-0.62134238
0.015554222
-0.62258814
0.016209449
-0.62392503
0.017027426
-0.62537496
0.018001568
-0.62696094
0.019120761
-0.62870659
0.020367014
-0.63063507
0.021712816
-0.6327672
0.02311826
-0.6351188
0.024528428
-0.63769705
0.025871213
-0.64049561
0.027056164
-0.64348917
0.02797715
-0.64663017
0.028523686
-0.64985154
0.028599833
-0.65307597
0.028143099
-0.6562275
0.027130688
-0.65923963
0.025570298
-0.66205721
0.023482606
-0.66463293
0.020884978
-0.66692106
0.017781594
-0.66886987
0.014159512
-0.67041338
0.0099906685
-0.67146477
0.0052428675
-0.6719144
-9.9255621e-05
-0.67163255
-0.0060069791
-0.67048228
-0.012378542
-0.6683464
-0.018991635
-0.6651784
-0.025460352
-0.66106264
-0.031253211
-0.65622978
-0.03583589
-0.65099994
-0.038860557
-0.6456962
-0.040251023
-0.64058341
-0.040155547
-0.63584262
-0.038852173
-0.63157474
-0.036657031
-0.62781775
-0.033864455
-0.62456722
-0.030717191
-0.62179414
-0.027398463
-0.61945803
-0.024036218
-0.6175157
-0.020712593
-0.61592635
-0.017474357
-0.61465426
-0.014342321
-0.61366992
-0.011319109
-0.61295032
-0.0083952367
-0.61247874
-0.0055527806
-0.002765686
-0.61913342
0.015582074
-0.6201522
0.015764112
-0.62120415
0.016116891
-0.62230813
0.016658208
-0.62348446
0.017385778
-0.6247552
0.018298168
-0.62614442
0.019390783
-0.62767824
0.020654579
-0.62938453
0.022073307
-0.6312919
0.023620185
-0.6334277
0.025254063
-0.635815
0.026915723
-0.63846823
0.028524442
-0.64138685
0.029974788
-0.64454707
0.031137369
-0.6478957
0.031872318
-0.65135285
0.032056984
-0.65482531
0.03161556
-0.65822401
0.030529385
-0.66147604
0.028822325
-0.66452662
0.026533189
-0.66733318
0.023691541
-0.66985628
0.020304693
-0.67204932
0.01635255
-0.67384686
0.011788206
-0.67515373
0.0065497444
-0.67583972
0.00058673169
-0.6757421
-0.0061045981
-0.67467693
-0.013443714
-0.6724656
-0.021202971
-0.66900822
-0.028917724
-0.66438415
-0.035877285
-0.65889057
-0.041329471
-0.65295508
-0.044796045
-0.64699686
-0.04620924
-0.64134098
-0.045811432
-0.63619038
-0.044002774
-0.63164062
-0.041206787
-0.62770974
-0.037795341
-0.62436842
-0.034058509
-0.62156367
-0.03020321
-0.6192347
-0.026365185
-0.61732238
-0.022624922
-0.61577404
-0.019022692
-0.61454554
-0.015570822
-0.61360156
-0.012263094
-0.61291513
-0.0090816629
-0.61246693
-0.0060009793
-0.0029876663
-0.6204071
0.016509542
-0.62134756
0.01670457
-0.62231977
0.0170891
-0.62334419
0.017682632
-0.62444207
0.018483657
-0.62563684
0.01949294
-0.62695474
0.020708683
-0.62842519
0.022125031
-0.63008077
0.023728888
-0.63195642
0.025495829
-0.63408739
0.027385037
-0.63650589
0.029334223
-0.63923608
0.03125463
-0.64228608
0.033024789
-0.6456357
0.034486988
-0.64922522
0.03546184
-0.65295706
0.035788825
-0.65671536
0.035373858
-0.66039282
0.034206843
-0.66390883
0.032338335
-0.66721125
0.029835611
-0.67026626
0.026746552
-0.67304524
0.023083674
-0.67551155
0.018818853
-0.67760459
0.013881245
-0.67922291
0.0081680679
-0.68021417
0.0015779976
-0.68037588
-0.0059428889
-0.67946349
-0.014356107
-0.67721206
-0.023454398
-0.67343381
-0.032695975
-0.66818553
-0.041125566
-0.6618578
-0.047657201
-0.65503903
-0.05161482
-0.64828274
-0.052965528
-0.64198969
-0.052104482
-0.6363815
-0.049610961
-0.63153702
-0.046051267
-0.62744163
-0.04189073
-0.62403069
-0.03746945
-0.62121991
-0.033013992
-0.61892367
-0.028661427
-0.61706446
-0.024484133
-0.61557672
-0.020510424
-0.61440759
-0.016739959
-0.61351602
-0.013154665
-0.6128714
-0.0097262767
-0.61245211
-0.0064202706
-0.0031949777
-0.62177478
0.017340363
-0.62262372
0.01755351
-0.62350578
0.017971158
-0.62444003
0.018616886
-0.62544789
0.019491512
-0.62655379
0.020598843
-0.627786
0.021940896
-0.62917731
0.023516336
-0.6307654
0.025316977
-0.63259248
0.027322912
-0.63470337
0.02949593
-0.63714179
0.03177264
-0.63994491
0.034057752
-0.64313388
0.036213755
-0.64669607
0.038049181
-0.65056506
0.039330829
-0.65461896
0.039842722
-0.65870921
0.039464117
-0.6627027
0.038200327
-0.66650942
0.036145062
-0.67008342
0.033409611
-0.67340508
0.030068203
-0.67646207
0.026140667
-0.67923362
0.021590407
-0.68167024
0.016317857
-0.68366821
0.010166046
-0.68505238
0.0029621589
-0.68557398
-0.0054212819
-0.68491431
-0.015015784
-0.68268963
-0.025679071
-0.67856899
-0.036816619
-0.67254907
-0.047145487
-0.66515201
-0.055054258
-0.65721551
-0.059551318
-0.64948255
-0.060698488
-0.64244689
-0.059140145
-0.63633821
-0.055719645
-0.63119908
-0.051190395
-0.62696361
-0.046126201
-0.62351802
-0.040915035
-0.62073807
-0.03579394
-0.61850862
-0.030890886
-0.6167317
-0.026261047
-0.61532832
-0.021913805
-0.61423708
-0.017831195
-0.61341178
-0.013979966
-0.61281874
-0.010319315
-0.61243456
-0.0068044508
-0.0033845922
-0.6232031
0.018083513
-0.62395741
0.018307828
-0.62474202
0.018755767
-0.62557741
0.019452271
-0.62648532
0.020399422
-0.62749102
0.021604542
-0.6286246
0.023074477
-0.62992217
0.024813914
-0.63142685
0.026821657
-0.63318903
0.029085083
-0.63526485
0.031571753
-0.63771231
0.034220105
-0.64058558
0.036931022
-0.64392474
0.039552915
-0.64773128
0.041855716
-0.65193289
0.043532436
-0.65637336
0.044283197
-0.66085525
0.043946005
-0.66520719
0.042552266
-0.6693273
0.040265174
-0.67318184
0.037264146
-0.67677399
0.03366036
-0.68011574
0.029482418
-0.68321107
0.024685732
-0.68603236
0.019139147
-0.68848223
0.012615917
-0.69036396
0.0048438933
-0.69137639
-0.0044088553
-0.69111304
-0.01527913
-0.68903173
-0.027760386
-0.68457154
-0.041276802
-0.67759112
-0.054125913
-0.6687955
-0.063849878
-0.65942572
-0.068921094
-0.65049282
-0.069631393
-0.64260016
-0.067032807
-0.63596042
-0.06235938
-0.63054757
-0.056603251
-0.62621769
-0.050456079
-0.62279037
-0.044342356
-0.62009171
-0.038492594
-0.6179727
-0.033009899
-0.6163137
-0.027920043
-0.61502257
-0.023204936
-0.61403036
-0.018823409
-0.61328674
-0.014723581
-0.61275596
-0.010850097
-0.6124136
-0.0071468058
-0.0035532466
-0.62472695
0.018710139
-0.62537214
0.018953018
-0.62604883
0.019432456
-0.62677457
0.020178017
-0.62757015
0.021195002
-0.62846085
0.022495239
-0.62947797
0.024091595
-0.63066049
0.025996436
-0.63205679
0.028217959
-0.633726
0.030754294
-0.63573741
0.033583158
-0.63816644
0.036649133
-0.64108902
0.039853604
-0.64457239
0.043036292
-0.64864362
0.045926937
-0.65322931
0.048118126
-0.65812584
0.049179736
-0.66306269
0.048882849
-0.6678126
0.047302181
-0.67226029
0.044712856
-0.67639613
0.041399992
-0.68025985
0.037524077
-0.68389688
0.03311945
-0.68734455
0.028133404
-0.69060959
0.02240418
-0.69361168
0.015618008
-0.69613399
0.0073662076
-0.69781653
-0.0027263184
-0.69815467
-0.014940983
-0.6964108
-0.029504263
-0.69166663
-0.046020973
-0.68348563
-0.062306908
-0.67281358
-0.074521932
-0.66157729
-0.080157384
-0.65116512
-0.080043558
-0.64229922
-0.075898705
-0.63512298
-0.06953562
-0.62948972
-0.062236513
-0.62514044
-0.054805359
-0.62180693
-0.047675869
-0.61925589
-0.041043628
-0.61730138
-0.034964414
-0.61580237
-0.029419052
-0.6146552
-0.024352108
-0.61378527
-0.019693334
-0.61313991
-0.015368944
-0.61268265
-0.01130736
-0.61238911
-0.0074403399
-0.0036975591
-0.62625575
0.01923397
-0.62678957
0.019486838
-0.62735051
0.019993386
-0.62795663
0.020784146
-0.62862781
0.021866175
-0.62938888
0.02325631
-0.63027187
0.02497459
-0.63131828
0.027042848
-0.63258168
0.029481358
-0.6341306
0.032303211
-0.63604966
0.035502215
-0.63843582
0.039035294
-0.64139262
0.042810403
-0.64502508
0.046668756
-0.64940448
0.050306337
-0.65446833
0.053181972
-0.65994633
0.054657736
-0.6654536
0.054390125
-0.67067614
0.052524719
-0.67548001
0.049516722
-0.67989678
0.045816767
-0.68402063
0.041647923
-0.6879387
0.037037524
-0.69172959
0.031924289
-0.6954552
0.02612979
-0.6990778
0.019240607
-0.70237471
0.010663119
-0.70493052
-0.00017050967
-0.70613766
-0.013733837
-0.70504011
-0.030601819
-0.70017661
-0.050884472
-0.69050281
-0.071980711
-0.67723143
-0.087793307
-0.66352221
-0.093866608
-0.65128391
-0.092281853
-0.64134301
-0.085839604
-0.63367109
-0.077207546
-0.62791968
-0.067987919
-0.62366546
-0.059059575
-0.62052899
-0.050812346
-0.61820962
-0.043362997
-0.61648421
-0.036689825
-0.61519312
-0.030710136
-0.61422464
-0.025320591
-0.61350167
-0.020416307
-0.61297165
-0.015898957
-0.6125993
-0.011679712
-0.61236157
-0.0076780748
-0.0038141771
-0.62788232
0.019620835
-0.62829037
0.01989489
-0.62872674
0.020429754
-0.62920448
0.02126189
-0.62974076
0.022402449
-0.63035879
0.023874344
-0.63109014
0.025705939
-0.63197749
0.027930199
-0.63307822
0.030582089
-0.63446922
0.033694212
-0.63625108
0.037284069
-0.63854563
0.041329844
-0.6414892
0.045753971
-0.64523558
0.050415144
-0.64992843
0.054999185
-0.65554383
0.058797372
-0.66172014
0.060834049
-0.66789165
0.060561635
-0.67361238
0.058245444
-0.67872779
0.054632131
-0.68334888
0.050437855
-0.68766181
0.045960857
-0.69181166
0.041187368
-0.69592754
0.036040174
-0.70015811
0.030360356
-0.70454446
0.023626965
-0.70886989
0.014988546
-0.71262565
0.003585243
-0.71509992
-0.011259564
-0.71514607
-0.030555667
-0.7105427
-0.055487841
-0.69906496
-0.083458448
-0.68205631
-0.10480196
-0.66501593
-0.110907
-0.65053154
-0.10676624
-0.63946198
-0.09690916
-0.63141566
-0.08525387
-0.62572015
-0.073683423
-0.62172684
-0.063052892
-0.61892295
-0.053616232
-0.61693777
-0.045348175
-0.6155157
-0.038111894
-0.61448494
-0.031740898
-0.61373154
-0.026073997
-0.61318045
-0.020967392
-0.61278258
-0.016296827
-0.61250607
-0.011956218
-0.61233073
-0.007853419
-0.0038999564
-0.62933598
0.019882714
-0.62961491
0.020173825
-0.62991711
0.020731951
-0.63025352
0.021598303
-0.63063796
0.022786884
-0.6310908
0.02432719
-0.63164168
0.026256819
-0.63233297
0.028621484
-0.63322443
0.03147355
-0.63440039
0.034870172
-0.63597877
0.038862452
-0.63811247
0.04346354
-0.64097954
0.048621042
-0.64479588
0.054231489
-0.64982097
0.060024274
-0.65613233
0.065108727
-0.66324987
0.067951589
-0.67030963
0.067621399
-0.67665923
0.064595046
-0.68211421
0.06008711
-0.68692667
0.055250318
-0.69142572
0.050459904
-0.69581681
0.045578453
-0.70025359
0.040476955
-0.70499406
0.035100826
-0.71020147
0.028834374
-0.71569657
0.020483653
-0.72088197
0.0087706442
-0.72496915
-0.0071723844
-0.72679971
-0.028725107
-0.72323185
-0.059055706
-0.70979739
-0.096892906
-0.68723409
-0.12736526
-0.66565424
-0.13248684
-0.64844079
-0.1239797
-0.63630036
-0.10904959
-0.62813509
-0.093419141
-0.62277144
-0.079047075
-0.61926875
-0.066555581
-0.61696816
-0.055916825
-0.61543681
-0.046879519
-0.61439936
-0.03914935
-0.61368323
-0.032457022
-0.61318089
-0.026576338
-0.61282538
-0.021322901
-0.61257507
-0.016547137
-0.61240418
-0.012127107
-0.61229701
-0.0079605945
-0.0039521654
-0.63049027
0.019981378
-0.63061982
0.020303375
-0.63077082
0.020882951
-0.63094763
0.021775108
-0.63115925
0.022998505
-0.63142223
0.024590175
-0.63176303
0.02659762
-0.63222203
0.029080478
-0.63285905
0.032110574
-0.63376248
0.035773606
-0.63506442
0.040164389
-0.63695059
0.045349712
-0.63964598
0.051316433
-0.64343018
0.058015683
-0.64872252
0.065316615
-0.65582175
0.072207958
-0.66410929
0.076239129
-0.6722049
0.07571701
-0.6791452
0.07153535
-0.68470217
0.065644072
-0.68939228
0.05994043
-0.6937779
0.054845525
-0.69813756
0.049938114
-0.70260017
0.044939566
-0.70761201
0.040112665
-0.7135937
0.034816067
-0.72050259
0.027392539
-0.72773212
0.016000172
-0.73427938
-0.00062512066
-0.73920326
-0.023801234
-0.73833185
-0.059927108
-0.72349559
-0.11172917
-0.69248319
-0.15837766
-0.66469656
-0.16027347
-0.64430095
-0.14437531
-0.6313913
-0.12195924
-0.62358302
-0.10122743
-0.61896662
-0.083663467
-0.6162585
-0.069263704
-0.61466562
-0.057509703
-0.61371995
-0.047825187
-0.61315047
-0.039718834
-0.61280129
-0.032806202
-0.61258279
-0.026794838
-0.61244339
-0.0214623
-0.61235344
-0.016637087
-0.61229599
-0.012184558
-0.61226149
-0.0079950985
-0.0039687024
-0.63007847
0.019880172
-0.63002793
0.020252836
-0.62999531
0.020850327
-0.62997624
0.021756038
-0.62997276
0.022995021
-0.62999479
0.024612207
-0.63006162
0.026664455
-0.6302062
0.029225061
-0.63048152
0.032385891
-0.63097112
0.036263202
-0.63181142
0.041004687
-0.63321967
0.046757963
-0.63548196
0.053578721
-0.63894665
0.061480377
-0.6442399
0.070609863
-0.65213528
0.080103337
-0.66194776
0.08605161
-0.67134991
0.085119163
-0.67893517
0.079120608
-0.68436565
0.071074549
-0.68865618
0.06423096
-0.69275104
0.058940386
-0.6970513
0.054238381
-0.70151398
0.049402244
-0.70683808
0.045436761
-0.71385883
0.041836818
-0.7225961
0.036129807
-0.73261913
0.026023208
-0.74190455
0.0086602941
-0.75052997
-0.015175812
-0.75421883
-0.056238246
-0.74047677
-0.12547124
-0.69642063
-0.20243379
-0.66055576
-0.19613834
-0.63703499
-0.16789608
-0.62415364
-0.13484059
-0.61751701
-0.10786406
-0.61423903
-0.086941439
-0.61270459
-0.070798144
-0.61204776
-0.058166538
-0.61182143
-0.048051518
-0.61179737
-0.039742887
-0.61186
-0.032743575
-0.61195141
-0.026703428
-0.61204331
-0.021370398
-0.61212256
-0.01655784
-0.61218362
-0.012123502
-0.61222455
-0.0079541602
-0.0039483064
-0.62618378
0.019548775
-0.62589611
0.019965171
-0.6256043
0.020558508
-0.62530174
0.021453483
-0.62498315
0.02267643
-0.6246498
0.024278861
-0.62431057
0.026325217
-0.62398677
0.02890127
-0.62371999
0.032119107
-0.62358363
0.036126838
-0.62371019
0.041131254
-0.62434506
0.047392832
-0.62585805
0.055091712
-0.62866641
0.064288736
-0.63355933
0.075502777
-0.6421624
0.088706409
-0.65403766
0.097926865
-0.66487397
0.095955473
-0.67275721
0.08700385
-0.67707091
0.075388251
-0.67991048
0.067070529
-0.68282201
0.061851919
-0.68642891
0.057845274
-0.69004514
0.053018476
-0.69450598
0.049897606
-0.70161403
0.048944865
-0.71115689
0.045672662
-0.72409858
0.038964905
-0.73556632
0.020128033
-0.74986074
-0.0008813879
-0.76244947
-0.043649518
-0.75916577
-0.12875494
-0.69459066
-0.2670089
-0.65073437
-0.23999463
-0.62530399
-0.19332645
-0.61396272
-0.14618187
-0.60976316
-0.11206362
-0.60860983
-0.088094765
-0.60868416
-0.070723815
-0.60919204
-0.057658656
-0.60980281
-0.04744075
-0.61038442
-0.039161283
-0.6108895
-0.032238487
-0.61130626
-0.026286671
-0.61163706
-0.021039602
-0.61188908
-0.016305817
-0.61207022
-0.011942366
-0.61218723
-0.0078371428
-0.0038907404
-0.61276645
0.018729609
-0.61203619
0.019234903
-0.61128974
0.019812058
-0.61050024
0.020663987
-0.60964999
0.021826177
-0.60872692
0.023355792
-0.60772273
0.025321031
-0.60663679
0.027815331
-0.6054836
0.030965914
-0.60430257
0.03494581
-0.60318057
0.04000925
-0.60232602
0.04653828
-0.60215345
0.054919143
-0.60313626
0.065271544
-0.6060127
0.078379222
-0.61372654
0.096420249
-0.6275272
0.11172752
-0.63868991
0.10711818
-0.64545642
0.093770358
-0.64634409
0.076275921
-0.64573636
0.066462808
-0.64567328
0.061788834
-0.64728023
0.059452226
-0.64831179
0.054050035
-0.64944502
0.05103084
-0.65616989
0.055669728
-0.66607513
0.055577908
-0.68384062
0.056730388
-0.69888825
0.035175672
-0.72786023
0.028090584
-0.75027202
-0.021237729
-0.77323458
-0.10579238
-0.67715865
-0.36308483
-0.63076772
-0.28638556
-0.60622335
-0.21787083
-0.59992087
-0.15248435
-0.6002662
-0.11171829
-0.60224903
-0.086111934
-0.60437342
-0.068599423
-0.60623188
-0.055800198
-0.60775545
-0.045917174
-0.60897156
-0.037945176
-0.60992819
-0.031281855
-0.61067129
-0.025543568
-0.611239
-0.020471897
-0.61166107
-0.015883745
-0.61195982
-0.011643622
-0.61215113
-0.0076458305
-0.0037969183
-0.5847796
0.017486158
-0.58351021
0.017965514
-0.58214158
0.018443423
-0.58066947
0.01919188
-0.57906767
0.020224374
-0.57730529
0.021593419
-0.57534572
0.02336146
-0.57314911
0.025618715
-0.57067786
0.028494666
-0.5679048
0.032172746
-0.56482862
0.036933075
-0.56155662
0.043266278
-0.55853279
0.051895319
-0.55652775
0.063266501
-0.55614875
0.078000215
-0.56153157
0.10180308
-0.58049244
0.13068839
-0.59265625
0.11928199
-0.5989097
0.10002381
-0.5940522
0.071418414
-0.58776381
0.060174422
-0.58244275
0.056467777
-0.58157553
0.058585001
-0.5795282
0.052002708
-0.57387621
0.045378846
-0.58519466
0.032529481
-0.59561963
0.037438936
-0.60467978
0.040313197
-0.60342486
0.02048029
-0.63525092
0.039878381
-0.71434572
0.019774527
-0.66918687
-0.054713836
-0.60685833
-0.22710715
-0.57379935
-0.31944453
-0.57150802
-0.22016216
-0.58113688
-0.14285549
-0.58945237
-0.1034028
-0.59561862
-0.079945679
-0.60008654
-0.06413151
-0.60336088
-0.052525857
-0.60579623
-0.043481818
-0.60762935
-0.036112063
-0.60901858
-0.029892622
-0.61007177
-0.02449038
-0.61086356
-0.019680108
-0.61144608
-0.015301222
-0.61185565
-0.011234048
-0.61211694
-0.0073845452
-0.0036689525
-0.52686993
0.015076171
-0.5243732
0.01546878
-0.52172087
0.015791096
-0.51887073
0.016341744
-0.51576852
0.017122164
-0.51234643
0.018171325
-0.50851877
0.019533799
-0.5041804
0.021280347
-0.4992071
0.02352137
-0.49346096
0.026426604
-0.48679888
0.03027099
-0.47911633
0.035583731
-0.4706093
0.04338829
-0.46224581
0.05490301
-0.45437876
0.070133165
-0.44762976
0.095054082
-0.47080986
0.15386849
-0.47005109
0.11852322
-0.46091541
0.09088812
-0.42709562
0.037598624
-0.39543664
0.028515449
-0.36804261
0.029073746
-0.30348987
0.020770629
-0.16300003
0.0134549
-0.041147271
0.0077710283
0
0
0
0
0
0
0
0
0
0
0
0
0
0
-0.21954732
0.015304038
-0.45297679