/*--------------------------------*- C++ -*----------------------------------*\
| =========                 |                                                 |
| \\      /  F ield         | foam-extend: Open Source CFD                    |
|  \\    /   O peration     | Version:     4.1                                |
|   \\  /    A nd           | Web:         http://www.foam-extend.org         |
|    \\/     M anipulation  |                                                 |
\*---------------------------------------------------------------------------*/
FoamFile
{
    version     2.0;
    format      ascii;
    class       volScalarField;
    location    "1.55";
    object      rAU;
}
// * * * * * * * * * * * * * * * * * * * * * * * * * * * * * * * * * * * * * //

dimensions      [0 0 1 0 0 0 0];

internalField   nonuniform List<scalar> 
4393
(
0.00022764262
0.00022726882
0.00022690279
0.00022652892
0.00022614511
0.00022574992
0.00022534098
0.00022491711
0.00022447744
0.00022402179
0.00022355075
0.00022306583
0.00022256953
0.00022206539
0.00022155778
0.00022105283
0.00022055636
0.00022007535
0.00021961743
0.00021919017
0.00021880133
0.00021845856
0.00021816938
0.00021794096
0.00021777996
0.00021769229
0.00021768261
0.00021768261
0.00021775422
0.00021790821
0.00021814277
0.0002184529
0.00021883039
0.00021926423
0.00021974112
0.00022024656
0.00022076571
0.00022128439
0.00022178977
0.00022227084
0.00022271865
0.00022312623
0.00022348853
0.00022380211
0.00022406486
0.0002242758
0.00022443499
0.00022454297
0.00022458508
0.00022451025
0.00022418978
0.00022388424
0.00022356966
0.00022324328
0.00022290344
0.00022254792
0.00022217587
0.00022178686
0.00022138128
0.00022096037
0.00022052644
0.00022008285
0.00021963407
0.00021918541
0.00021874391
0.00021831615
0.00021790974
0.00021753274
0.00021719302
0.0002168984
0.00021665659
0.00021647499
0.00021636059
0.00021631973
0.00021635779
0.0002164444
0.00021641733
0.00021646059
0.00021658752
0.00021679964
0.0002170954
0.00021746965
0.00021791364
0.00021841539
0.00021896061
0.00021953384
0.00022011955
0.00022070318
0.00022127181
0.00022181453
0.00022232266
0.00022278958
0.00022321056
0.00022358236
0.00022390282
0.00022417108
0.00022438864
0.00022454272
0.00022400487
0.00022369623
0.00022339613
0.00022308447
0.00022275854
0.00022241684
0.00022205734
0.00022167949
0.00022128329
0.00022086961
0.00022044037
0.00021999863
0.00021954863
0.00021909581
0.00021864651
0.00021820875
0.00021778999
0.00021739859
0.00021704314
0.00021673183
0.00021647268
0.00021627345
0.00021614152
0.00021608381
0.00021610648
0.00021621459
0.00021630114
0.00021618212
0.00021614391
0.00021619352
0.00021633586
0.0002165726
0.0002169012
0.0002173145
0.00021780095
0.00021834565
0.00021893166
0.0002195415
0.00022015838
0.00022076723
0.00022135522
0.00022191198
0.0002224296
0.00022290233
0.00022332619
0.00022369853
0.00022401829
0.00022428555
0.00022448064
0.0002236495
0.00022334626
0.00022304608
0.00022273129
0.00022239945
0.00022204923
0.00022167881
0.00022128784
0.00022087665
0.00022044659
0.00022000016
0.00021954114
0.00021907469
0.0002186073
0.00021814644
0.00021770125
0.00021728032
0.00021689288
0.00021654824
0.00021625507
0.0002160217
0.00021585607
0.0002157657
0.00021575764
0.00021583816
0.00021601229
0.0002160935
0.00021588844
0.00021576592
0.00021573647
0.00021580879
0.00021598811
0.00021627456
0.0002166624
0.00021714009
0.0002176915
0.00021829761
0.0002189384
0.00021959454
0.00022024857
0.00022088561
0.00022149372
0.00022206377
0.00022258917
0.00022306543
0.00022348973
0.00022386084
0.0002241778
0.00022442246
0.00022328759
0.0002229885
0.00022268865
0.00022237105
0.00022203343
0.00022167461
0.00022129286
0.00022088804
0.00022046074
0.00022001267
0.00021954689
0.00021906788
0.00021858172
0.00021809598
0.00021761937
0.00021716235
0.00021673471
0.00021634676
0.00021600858
0.00021572937
0.00021551779
0.00021538198
0.0002153297
0.00021536825
0.00021550425
0.00021574308
0.00021582973
0.0002155342
0.00021532341
0.00021521192
0.00021521282
0.00021533543
0.00021558286
0.00021595068
0.00021642684
0.00021699326
0.00021762806
0.00021830802
0.00021901073
0.00021971606
0.00022040704
0.00022107014
0.00022169518
0.00022227494
0.0002228046
0.00022328133
0.00022370382
0.00022407092
0.00022436678
0.00022290987
0.00022261547
0.000222317
0.00022199754
0.00022165493
0.00022128804
0.0002208952
0.00022047637
0.00022003231
0.00021956505
0.0002190781
0.00021857662
0.0002180676
0.00021755976
0.00021706321
0.00021658986
0.00021615096
0.00021575799
0.00021542193
0.00021515253
0.00021495874
0.00021484895
0.00021483117
0.00021491313
0.00021510206
0.00021540412
0.00021551132
0.00021511951
0.00021481483
0.0002146165
0.00021454287
0.00021460821
0.00021481913
0.00021517241
0.00021565494
0.00021624571
0.00021691896
0.0002176474
0.00021840493
0.00021916843
0.00021991867
0.00022064066
0.00022132334
0.00022195909
0.0002225431
0.00022307273
0.00022354689
0.00022396486
0.00022431256
0.00022251682
0.0002222278
0.00022193173
0.00022161142
0.00022126466
0.0002208903
0.00022048665
0.00022005366
0.00021959218
0.00021910444
0.00021859431
0.00021806761
0.0002175322
0.00021699807
0.00021647686
0.00021598222
0.00021552707
0.0002151243
0.00021478587
0.00021452207
0.0002143421
0.00021425448
0.00021426751
0.00021438948
0.00021462858
0.00021499223
0.00021514031
0.00021464494
0.00021423889
0.00021394686
0.00021379367
0.00021379979
0.00021397616
0.00021432084
0.00021481879
0.00021544486
0.00021616805
0.0002169559
0.00021777785
0.00021860736
0.0002194229
0.00022020807
0.00022095119
0.00022164454
0.00022228358
0.00022286617
0.00022339173
0.00022386041
0.00022425954
0.00022211046
0.00022182817
0.00022153567
0.00022121553
0.00022086547
0.00022048424
0.00022007001
0.00021962265
0.00021914295
0.00021863323
0.00021809764
0.00021754252
0.00021697666
0.00021641137
0.00021586006
0.00021533842
0.00021486141
0.0002144436
0.00021409801
0.00021383543
0.00021366516
0.00021359572
0.00021363561
0.00021379381
0.00021407977
0.00021450282
0.00021471824
0.00021411039
0.0002135933
0.00021319817
0.00021295791
0.00021290108
0.00021304425
0.00021338684
0.0002139108
0.00021458511
0.00021537176
0.0002162317
0.00021712901
0.00021803331
0.00021892071
0.00021977363
0.00022058006
0.00022133255
0.00022202719
0.00022266263
0.00022323916
0.00022375798
0.00022420769
0.00022169248
0.00022141776
0.00022112993
0.00022081102
0.00022045859
0.00022007116
0.00021964671
0.00021918484
0.0002186862
0.00021815299
0.00021758951
0.00021700253
0.00021640171
0.00021579979
0.00021521222
0.00021465718
0.00021415213
0.00021371367
0.00021335601
0.00021309029
0.00021292565
0.00021287035
0.00021293293
0.0002131231
0.00021345193
0.00021393135
0.00021424803
0.00021351693
0.00021287658
0.00021236583
0.00021202787
0.00021190209
0.00021201275
0.00021236078
0.0002129236
0.00021366184
0.00021452814
0.00021547505
0.00021646022
0.00021744905
0.00021841533
0.00021934059
0.00022021297
0.00022102576
0.00022177609
0.00022246379
0.00022309033
0.00022365815
0.00022415714
0.00022126487
0.00022099961
0.00022071786
0.00022040138
0.0002200476
0.00021965475
0.00021922049
0.00021874405
0.0002182257
0.0002176674
0.00021707336
0.00021645066
0.00021580973
0.00021516485
0.00021453382
0.0002139379
0.00021339773
0.00021293243
0.00021255753
0.00021228429
0.00021212125
0.00021207597
0.00021215676
0.00021237397
0.00021274067
0.00021327215
0.00021373306
0.00021286596
0.00021208711
0.00021144432
0.00021099392
0.00021079017
0.00021086814
0.00021123067
0.00021184828
0.00021266981
0.0002136353
0.00021468666
0.00021577394
0.00021685798
0.00021791046
0.00021891259
0.00021985324
0.00022072701
0.00022153261
0.00022227143
0.00022294647
0.00022356163
0.00022410818
0.0002208303
0.00022057509
0.00022030052
0.00021998765
0.00021963361
0.00021923626
0.00021879277
0.00021830186
0.00021776322
0.00021717831
0.00021655103
0.00021588851
0.00021520186
0.0002145069
0.0002138242
0.00021317888
0.0002125957
0.00021209699
0.00021169975
0.00021141498
0.00021124993
0.00021121079
0.0002113051
0.00021154374
0.000211942
0.0002125195
0.00021317865
0.00021216068
0.00021122456
0.00021042839
0.00020984528
0.00020955027
0.00020959428
0.00020998267
0.00021067539
0.00021160447
0.00021269296
0.00021386934
0.00021507481
0.00021626553
0.00021741162
0.00021849472
0.00021950528
0.00022043995
0.0002212996
0.00022208769
0.00022280907
0.0002234693
0.00022406118
0.00022038973
0.00022014712
0.00021988151
0.00021957377
0.00021922087
0.00021882023
0.00021836844
0.00021786351
0.0002173043
0.00021669147
0.00021602828
0.00021532162
0.00021458298
0.00021382972
0.00021308561
0.00021238063
0.00021174509
0.00021120556
0.00021078069
0.00021048059
0.00021031021
0.00021027338
0.00021037619
0.00021062961
0.00021105138
0.00021166642
0.00021248584
0.00021140565
0.00021028975
0.00020931274
0.00020856914
0.00020816348
0.00020817071
0.00020859974
0.00020939414
0.00021046166
0.00021170238
0.00021302796
0.00021436961
0.00021567907
0.00021692587
0.00021809329
0.00021917441
0.00022016889
0.00022108043
0.00022191506
0.00022267982
0.00022338217
0.0002240166
0.00021994835
0.00021971844
0.00021946284
0.00021916156
0.00021881116
0.0002184085
0.00021794946
0.00021743109
0.00021685119
0.00021620924
0.00021550745
0.00021475201
0.00021395445
0.00021313345
0.00021231641
0.00021153963
0.00021084093
0.00021025273
0.00020979561
0.00020947773
0.00020930017
0.00020926294
0.0002093696
0.00020963058
0.000210066
0.00021070711
0.00021159397
0.00021060891
0.00020928614
0.00020809311
0.00020715086
0.00020660613
0.00020657136
0.00020706109
0.00020799264
0.00020923848
0.00021066746
0.00021217055
0.00021366815
0.00021510856
0.00021646234
0.0002177161
0.00021886704
0.00021991887
0.00022087893
0.00022175632
0.00022256064
0.00022330141
0.00022397498
0.00021950486
0.00021929099
0.0002190476
0.00021875474
0.0002184088
0.0002180061
0.00021754166
0.00021701141
0.00021641171
0.00021574041
0.00021499815
0.00021418983
0.00021332638
0.00021242733
0.00021152395
0.00021066069
0.00020988591
0.00020924024
0.00020874653
0.00020840939
0.00020822361
0.00020818345
0.00020828868
0.00020854826
0.00020898435
0.00020963556
0.0002105549
0.00020978221
0.00020822072
0.00020676711
0.00020557376
0.00020484777
0.00020476193
0.00020534063
0.00020645783
0.00020793411
0.00020959589
0.00021130931
0.00021298401
0.00021456696
0.00021603239
0.00021737257
0.00021859063
0.00021969563
0.00022069938
0.00022161457
0.00022245362
0.00022322832
0.00022393693
0.00021907004
0.00021887169
0.00021864154
0.00021835867
0.00021801899
0.00021761815
0.00021715014
0.00021660953
0.00021599089
0.00021528992
0.00021450495
0.00021363885
0.00021270109
0.00021171112
0.00021070405
0.00020973485
0.00020886707
0.00020815345
0.00020761974
0.00020726452
0.00020707261
0.00020702981
0.00020713045
0.00020738054
0.00020780313
0.00020844465
0.0002093739
0.00020894214
0.00020710572
0.00020533615
0.00020381965
0.00020284884
0.00020269616
0.00020340535
0.00020477581
0.00020655142
0.00020850095
0.00021046206
0.0002123355
0.00021407081
0.00021564985
0.0002170737
0.00021835364
0.0002195055
0.00022054641
0.00022149309
0.000222361
0.00022316426
0.0002239031
0.0002186354
0.00021845654
0.00021824206
0.00021797142
0.0002176405
0.0002172443
0.00021677576
0.00021622786
0.00021559304
0.00021486425
0.00021403669
0.00021311017
0.0002120915
0.00021099845
0.00020986903
0.00020877152
0.00020779155
0.00020700015
0.00020642668
0.00020605931
0.00020586702
0.00020582321
0.00020591508
0.00020614421
0.00020653277
0.00020713536
0.00020804036
0.00020811438
0.00020596159
0.00020380851
0.0002018705
0.00020055755
0.00020030956
0.00020121288
0.00020293271
0.00020509957
0.00020740413
0.00020965425
0.00021174685
0.00021364076
0.00021533115
0.00021683202
0.00021816537
0.00021935525
0.00022042485
0.00022139525
0.00022228505
0.00022311064
0.00022387415
0.00021822379
0.00021806326
0.00021786556
0.00021760923
0.00021728972
0.0002169013
0.00021643569
0.00021588405
0.00021523626
0.0002144818
0.00021361156
0.0002126209
0.00021151238
0.00021029959
0.00020902086
0.00020776059
0.0002066375
0.00020575138
0.00020513676
0.000204765
0.00020458036
0.00020453917
0.00020462081
0.00020482122
0.00020515793
0.0002056919
0.00020653391
0.00020732753
0.00020481798
0.00020220466
0.00019971319
0.00019790675
0.00019750932
0.00019870852
0.00020091678
0.00020359842
0.00020633909
0.00020892148
0.00021124948
0.00021330194
0.00021509527
0.00021666135
0.00021803565
0.00021925179
0.00022033951
0.00022132437
0.00022222796
0.00022306882
0.00022385077
0.00021781466
0.00021767668
0.00021749813
0.00021725837
0.00021695306
0.00021657582
0.00021611717
0.00021556635
0.00021491043
0.00021413484
0.00021322504
0.00021217031
0.00021096718
0.0002096217
0.00020816715
0.00020670556
0.00020540583
0.00020441425
0.00020377222
0.00020342322
0.0002032713
0.00020324788
0.00020332423
0.00020348928
0.00020374848
0.00020416477
0.00020487612
0.00020604198
0.00020373479
0.00020057223
0.00019735243
0.00019481516
0.00019415911
0.00019582282
0.00019872299
0.00020208574
0.0002053573
0.00020831274
0.00021088326
0.00021308413
0.00021496333
0.00021657622
0.00021797433
0.00021920175
0.00022029488
0.00022128346
0.00022219176
0.00022304006
0.00022383358
0.00021746566
0.00021734853
0.0002171905
0.00021697025
0.00021668327
0.0002163226
0.00021587755
0.00021533539
0.00021468013
0.00021389244
0.0002129507
0.00021183549
0.00021053456
0.00020904187
0.00020737504
0.00020565021
0.00020411291
0.00020298802
0.00020232587
0.00020202533
0.00020192499
0.00020192191
0.00020198457
0.00020210049
0.00020225375
0.00020250342
0.00020302011
0.00020405043
0.00020277907
0.00019900344
0.000194851
0.00019121295
0.00019006286
0.00019247206
0.00019636177
0.00020062912
0.00020453636
0.00020789429
0.00021069756
0.00021302134
0.00021495772
0.00021659103
0.0002179906
0.00021921103
0.00022029478
0.00022127506
0.00022217811
0.00022302541
0.00022382311
0.00021719793
0.00021710604
0.00021697246
0.00021677623
0.00021651318
0.00021617579
0.00021575221
0.00021522773
0.00021458313
0.00021379397
0.00021283027
0.00021166115
0.00021026295
0.0002086143
0.00020670161
0.00020463969
0.00020279159
0.00020152214
0.00020088902
0.00020072064
0.00020074492
0.00020081091
0.00020089548
0.0002009985
0.00020105685
0.00020110232
0.00020133543
0.00020206484
0.00020232569
0.00019782536
0.00019245456
0.00018712758
0.00018496212
0.00018857572
0.00019388549
0.00019934884
0.00020399283
0.00020775412
0.00021075133
0.00021315034
0.00021510047
0.00021671869
0.000218092
0.00021928409
0.00022034195
0.0002213009
0.00022218817
0.00022302565
0.0002238198
0.00021725705
0.00021719328
0.00021709018
0.00021692576
0.00021669623
0.00021639379
0.00021600599
0.00021551674
0.00021490436
0.00021413991
0.0002131846
0.00021199249
0.00021052323
0.00020873634
0.00020656347
0.00020406947
0.00020178835
0.00020035216
0.00019980817
0.00019988304
0.00020010978
0.00020027111
0.00020036912
0.00020045482
0.00020037407
0.00020009658
0.00019988575
0.0002001044
0.00020118557
0.00019740335
0.00019066356
0.00018291951
0.00017861751
0.00018416722
0.000191471
0.00019845552
0.00020389794
0.00020800485
0.00021111091
0.00021350749
0.00021541053
0.00021696878
0.00021828326
0.00021942327
0.00022043758
0.00022136171
0.00022222245
0.00022304116
0.00022382389
0.00021801457
0.0002179858
0.0002179278
0.00021781336
0.00021763871
0.00021739601
0.00021707273
0.00021665201
0.00021611004
0.00021541344
0.0002145136
0.00021334405
0.00021183726
0.0002099318
0.00020748782
0.00020441648
0.00020147871
0.00019988297
0.00019958383
0.00020018251
0.00020082669
0.0002012127
0.00020139121
0.00020158855
0.00020150678
0.00020093702
0.00020031859
0.00019986383
0.00020081004
0.00019976462
0.00019129959
0.0001800241
0.00017095099
0.00017966114
0.00018948231
0.00019827447
0.00020449099
0.00020878267
0.0002118437
0.00021412281
0.00021589985
0.00021734514
0.00021856494
0.00021962803
0.00022058097
0.00022145692
0.00022228064
0.00022307186
0.00022383544
0.00022066191
0.0002207102
0.00022074021
0.00022071982
0.00022064719
0.00022051534
0.00022031299
0.00022002422
0.00021962528
0.00021908136
0.00021833858
0.00021731234
0.00021589973
0.0002140181
0.0002114667
0.0002077887
0.000203885
0.00020236745
0.00020272821
0.00020451204
0.00020601507
0.00020691815
0.00020733224
0.00020798503
0.00020832761
0.00020732738
0.00020619224
0.00020432739
0.0002049617
0.0002034857
0.00019650233
0.00018118466
0.00016222378
0.000176312
0.00018870071
0.00019949956
0.00020615133
0.00021024829
0.0002130057
0.00021501056
0.000216568
0.00021784326
0.00021893222
0.00021989438
0.0002207692
0.00022158461
0.0002223616
0.00022311718
0.00022385425
0.00022642269
0.00022656604
0.000226729
0.00022685693
0.0002269476
0.00022699611
0.00022699529
0.00022693429
0.00022679478
0.0002265471
0.00022614018
0.00022547614
0.00022439211
0.00022272361
0.00022022619
0.00021577187
0.00020956821
0.00020824851
0.00020948832
0.00021350009
0.00021647025
0.00021836419
0.00021898244
0.00022041522
0.0002221109
9.3010885e-05
9.5434172e-05
9.7692339e-05
9.9882546e-05
0.00010288206
9.4463834e-05
8.6205438e-05
0.00010657202
0.00017933741
0.00019343652
0.00020412959
0.00020945657
0.00021253644
0.00021460711
0.0002161534
0.00021739591
0.0002184479
0.00021937402
0.00022021462
0.00022099707
0.0002217414
0.00022246328
0.00022317605
0.00022387991
0.00023925013
0.00023969834
0.00024020001
0.00024068694
0.00024116822
0.00024164795
0.00024213096
0.00024262098
0.00024311687
0.0002436079
0.00024406134
0.00024438442
0.00024435631
0.00024364134
0.0002420237
0.00023809262
0.00022683372
0.00022937112
0.00023550546
0.00025026979
0.00026146271
0.00027026957
0.0001282863
0.0001669137
0.00032279004
0.00046161376
0.00049956686
0.00049956686
0.00049956686
0.00049956686
0.00049956686
0.00045031289
0.00033650012
6.8075668e-05
0.00021297687
0.00021346339
0.0002143809
0.0002154962
0.00021653801
0.00021748248
0.00021834104
0.00021913234
0.00021987319
0.0002205776
0.00022125735
0.00022192268
0.00022258287
0.0002232469
0.00022391178
0.00026428073
0.00026529085
0.00026644631
0.00026764459
0.00026890623
0.00027025584
0.00027172755
0.0002733644
0.00027521956
0.00027736059
0.000279874
0.00028285726
0.00028641201
0.00029059198
0.00029523964
0.00030241478
0.00027349687
0.00030509958
0.00035670839
0.00037263835
0.00027843733
0.00031969096
0.00049956686
0.00049956686
0.00049956686
0.00049956686
0.00049956686
0.00049956686
0.00049956686
0.00049956686
0.00041263192
0.00041826598
0.00010203737
0.00026659414
0.00023114282
0.0002220993
0.00021927723
0.00021853654
0.00021855576
0.00021888309
0.00021934261
0.00021986149
0.00022040829
0.00022096975
0.00022154129
0.00022212284
0.0002227169
0.00022332779
0.00022394899
0.00030196577
0.00030411066
0.00030624287
0.00030844726
0.00031079832
0.00031336887
0.00031624484
0.00031953947
0.00032341214
0.00032810641
0.00033401837
0.0003417229
0.00035174788
0.00036475835
0.00038492399
0.00040150409
0.0002572692
0.00025306728
0.00026352451
0.00048902734
0.00047860399
0.00048852322
0.00047869838
0.00047372144
0.0004774652
0.00045865754
0.00045171864
0.00045351551
0.00044093496
0.00043651879
0.00010691681
0.00010766938
0.0002197711
0.00025235507
0.00023695036
0.00022741256
0.00022311753
0.00022122058
0.00022045077
0.00022024594
0.00022033929
0.00022059888
0.00022095665
0.00022137654
0.00022183945
0.00022233578
0.00022286154
0.00022341648
0.00022399055
0.00028854143
0.00028905902
0.00028924782
0.00028943332
0.00028961762
0.00028983273
0.00029010465
0.00029047027
0.00029098258
0.00029171919
0.00029280233
0.00029384326
0.00029478052
0.00029554194
0.00029290076
0.00010292419
0.00037621777
0.00047079396
0.00047256039
0.00049383746
0.00048613841
0.0004824508
0.00012420931
0.00012127866
0.00010076942
0.00010005326
0.00010062805
0.00010197178
0.00010292621
0.00010452052
0.00020120659
0.00020767514
0.00021807869
0.00023901089
0.00023963168
0.00023076301
0.00022595926
0.00022341836
0.00022210957
0.00022149393
0.00022128133
0.0002213124
0.00022149723
0.000221784
0.00022214249
0.00022255527
0.00022301277
0.00022351061
0.00022403536
0.00022327002
0.00022310262
0.00022281475
0.00022253661
0.00022227599
0.00022205004
0.00022187475
0.00022177346
0.00022177848
0.00022193469
0.00022230708
0.0002220908
0.00022115892
0.00021941165
0.00021672243
0.00021314013
9.5855084e-05
9.9099401e-05
9.9868387e-05
9.977316e-05
0.00010014889
0.00010017564
0.000212539
0.00021081288
0.00020892905
0.00020554296
0.00020443439
0.00020387786
0.00020210662
0.00020212449
0.00020330447
0.00020900997
0.00021823263
0.00023217149
0.00023802014
0.00023248324
0.00022785869
0.00022509064
0.00022347723
0.00022258026
0.00022213374
0.00022197708
0.0002220125
0.00022217986
0.00022244187
0.00022277546
0.0002231667
0.00022360779
0.00022408227
0.00021926943
0.00021934951
0.00021947605
0.00021961156
0.00021976728
0.00021995534
0.00022018834
0.00022048233
0.00022085662
0.00022133404
0.00022186525
0.00022156581
0.00022080995
0.00021957352
0.00021779962
0.00021498529
0.00021250178
0.00021402479
0.00021587564
0.0002142144
0.00021238114
0.00021121521
0.0002100584
0.00020833652
0.00020730261
0.00020568505
0.00020477874
0.00020420416
0.00020347811
0.0002039466
0.00020593019
0.00021088593
0.00021854519
0.00022810464
0.00023382828
0.00023318312
0.00022902171
0.00022628706
0.00022454937
0.0002234859
0.00022287662
0.00022257611
0.00022248934
0.00022255425
0.00022273031
0.00022299112
0.00022331974
0.00022370575
0.00022413017
0.00021789339
0.00021797302
0.0002180984
0.0002182372
0.00021839226
0.00021857115
0.00021878239
0.00021903709
0.00021934774
0.00021972807
0.0002199771
0.00021948461
0.00021872599
0.00021765113
0.00021622365
0.0002143878
0.0002132568
0.00021410887
0.00021526896
0.00021349522
0.00021190167
0.00021068233
0.00020952555
0.00020831041
0.00020735548
0.00020629636
0.00020564585
0.00020528508
0.00020521051
0.00020608598
0.00020832919
0.00021261785
0.00021875633
0.00022561165
0.00023029709
0.00023231187
0.00022962827
0.0002270823
0.00022534851
0.00022421126
0.00022350245
0.00022310024
0.00022291912
0.00022289993
0.00022300208
0.00022319789
0.00022346875
0.00022380245
0.00022417802
0.00021721513
0.00021733617
0.00021747594
0.00021762701
0.00021779534
0.00021798734
0.00021820921
0.00021846844
0.00021877206
0.00021912545
0.00021921312
0.00021876962
0.00021811767
0.00021722726
0.00021607817
0.00021481865
0.00021419169
0.00021469558
0.00021503963
0.0002134118
0.00021201399
0.00021086181
0.00020980411
0.00020882241
0.00020800218
0.00020726646
0.00020684772
0.00020673274
0.00020702863
0.00020812142
0.00021033338
0.00021399022
0.00021886824
0.0002240069
0.0002278605
0.00023021623
0.00022984737
0.00022756033
0.00022591167
0.00022476934
0.00022401296
0.00022354646
0.00022329727
0.00022321223
0.00022325302
0.00022339237
0.00022361114
0.00022389612
0.0002242249
0.00021692585
0.00021699892
0.00021711492
0.00021725008
0.00021740251
0.00021757571
0.00021777349
0.00021800073
0.00021826133
0.00021855676
0.00021852155
0.00021813173
0.00021759888
0.00021691142
0.00021608191
0.00021528757
0.00021497402
0.00021536243
0.00021499654
0.00021359503
0.00021236932
0.00021132254
0.00021038888
0.00020956829
0.00020889376
0.00020837544
0.00020813448
0.00020820725
0.00020871078
0.00020988613
0.0002119512
0.00021504864
0.00021894879
0.00022294116
0.00022613692
0.0002283016
0.00022929976
0.00022779479
0.00022627933
0.00022517965
0.00022441591
0.0002239164
0.00022362253
0.00022348872
0.00022348045
0.00022357208
0.00022374486
0.00022398528
0.00022427002
0.00021678308
0.0002168961
0.00021702166
0.00021715736
0.0002173072
0.00021747426
0.00021766022
0.00021786695
0.00021809449
0.00021833969
0.00021824764
0.00021789865
0.00021744613
0.00021689479
0.0002162847
0.00021577473
0.00021563221
0.00021596206
0.00021504938
0.00021385968
0.00021279618
0.00021186993
0.00021106054
0.00021037558
0.0002098379
0.00020948006
0.00020937734
0.00020958228
0.00021019629
0.00021137536
0.00021325542
0.00021588098
0.00021904057
0.00022223144
0.00022490613
0.0002268547
0.00022808825
0.00022785152
0.00022649108
0.00022546431
0.00022472251
0.00022421488
0.00022389618
0.00022372887
0.00022368302
0.00022373544
0.00022386846
0.00022406882
0.00022431273
0.00021670965
0.00021677974
0.00021688613
0.00021700939
0.00021714703
0.00021730015
0.00021746894
0.00021765361
0.00021785226
0.00021805939
0.00021796693
0.00021768148
0.00021732529
0.0002169115
0.00021648847
0.00021618111
0.00021615433
0.00021618286
0.00021514152
0.00021414015
0.00021322865
0.00021242679
0.00021173707
0.0002111728
0.00021075672
0.00021052436
0.00021053013
0.00021082663
0.00021149392
0.00021263367
0.00021432387
0.00021655824
0.00021915557
0.00022176271
0.00022402179
0.00022575855
0.00022694737
0.00022750504
0.00022658112
0.00022564508
0.00022494543
0.00022444861
0.00022412125
0.00022393355
0.00022386047
0.00022388166
0.00022398102
0.00022414594
0.00022435257
0.00021665623
0.00021674775
0.00021685455
0.00021697064
0.00021709761
0.00021723642
0.00021738618
0.0002175457
0.00021771164
0.00021787722
0.00021779574
0.00021755758
0.00021727494
0.00021696675
0.00021668075
0.00021651055
0.00021656149
0.00021611043
0.00021525485
0.00021441806
0.00021364688
0.00021296632
0.0002123902
0.00021193582
0.00021162664
0.00021149585
0.00021158633
0.00021194439
0.00021263014
0.00021370869
0.00021521957
0.00021713224
0.00021929778
0.00022146577
0.00022339067
0.00022493218
0.00022605042
0.0002267754
0.00022657961
0.00022574224
0.00022509753
0.00022462523
0.00022430187
0.0002241047
0.00022401337
0.00022401059
0.00022408206
0.00022421612
0.00022438919
0.00021662395
0.00021669059
0.00021678551
0.00021689283
0.00021701035
0.00021713777
0.00021727321
0.00021741448
0.00021755723
0.00021769398
0.00021764712
0.00021745887
0.00021724477
0.00021702594
0.00021684515
0.00021677205
0.00021670953
0.00021608956
0.00021538694
0.0002146931
0.00021404955
0.00021348312
0.00021301287
0.0002126583
0.00021244265
0.00021239549
0.00021255169
0.00021294936
0.00021363204
0.00021463993
0.00021598816
0.00021763665
0.00021946557
0.00022129424
0.00022294771
0.00022431427
0.00022535067
0.00022606652
0.00022637932
0.00022577334
0.00022519098
0.0002247526
0.0002244428
0.00022424491
0.00022414296
0.0002241226
0.00022417151
0.00022427914
0.0002244224
0.0002166
0.00021667238
0.00021676276
0.00021686127
0.00021696754
0.00021708123
0.00021720001
0.00021732121
0.00021744016
0.00021754949
0.00021753705
0.00021739047
0.00021723252
0.00021708417
0.00021698173
0.00021695139
0.00021664534
0.00021611072
0.00021553614
0.00021496669
0.00021443823
0.00021397714
0.00021360428
0.00021333979
0.00021320579
0.00021322802
0.00021343495
0.00021385661
0.00021452351
0.00021545883
0.00021666298
0.00021809412
0.00021965661
0.00022121746
0.00022264825
0.00022386022
0.00022481183
0.00022550133
0.00022595299
0.00022575363
0.00022523685
0.00022483833
0.00022454898
0.0002243572
0.00022425088
0.00022421848
0.0002242496
0.00022433495
0.00022445211
0.00021658897
0.00021664905
0.00021673162
0.00021682269
0.0002169203
0.00021702349
0.0002171295
0.00021723536
0.00021733629
0.00021742529
0.00021744835
0.00021733905
0.00021722836
0.00021713594
0.00021709195
0.00021696976
0.0002166017
0.0002161666
0.00021570076
0.00021523989
0.00021481461
0.00021444956
0.00021416547
0.00021398189
0.00021391918
0.00021399937
0.00021424548
0.00021468042
0.00021532467
0.00021618996
0.00021726831
0.00021851993
0.00021986847
0.00022121411
0.00022246033
0.00022353644
0.00022440483
0.00022505775
0.00022550895
0.00022566406
0.00022524487
0.00022488952
0.00022462532
0.00022444477
0.00022433909
0.00022429929
0.00022431684
0.00022438373
0.00022447834
0.00021658517
0.0002166438
0.00021672076
0.00021680404
0.00021689227
0.00021698446
0.00021707775
0.00021716912
0.00021725403
0.00021732613
0.00021736773
0.00021730022
0.00021722786
0.00021717877
0.00021711435
0.00021690122
0.00021660055
0.00021625019
0.00021587793
0.00021551232
0.00021517937
0.00021490134
0.0002146977
0.00021458666
0.00021458638
0.00021471543
0.00021499209
0.00021543325
0.00021605192
0.00021685218
0.00021782165
0.00021892421
0.00022009867
0.00022126869
0.00022236036
0.00022331717
0.00022410612
0.0002247168
0.00022515618
0.00022544241
0.0002252234
0.00022491261
0.00022467649
0.00022451084
0.00022440968
0.00022436628
0.00022437388
0.00022442577
0.00022450119
0.00021658988
0.00021664203
0.00021671317
0.00021678993
0.00021687046
0.00021695359
0.00021703643
0.00021711606
0.00021718833
0.00021724767
0.00021728701
0.00021726926
0.00021722758
0.00021717814
0.00021706339
0.00021687378
0.00021663252
0.00021635556
0.00021606477
0.00021578324
0.00021553295
0.00021533356
0.00021520272
0.0002151568
0.00021521156
0.00021538235
0.00021568333
0.00021612648
0.00021671923
0.0002174607
0.00021833652
0.00021931467
0.00022034579
0.00022137056
0.00022233151
0.00022318328
0.00022389755
0.00022446312
0.00022488284
0.00022516929
0.00022517979
0.00022491341
0.00022470689
0.00022455858
0.00022446481
0.00022442084
0.00022442152
0.00022446145
0.00022452079
0.00021660051
0.0002166494
0.00021671555
0.00021678604
0.00021685919
0.00021693387
0.00021700729
0.00021707678
0.00021713865
0.00021718818
0.00021721959
0.00021722587
0.00021720005
0.00021713679
0.00021702895
0.00021687789
0.00021668957
0.00021647706
0.00021625795
0.00021605111
0.00021587504
0.0002157468
0.00021568193
0.00021569472
0.00021579848
0.00021600557
0.00021632659
0.00021676952
0.0002173377
0.00021802701
0.00021882256
0.00021969629
0.00022060808
0.00022151119
0.00022236042
0.00022311925
0.00022376374
0.00022428309
0.00022467777
0.00022495656
0.00022509757
0.00022489686
0.00022472045
0.00022459094
0.00022450658
0.00022446435
0.00022446059
0.00022449119
0.00022453731
0.00021661654
0.00021666145
0.00021672312
0.00021678823
0.00021685506
0.00021692252
0.00021698798
0.00021704911
0.00021710275
0.00021714503
0.00021717142
0.00021717688
0.0002171563
0.00021710528
0.00021702119
0.00021690596
0.00021676524
0.00021660996
0.00021645453
0.00021631451
0.00021620542
0.00021614182
0.00021613704
0.00021620319
0.00021635118
0.00021659061
0.000216929
0.00021737106
0.00021791709
0.00021856096
0.00021928794
0.00022007362
0.00022088509
0.00022168513
0.00022243785
0.00022311387
0.00022369323
0.00022416618
0.00022453203