/*--------------------------------*- C++ -*----------------------------------*\
| =========                 |                                                 |
| \\      /  F ield         | foam-extend: Open Source CFD                    |
|  \\    /   O peration     | Version:     4.1                                |
|   \\  /    A nd           | Web:         http://www.foam-extend.org         |
|    \\/     M anipulation  |                                                 |
\*---------------------------------------------------------------------------*/
FoamFile
{
    version     2.0;
    format      ascii;
    class       volScalarField;
    location    "0.15";
    object      p;
}
// * * * * * * * * * * * * * * * * * * * * * * * * * * * * * * * * * * * * * //

dimensions      [0 2 -2 0 0 0 0];

internalField   nonuniform List<scalar> 
16796
(
-7.2822544
-14.83
-22.986388
-31.262095
-39.613979
-48.045148
-56.569638
-65.203295
-73.960736
-82.854117
-91.892668
-101.08238
-110.42593
-119.92265
-129.56862
-139.35681
-149.27735
-159.31783
-169.46379
-179.69916
-190.00691
-200.36971
-210.77073
-221.19441
-231.62742
-242.05953
-252.48454
-262.90128
-273.31438
-283.73519
-294.18237
-304.68264
-315.27091
-325.99068
-336.89387
-348.04056
-359.49835
-371.34151
-383.6498
-396.507
-409.99912
-424.21241
-439.23114
-455.13527
-471.99809
-489.88367
-508.84434
-528.91834
-550.12748
-572.47496
-595.94336
-620.49282
-646.05961
-672.55481
-699.86351
-727.84419
-756.32833
-785.12058
-813.99917
-842.71696
-871.00278
-898.56339
-925.08584
-950.24038
-973.68392
-995.0639
-1014.0227
-1030.2027
-1043.2511
-1052.8261
-1058.6021
-1060.2763
-1057.5741
-1050.2547
-1038.1172
-1021.0045
-998.80841
-971.47239
-938.99354
-901.42195
-858.8592
-811.46734
-759.48855
-703.19669
-642.88351
-578.89156
-511.59895
-441.41112
-368.75347
-294.0642
-217.78733
-140.36605
-62.236622
16.177343
94.469693
172.2559
249.17636
324.89892
399.12058
471.56844
542.00003
610.20297
675.99415
739.2185
799.74736
857.47664
912.32486
964.23102
1013.1525
1059.063
1101.9506
1141.8161
1178.6715
1212.5389
1243.4486
1271.44
1296.568
1318.9222
1338.597
1355.5593
1369.6586
1381.8941
1396.0049
1414.1655
-5.76537
-14.615577
-22.935495
-31.247928
-39.602984
-48.029848
-56.548828
-65.177555
-73.931252
-82.822298
-91.859989
-101.0503
-110.39584
-119.89581
-129.54613
-139.33955
-149.26597
-159.3127
-169.46497
-179.70639
-190.01958
-200.38688
-210.79107
-221.21626
-231.64876
-242.07802
-252.49756
-262.90592
-273.30752
-283.71355
-294.14257
-304.62123
-315.18454
-325.87608
-336.74803
-347.86075
-359.2823
-371.08746
-383.35664
-396.17432
-409.62733
-423.80279
-438.78592
-454.65771
-471.49256
-489.35555
-508.30002
-528.36522
-549.57394
-571.93027
-595.41757
-619.99673
-645.60459
-672.15269
-699.52647
-727.58456
-756.15846
-785.05257
-814.04469
-842.88695
-871.30729
-899.01126
-925.68451
-950.99567
-974.59977
-996.14219
-1015.2631
-1031.6025
-1044.8051
-1054.5265
-1060.4389
-1062.2368
-1059.6433
-1052.4158
-1040.3513
-1023.2915
-1001.1274
-973.80225
-941.3145
-903.71931
-861.12713
-813.70074
-761.64351
-705.21949
-644.75005
-580.58538
-513.10765
-442.72557
-369.86765
-294.97506
-218.49468
-140.87241
-62.54693
16.055939
94.528169
172.48366
249.56156
325.4288
399.78175
472.34718
542.88252
611.17555
677.04349
740.33173
800.91221
858.6815
913.5588
965.48378
1014.4144
1060.325
1103.2039
1143.0519
1179.8809
1213.7116
1244.5721
1272.4992
1297.5471
1319.7919
1339.2917
1356.0094
1369.9086
1381.867
1393.666
1404.0289
-5.438238
-14.057599
-22.388221
-30.69913
-39.043149
-47.45924
-55.972947
-64.604355
-73.369692
-82.281661
-91.349485
-100.57877
-109.97155
-119.52623
-129.23776
-139.09778
-149.09495
-159.21522
-169.44238
-179.75854
-190.14479
-200.58193
-211.05123
-221.53532
-232.01912
-242.49077
-252.94263
-263.37221
-273.78307
-284.18573
-294.59831
-305.04723
-315.56752
-326.20307
-337.0066
-348.03932
-359.37041
-371.07606
-383.23837
-395.94382
-409.28139
-423.34072
-438.20994
-453.97304
-470.70684
-488.47908
-507.34598
-527.34968
-548.51573
-570.85089
-594.34096
-618.94898
-644.61364
-671.2478
-698.73775
-726.94258
-755.69379
-784.79519
-814.02336
-843.12865
-871.83655
-899.84964
-926.84998
-952.50207
-976.45636
-998.3532
-1017.8274
-1034.5132
-1048.0498
-1058.0867
-1064.2905
-1066.35
-1063.9832
-1056.9426
-1045.0212
-1028.0569
-1005.9381
-978.60689
-946.06234
-908.35946
-865.61121
-817.98664
-765.69956
-709.01525
-648.25079
-583.76114
-515.93413
-445.18427
-371.94584
-296.6657
-219.7962
-141.78836
-63.085564
15.882193
94.703291
172.98866
250.37511
326.52787
401.14222
473.9444
544.69181
613.17268
679.20504
742.63546
803.33726
861.20864
916.17055
968.16451
1017.1504
1063.1043
1106.0165
1145.8897
1182.7371
1216.5809
1247.4501
1275.3828
1300.4317
1322.6594
1342.101
1358.7492
1372.7077
1384.647
1394.7193
1400.6312
-5.4590584
-13.889628
-22.153974
-30.421219
-38.727316
-47.109964
-55.59623
-64.207544
-72.961017
-81.869829
-90.94335
-100.18707
-109.60266
-119.18792
-128.937
-138.84056
-148.88604
-159.05811
-169.33908
-179.70952
-190.14891
-200.6364
-211.15162
-221.67561
-232.19174
-242.68676
-253.15169
-263.58295
-273.98317
-284.36216
-294.73759
-305.13567
-315.59155
-326.14951
-336.86298
-347.79424
-359.01382
-370.59962
-382.63578
-395.21109
-408.41743
-422.34801
-437.09391
-452.74165
-469.37122
-487.05386
-505.84918
-525.80278
-546.9436
-569.28168
-592.80587
-617.48196
-643.25098
-670.02776
-697.69992
-726.1272
-755.14121
-784.54514
-814.1142
-843.59653
-872.71466
-901.16733
-928.63202
-954.76789
-979.21931
-1001.62
-1021.5974
-1038.7784
-1052.7939
-1063.2859
-1069.9126
-1072.3553
-1070.3246
-1063.5665
-1051.8678
-1035.0611
-1013.0314
-985.71943
-953.12318
-915.29603
-872.3508
-824.45736
-771.83768
-714.76546
-653.56256
-588.591
-520.24667
-448.95252
-375.1514
-299.29869
-221.85491
-143.2788
-64.020796
15.482828
94.815034
173.58226
251.41779
327.98424
402.97517
476.11593
547.16381
615.90756
682.16629
745.78809
806.64818
864.64687
919.70737
971.77352
1020.8075
1066.7876
1109.7061
1149.5674
1186.3859
1220.1846
1250.9932
1278.8501
1303.8043
1325.9043
1345.1719
1361.6339
1375.4564
1387.079
1395.9743
1400.2816
-5.2490002
-13.524443
-21.698107
-29.905345
-38.16638
-46.515263
-54.978821
-63.579009
-72.333406
-81.255395
-90.35424
-99.635028
-109.09872
-118.74216
-128.55827
-138.53624
-148.66185
-158.91791
-169.28474
-179.74081
-190.26342
-200.8295
-211.41647
-222.00321
-232.57103
-243.10472
-253.59355
-264.03237
-274.42251
-284.77278
-295.10015
-305.43052
-315.79911
-326.25068
-336.83961
-347.62956
-358.69293
-370.10995
-381.96755
-394.35806
-407.37804
-421.12465
-435.6922
-451.17149
-467.64768
-485.19692
-503.88378
-523.75877
-544.85561
-567.18878
-590.75124
-615.51243
-641.41649
-668.38062
-696.29415
-725.01762
-754.38265
-784.19151
-814.21733
-844.20514
-873.87325
-902.91509
-931.00181
-957.7852
-982.90137
-1005.9749
-1026.6236
-1044.4637
-1059.1159
-1070.2109
-1077.3966
-1080.3437
-1078.7531
-1072.3621
-1060.9493
-1044.3406
-1022.4164
-995.11592
-962.43608
-924.43073
-881.21447
-832.9601
-779.8959
-722.30333
-660.51228
-594.89436
-525.85605
-453.83155
-379.27513
-302.6535
-224.43812
-145.09803
-65.09307
15.132127
95.153339
174.57108
253.01398
330.14126
405.64433
479.24749
550.70799
619.8154
686.39045
750.28343
811.37223
869.56014
924.7736
976.95972
1026.0839
1072.1275
1115.0857
1154.9649
1191.7816
1225.5592
1256.3279
1284.1247
1308.9922
1330.965
1350.0565
1366.3087
1379.8611
1390.9303
1398.8118
1402.3086
-5.1657305
-13.332092
-21.404311
-29.530515
-37.725073
-46.019872
-54.441389
-63.011939
-71.749546
-80.667863
-89.776158
-99.079219
-108.57739
-118.26662
-128.13862
-138.18109
-148.37812
-158.71055
-169.1566
-179.69246
-190.29304
-200.93285
-211.58684
-222.23146
-232.84566
-243.41197
-253.91764
-264.35565
-274.72577
-285.03556
-295.30112
-305.54786
-315.81098
-326.13572
-336.57744
-347.20136
-358.08194
-369.30198
-380.95187
-393.12863
-405.9337
-419.46744
-433.82912
-449.11545
-465.41706
-482.81592
-501.38267
-521.17368
-542.22841
-564.56683
-588.18699
-613.0628
-639.14239
-666.346
-694.56506
-723.66143
-753.46676
-783.78248
-814.37934
-844.99866
-875.35373
-905.13163
-933.99578
-961.58902
-987.53733
-1011.4541
-1032.945
-1051.6136
-1067.067
-1078.9228
-1086.815
-1090.4018
-1089.3711
-1083.4493
-1072.4045
-1056.0539
-1034.2717
-1006.9945
-974.21692
-935.99315
-892.44046
-843.7367
-790.11785
-731.87476
-669.34806
-602.92159
-533.0153
-460.07754
-384.57707
-306.99492
-227.81644
-147.52364
-66.588277
14.53447
95.411335
175.63539
254.82944
332.64853
408.78136
482.951
554.91473
624.46327
691.41945
755.63641
816.99549
875.40391
930.79226
983.11195
1032.3327
1078.4402
1121.4333
1161.3225
1198.1269
1231.8729
1262.5925
1290.3233
1315.1043
1336.9638
1355.9169
1372.0134
1385.3441
1395.9757
1403.205
1406.2814
-4.9624543
-13.010911
-20.974084
-29.012308
-37.135459
-45.374156
-53.754678
-62.299586
-71.027195
-79.951267
-89.080896
-98.420367
-107.96918
-117.7221
-127.66934
-137.79678
-148.08643
-158.5168
-169.06358
-179.70024
-190.39889
-201.1311
-211.86892
-222.58588
-233.2581
-243.86545
-254.39266
-264.83049
-275.17679
-285.43758
-295.62784
-305.77236
-315.90629
-326.07538
-336.33612
-346.75564
-357.41074
-368.38748
-379.78081
-391.69348
-404.23127
-417.49957
-431.60443
-446.64921
-462.73142
-479.9403
-498.35372
-518.0353
-539.03149
-561.36895
-585.05192
-610.05977
-636.34536
-663.83275
-692.41591
-721.95813
-752.29095
-783.21482
-814.49768
-845.87638
-877.05812
-907.72228
-937.52298
-966.09225
-993.04379
-1017.9774
-1040.4843
-1060.1524
-1076.5728
-1089.3467
-1098.0919
-1102.4506
-1102.0959
-1096.7404
-1086.1397
-1070.1004
-1048.4895
-1021.2394
-988.34208
-949.85233
-905.8904
-856.6402
-802.34672
-743.31209
-679.89022
-612.48002
-541.51786
-467.4694
-390.82108
-312.07142
-231.72267
-150.27268
-68.207692
14.004327
95.919166
177.12092
257.22542
335.88271
412.77836
487.63402
560.20711
630.28983
697.70759
762.31705
824.00372
882.67949
938.27989
990.76141
1040.0988
1086.2824
1129.3158
1169.2132
1205.9974
1239.6972
1270.3468
1297.9841
1322.6454
1344.3567
1363.137
1379.0384
1392.1131
1402.3611
1409.1469
1411.9792
-4.8238513
-12.761691
-20.604832
-28.538822
-36.573274
-44.739175
-53.063262
-61.568653
-70.274137
-79.193706
-88.336361
-97.705924
-107.30105
-117.11526
-127.13717
-137.35071
-147.73561
-158.26784
-168.92027
-179.66336
-190.46606
-201.29668
-212.12394
-222.91807
-233.65196
-244.30238
-254.85116
-265.28646
-275.60382
-285.80743
-295.91087
-305.93815
-315.92421
-325.91524
-335.96901
-346.15465
-356.5515
-367.24956
-378.34924
-389.95911
-402.18946
-415.15263
-428.96201
-443.7286
-459.55801
-476.54789
-494.78461
-514.34023
-535.2695
-557.60695
-581.36414
-606.52699
-633.05394
-660.87375
-689.88342
-719.94816
-750.89976
-782.53729
-814.62573
-846.89682
-879.05076
-910.75803
-941.66193
-971.38183
-999.51711
-1025.6517
-1049.3595
-1070.2101
-1087.7758
-1101.6381
-1111.3958
-1116.672
-1117.1218
-1112.4416
-1102.3721
-1086.707
-1065.3045
-1038.0917
-1005.0577
-966.2578
-921.81604
-871.92349
-816.83565
-756.86807
-692.39055
-623.82006
-551.61262
-476.25456
-398.25338
-318.12852
-236.40232
-153.5915
-70.19944
13.290749
96.421973
178.76782
259.93605
339.57097
417.35467
493.00738
566.28695
636.98758
704.93804
769.99938
832.06238
891.04467
946.88796
999.55499
1049.0267
1095.2996
1138.3828
1178.2957
1215.0653
1248.7245
1279.31
1306.8606
1331.4117
1352.9887
1371.6127
1387.3322
1400.172
1410.1119
1416.5912
1419.2699
-4.6167764
-12.430821
-20.144717
-27.966524
-35.905398
-43.993385
-52.258114
-60.723462
-69.408753
-78.328194
-87.490616
-96.899256
-106.55175
-116.44019
-126.55132
-136.86686
-147.36393
-158.01559
-168.79151
-179.65875
-190.58264
-201.52779
-212.45911
-223.34306
-234.14881
-244.84956
-255.42378
-265.85658
-276.14084
-286.27854
-296.28161
-306.17303
-315.98745
-325.77148
-335.58433
-345.49724
-355.59257
-365.96499
-376.7212
-387.97548
-399.84427
-412.44807
-425.90863
-440.34576
-455.87457
-472.60249
-490.62578
-510.02639
-530.86871
-553.19644
-577.0297
-602.36213
-629.15862
-657.35353
-686.84752
-717.50808
-749.16747
-781.62293
-814.63631
-847.93357
-881.20691
-914.11661
-946.29354
-977.34252
-1006.8464
-1034.3706
-1059.4693
-1081.6907
-1100.585
-1115.7113
-1126.6455
-1132.989
-1134.3757
-1130.483
-1121.0339
-1105.8073
-1084.6503
-1057.4835
-1024.293
-985.13453
-940.13624
-889.49766
-833.4865
-772.43399
-706.72867
-636.80872
-563.15328
-486.27299
-406.70014
-324.97867
-241.65452
-157.26648
-72.337942
12.630351
97.166375
180.83161
263.22456
343.98304
422.78533
499.35019
573.43617
644.84
713.3945
778.96599
841.4514
900.77519
956.88622
1009.7546
1059.3685
1105.7315
1148.8593
1188.7774
1225.5185
1259.1202
1289.623
1317.0684
1341.4931
1362.9244
1381.3865
1396.9242
1409.5471
1419.2373
1425.4952
1428.0698
-4.4318606
-12.117114
-19.687928
-27.38205
-35.209957
-43.205742
-51.39854
-59.813372
-68.470342
-77.384018
-86.563129
-96.010323
-105.72216
-115.68917
-125.89608
-136.32214
-146.94159
-157.72428
-168.63633
-179.64098
-190.69955
-201.77244
-212.82034
-223.8054
-234.69259
-245.45103
-256.05536
-266.48717
-276.73625
-286.80194
-296.69423
-306.43481
-316.05785
-325.61029
-335.15287
-344.75899
-354.51449
-364.51928
-374.88669
-385.73735
-397.19518
-409.38947
-422.45142
-436.51096
-451.69408
-468.11933
-485.89433
-505.11236
-525.84889
-548.15823
-572.07036
-597.58789
-624.68327
-653.29735
-683.33523
-714.66718
-747.12621
-780.50773
-814.57017
-849.0331
-883.57979
-917.85907
-951.48776
-984.05419
-1015.1223
-1044.2368
-1070.9286
-1094.722
-1115.1416
-1131.7203
-1144.0084
-1151.5815
-1154.0492
-1151.0666
-1142.3366
-1127.6205
-1106.7519
-1079.6441
-1046.2797
-1006.7144
-961.08161
-909.59029
-852.52226
-790.22692
-723.11454
-651.64797
-576.33326
-497.70929
-416.33712
-332.78914
-247.63859
-161.44974
-74.769046
11.882566
98.016052
183.1792
266.96016
348.98966
428.94191
506.53442
581.5269
653.71938
722.94965
789.09039
852.0459
911.74867
968.15597
1021.2464
1071.0168
1117.4786
1160.6553
1200.5794
1237.2901
1270.8305
1301.2456
1328.5806
1352.8747
1374.1587
1392.4597
1407.8211
1420.2473
1429.7321
1435.8221
1438.3212
-4.2011207
-11.742961
-19.157606
-26.712523
-34.419243
-42.314385
-50.428997
-58.789523
-67.417008
-76.326445
-85.526451
-95.01901
-104.79948
-114.85662
-125.17291
-135.72485
-146.4835
-157.41508
-168.48179
-179.6426
-190.85433
-202.07271
-213.25364
-224.35448
-235.33542
-246.16099
-256.80144
-267.23434
-277.44588
-287.43241
-297.20156
-306.77344
-316.18159
-325.47317
-334.71051
-343.96928
-353.33925
-362.92623
-372.85079
-383.24074
-394.22837
-405.95291
-418.55625
-432.1799
-446.96206
-463.03397
-480.51616
-499.51482
-520.11808
-542.39235
-566.37895
-592.09078
-619.509
-648.582
-679.22019
-711.29714
-744.64699
-779.06309
-814.3003
-850.0712
-886.04915
-921.87025
-957.13559
-991.41499
-1024.2512
-1055.1652
-1083.6621
-1109.2385
-1131.3901
-1149.6204
-1163.4495
-1172.424
-1176.1257
-1174.1839
-1166.2784
-1152.1502
-1131.6169
-1104.5828
-1071.0265
-1031.0041
-984.65419
-932.19683
-873.92991
-810.22367
-741.51342
-668.29048
-591.09187
-510.48909
-427.07635
-341.45878
-254.241
-166.01646
-77.357939
11.190683
99.121129
185.96584
271.30149
354.75112
435.98473
514.7188
590.71482
663.7769
733.74892
800.51111
863.9764
924.08668
980.80903
1034.132
1084.062
1130.62
1173.8385
1213.7583
1250.4259
1283.8912
1314.2051
1341.4171
1365.571
1386.7014
1404.8392
1420.0286
1432.2746
1441.5853
1447.5415
1449.982
-3.9681923
-11.354787
-18.596364
-25.995353
-33.565294
-41.346005
-49.370929
-57.668303
-66.260354
-75.162645
-84.383732
-93.924908
-103.78022
-113.93652
-124.37379
-135.0655
-145.97919
-157.07711
-168.31706
-179.65331
-191.03767
-202.42069
-213.7529
-224.98629
-236.07572
-246.98049
-257.66592
-268.10497
-278.27973
-288.18304
-297.81974
-307.20806
-316.38056
-325.38457
-334.28393
-343.15657
-352.09669
-361.21691
-370.64522
-380.51704
-390.97447
-402.16773
-414.25066
-427.3777
-441.70087
-457.36566
-474.50719
-493.24628
-513.6854
-535.90475
-559.95851
-585.87135
-613.63452
-643.20499
-674.49954
-707.39564
-741.72901
-777.29111
-813.83295
-851.05958
-888.63359
-926.17698
-963.27349
-999.47231
-1034.2925
-1067.2284
-1097.7563
-1125.3415
-1149.447
-1169.5427
-1185.1149
-1195.677
-1200.7786
-1200.0201
-1193.0544
-1179.5994
-1159.4538
-1132.5115
-1098.7462
-1058.2142
-1011.0603
-957.51688
-897.90009
-832.604
-762.09251
-686.88957
-607.56774
-524.73589
-439.02619
-351.0812
-261.54134
-171.03325
-80.159524
10.5101
100.44584
189.16311
276.22611
361.24965
443.89954
523.89168
600.99006
675.00399
745.78463
813.22113
877.23653
937.78356
994.84054
1048.4073
1098.5014
1145.1545
1188.4092
1228.3156
1264.9288
1298.3063
1328.5059
1355.583
1379.5865
1400.5564
1418.5278
1433.5478
1445.6256
1454.7835
1460.6272
1463.0196
-3.6974728
-10.911174
-17.962167
-25.189551
-32.608852
-40.263526
-48.189786
-56.417964
-64.971666
-73.867122
-83.112842
-92.709368
-102.6493
-112.91738
-123.49084
-134.33982
-145.42796
-156.71312
-168.14827
-179.68248
-191.26202
-202.83166
-214.33601
-225.72106
-236.93569
-247.93336
-258.6738
-269.12477
-279.26366
-289.07927
-298.57319
-307.76136
-316.67507
-325.36171
-333.88646
-342.32965
-350.79046
-359.38912
-368.26085
-377.54978
-387.40933
-398.00171
-409.49407
-422.05528
-435.85276
-451.04803
-467.79259
-486.2237
-506.46001
-528.59727
-552.70427
-578.81905
-606.94446
-637.04716
-669.05156
-702.83969
-738.24946
-775.07079
-813.05026
-851.88503
-891.226
-930.67979
-969.81104
-1008.1462
-1045.178
-1080.3713
-1113.1698
-1143.004
-1169.3002
-1191.4903
-1209.0226
-1221.3726
-1228.0539
-1228.6332
-1222.7333
-1210.0456
-1190.3475
-1163.5192
-1129.5287
-1088.4332
-1040.3841
-985.62763
-924.50048
-857.42376
-784.89402
-707.47237
-625.77198
-540.44436
-452.16501
-361.61911
-269.48773
-176.4351
-83.097413
9.9266347
102.08334
192.86945
281.83561
368.58805
452.78854
534.153
612.44894
687.49211
759.14242
827.29954
891.89828
952.90389
1010.3076
1064.122
1114.3775
1161.1176
1204.3964
1244.2747
1280.8171
1314.0901
1344.1589
1371.0859
1394.9265
1415.7264
1433.526
1448.3769
1460.2936
1469.312
1475.0563
1477.407
-3.4099745
-10.433374
-17.272946
-24.309292
-31.560486
-39.074188
-46.88983
-55.040172
-63.550434
-72.437643
-81.710301
-91.368143
-101.40219
-111.79488
-122.52042
-133.54527
-144.8288
-156.32405
-167.97868
-179.73598
-191.53615
-203.31758
-215.0183
-226.57762
-237.93776
-249.04566
-259.85476
-270.32692
-280.43419
-290.1607
-299.50426
-308.47803
-317.11164
-325.45237
-333.56654
-341.53701
-349.46825
-357.48823
-365.74035
-374.37873
-383.56872
-393.48588
-404.31202
-416.23214
-429.43081
-444.08745
-460.37188
-478.4398
-498.42804
-520.44987
-544.59058
-570.9033
-599.40415
-630.07085
-662.83669
-697.58916
-734.16904
-772.36515
-811.91921
-852.52018
-893.80644
-935.36791
-976.7484
-1017.4493
-1056.9345
-1094.6359
-1129.9614
-1162.3024
-1191.044
-1215.5758
-1235.3028
-1249.6584
-1258.1148
-1260.201
-1255.5049
-1243.6885
-1224.504
-1197.8155
-1163.5841
-1121.8684
-1072.8269
-1016.7209
-953.91059
-884.84757
-810.06542
-730.16756
-645.81337
-557.70289
-466.56089
-373.12093
-278.11008
-182.23497
-86.169488
9.4554062
104.0596
197.11943
288.17112
376.81205
462.70031
545.55264
625.14132
701.29003
773.86912
842.7906
908.00288
969.48556
1027.2445
1081.307
1131.7174
1178.533
1221.8206
1261.6527
1298.1049
1331.2534
1361.1722
1387.9317
1411.5942
1432.2123
1449.8322
1464.511
1476.2697
1485.1557
1490.8081
1493.1205
-3.085331
-9.89649
-16.502001
-23.327081
-30.392424
-37.750363
-45.443941
-53.508658
-61.971555
-70.850563
-80.154191
-89.88129
-100.02115
-110.55366
-121.44972
-132.67176
-144.17446
-155.90557
-167.80691
-179.81547
-191.86473
-203.88604
-215.8102
-227.56912
-239.09762
-250.33534
-261.22869
-271.73289
-281.81391
-291.45056
-300.63621
-309.38078
-317.71172
-325.67601
-333.34089
-340.79179
-348.13876
-355.51785
-363.08186
-370.99551
-379.43717
-388.59693
-398.67291
-409.86804
-422.38585
-436.42567
-452.17776
-469.81841
-489.50478
-511.36981
-535.51734
-562.01752
-590.90162
-622.15989
-655.73597
-691.52387
-729.36808
-769.05669
-810.32639
-852.85761
-896.27537
-940.15163
-984.00755
-1027.3173
-1069.5127
-1109.99
-1148.1168
-1183.2413
-1214.703
-1241.8437
-1264.0202
-1280.6182
-1291.0634
-1294.8419
-1291.5026
-1280.6734
-1262.0777
-1235.5602
-1201.0747
-1158.6805
-1108.5438
-1050.943
-986.26441
-914.99408
-837.70751
-755.05617
-667.75192
-576.54994
-482.23093
-385.58325
-287.38596
-188.39332
-89.321386
9.1630539
106.45087
201.99635
295.32041
386.01155
473.72473
558.17869
639.15196
716.47796
790.03948
859.76294
925.61244
987.58399
1045.7001
1100.0044
1150.5571
1197.4309
1240.7064
1280.4694
1316.8076
1349.8078
1379.554
1406.1251
1429.5916
1450.0131
1467.4426
1481.9434
1493.543
1502.2991
1507.8627
1510.1386
-2.7333142
-9.309015
-15.654672
-22.245039
-29.10387
-36.288741
-43.846749
-51.816471
-60.226994
-69.097275
-78.435838
-88.24057
-98.498864
-109.1878
-120.27467
-131.71747
-143.46576
-155.46149
-167.6401
-179.93166
-192.26229
-204.55563
-216.73446
-228.72254
-240.44649
-251.83783
-262.83509
-273.38602
-283.44972
-292.99888
-302.02175
-310.52434
-318.53141
-326.0893
-333.26585
-340.14904
-346.8547
-353.52743
-360.33035
-367.43956
-375.04759
-383.36052
-392.59445
-402.97203
-414.71783
-428.05324
-443.19127
-460.33116
-479.65276
-501.31101
-525.4306
-552.10084
-581.37011
-613.24296
-647.67494
-684.56784
-723.77082
-765.07179
-808.20233
-852.83408
-898.57795
-944.98667
-991.557
-1037.7334
-1082.913
-1126.4524
-1167.675
-1205.8814
-1240.3598
-1270.3992
-1295.3022
-1314.4008
-1327.0689
-1332.7434
-1330.9295
-1321.2164
-1303.2938
-1276.9839
-1242.2318
-1199.0976
-1147.7557
-1088.5033
-1021.7559
-948.03826
-867.97347
-782.26736
-691.69136
-597.06326
-499.22713
-399.03337
-297.31961
-194.89363
-92.518477
9.0994275
109.31923
207.57149
303.36115
396.26797
485.9447
572.11346
654.5609
733.13231
807.72526
878.28291
944.7874
1007.2534
1065.7222
1120.2559
1170.9325
1217.8412
1261.0785
1300.7446
1336.9403
1369.7643
1399.3113
1425.6698
1448.9189
1469.1262
1486.3516
1500.6653
1512.1009
1520.7257
1526.2009
1528.4405
-2.3407692
-8.6535308
-14.710842
-21.041083
-27.671293
-34.664814
-42.073228
-49.938514
-58.292027
-67.153847
-76.532508
-86.424827
-96.816096
-107.68033
-118.98083
-130.67078
-142.69413
-154.9865
-167.47635
-180.08622
-192.73417
-205.33535
-217.80379
-230.05423
-242.00422
-253.57629
-264.70017
-275.31524
-285.37281
-294.83862
-303.69498
-311.94331
-319.60501
-326.7254
-333.37259
-339.63693
-345.64028
-351.53631
-357.49929
-363.71758
-370.39898
-377.76715
-386.05786
-395.51544
-406.38771
-418.9205
-433.35203
-449.90705
-468.79071
-490.1825
-514.23043
-541.04536
-570.69499
-603.20012
-638.53002
-676.59563
-717.25203
-760.28762
-805.42886
-852.33838
-900.61232
-949.78297
-999.32084
-1048.6383
-1097.0948
-1144.0033
-1188.639
-1230.2494
-1268.0663
-1301.3194
-1329.2514
-1351.1337
-1366.2818
-1374.0774
-1373.9761
-1365.5235
-1348.3705
-1322.3119
-1287.2837
-1243.346
-1190.6818
-1129.6092
-1060.576
-984.15096
-901.01052
-811.92219
-717.72499
-619.30771
-517.58629
-413.48122
-307.89618
-201.69887
-95.704692
9.3362508
112.74857
213.9375
312.39152
407.6821
499.46097
587.4555
671.4627
751.34228
827.00921
898.42615
965.59591
1028.5544
1087.3639
1142.1073
1192.882
1239.7959
1282.9626
1322.4982
1358.5178
1391.133
1420.4501
1446.568
1469.575
1489.5471
1506.5518
1520.6661
1531.9296
1540.4187
1545.8031
1548.0057
-1.9114198
-7.9313312
-13.668277
-19.709715
-26.086347
-32.867859
-40.110808
-47.860953
-56.152133
-65.005652
-74.430033
-84.420894
-94.961207
-106.02161
-117.56105
-129.52745
-141.85864
-154.48334
-167.32242
-180.29018
-193.2959
-206.24547
-219.04328
-231.59419
-243.80573
-255.59046
-266.86831
-277.5693
-287.63593
-297.02603
-305.71506
-313.69899
-320.99516
-327.64731
-333.72337
-339.31582
-344.55269
-349.59728
-354.63576
-359.86964
-365.52332
-371.83957
-379.07572
-387.49995
-397.38568
-409.00575
-422.62634
-438.5005
-456.86148
-477.91618
-501.83864
-528.76386
-558.78134
-591.93027
-628.19569
-667.49922
-709.70331
-754.59776
-801.90394
-851.27543
-902.293
-954.46733
-1007.241
-1059.9917
-1112.0379
-1162.6454
-1211.036
-1256.399
-1297.9037
-1334.7141
-1366.0053
-1390.9817
-1408.893
-1419.0583
-1420.8775
-1413.8467
-1397.5724
-1371.8168
-1336.5049
-1291.6971
-1237.585
-1174.5094
-1102.9544
-1023.5379
-936.99675
-844.1682
-745.96794
-643.36536
-537.35785
-428.94517
-319.10536
-208.77325
-98.82241
9.9490214
116.82823
221.19364
322.517
420.36231
514.38192
604.31072
689.95882
771.20334
847.97975
920.27325
988.11031
1051.5508
1110.6808
1165.6059
1216.4455
1263.3276
1306.3848
1345.7503
1381.5546
1413.9234
1442.9754
1468.8205
1491.557
1511.2695
1528.0335
1541.9331
1553.0137
1561.3596
1566.6492
1568.8131
-1.4356728
-7.128344
-12.509297
-18.230507
-24.326355
-30.873485
-37.934004
-45.557784
-53.781353
-62.627331
-72.10418
-82.206162
-92.913678
-104.19365
-116.00027
-128.27568
-140.95108
-153.9477
-167.17814
-180.54776
-193.95625
-207.29942
-220.4711
-233.36533
-245.87861
-257.91244
-269.37591
-280.18853
-290.28292
-299.6079
-308.13105
-315.84198
-322.75306
-328.90583
-334.36752
-339.23239
-343.63477
-347.74804
-351.77106
-355.91941
-360.43537
-365.58256
-371.64183
-378.90751
-387.68122
-398.26561
-410.95775
-426.04203
-443.78295
-464.41785
-488.14984
-515.14094
-545.50517
-579.30252
-616.53603
-657.13985
-700.98546
-747.86519
-797.49545
-849.52077
-903.50612
-958.93952
-1015.2337
-1071.7295
-1127.701
-1182.3623
-1234.8774
-1284.3712
-1329.944
-1370.6867
-1405.6996
-1434.1115
-1455.0985
-1467.9092
-1471.8806
-1466.4529
-1451.1819
-1425.7909
-1390.1918
-1344.4446
-1288.7499
-1223.4735
-1149.1397
-1066.4214
-976.1235
-879.16247
-776.54095
-669.31985
-558.58894
-445.43768
-330.92785
-216.06943
-101.80052
11.028019
121.66303
229.45477
333.85834
434.43149
530.8294
622.7973
710.16168
792.82055
870.73345
943.91163
1012.4085
1076.3111
1135.7319
1190.8019
1241.6645
1288.47
1331.3714
1370.5204
1406.0643
1438.1438
1466.8906
1492.4266
1514.8601
1534.2853
1550.7856
1564.452
1575.3358
1583.5291
1588.7179
1590.841
-0.91356419
-6.2410634
-11.226363
-16.592157
-22.376791
-28.66461
-35.523826
-43.008779
-51.158922
-59.998253
-69.535103
-79.762188
-90.657045
-102.18251
-114.28755
-126.90805
-139.96797
-153.38042
-167.04904
-180.86947
-194.73102
-208.51848
-222.11421
-235.40035
-248.2613
-260.58638
-272.2726
-283.22776
-293.37339
-302.64806
-311.01033
-318.44231
-324.95045
-330.57328
-335.37664
-339.45612
-342.95237
-346.04933
-348.9592
-351.91265
-355.17123
-359.0212
-363.76906
-369.73782
-377.26007
-386.67133
-398.30279
-412.47354
-429.48273
-449.60154
-473.06544
-500.06665
-530.74665
-565.18901
-603.4172
-645.37997
-690.95979
-739.95289
-792.07093
-846.94958
-904.13774
-963.09976
-1023.217
-1083.7907
-1144.0471
-1203.1448
-1260.184
-1314.2194
-1364.2746
-1409.36
-1448.4922
-1480.7157
-1505.1243
-1520.8865
-1527.2688
-1523.6473
-1509.5213
-1484.5675
-1448.6819
-1401.9231
-1344.5012
-1276.8088
-1199.415
-1113.0542
-1018.6083
-917.08322
-809.58053
-697.26519
-581.33187
-462.97158
-343.3405
-223.53271
-104.55785
12.675548
127.37101
238.84953
346.55006
450.0259
548.93782
643.04491
732.19393
816.30789
895.37451
969.43504
1038.5736
1102.9077
1162.5793
1217.7475
1268.582
1315.2574
1357.9489
1396.8279
1432.0599
1463.8012
1492.1977
1517.3834
1539.4778
1558.5841
1574.7943
1588.2064
1598.8771
1606.906
1611.9867
1614.066
-0.33742147
-5.256915
-9.8025449
-14.773947
-20.213922
-26.215181
-32.85263
-40.185471
-48.25627
-57.090444
-66.696079
-77.064103
-88.16886
-99.968677
-112.40681
-125.41234
-138.90137
-152.7782
-166.9368
-181.26229
-195.63271
-209.92091
-223.99673
-237.72934
-250.98985
-263.65415
-275.6059
-286.73985
-296.96505
-306.2085
-314.4184
-321.56816
-327.65711
-332.71987
-336.82003
-340.05398
-342.5686
-344.55876
-346.25069
-347.89111
-349.7623
-352.17508
-355.46387
-359.98307
-366.09931
-374.18428
-384.60683
-397.72445
-413.87462
-433.36611
-456.47037
-483.41329
-514.36717
-549.4421
-588.68479
-632.06091
-679.46614
-730.70233
-785.47667
-843.41635
-904.05404
-966.82967
-1031.0915
-1096.0989
-1161.0268
-1224.9735
-1286.97
-1345.9936
-1400.984
-1450.8619
-1494.5508
-1531.0011
-1559.2142
-1578.2686
-1587.3508
-1585.7645
-1572.9451
-1548.5153
-1512.35
-1464.5045
-1405.1996
-1334.8571
-1254.0954
-1163.7175
-1064.6921
-958.12683
-845.2357
-727.30215
-605.64018
-481.55594
-356.31206
-231.09677
-106.99896
15.009906
134.08714
249.52369
360.74337
467.29752
568.85607
665.19621
756.18962
841.78911
922.01529
996.94386
1066.6938
1131.4168
1191.2877
1246.4965
1297.2417
1343.7243
1386.1431
1424.6911
1459.5527
1490.9011
1518.8967
1543.6865
1565.401
1584.1534
1600.0439
1613.1777
1623.6165
1631.4671
1636.4312
1638.4632
0.29513158
-4.168813
-8.225746
-12.759363
-17.817521
-23.502049
-29.895183
-37.061374
-45.046478
-53.877344
-63.561649
-74.088257
-85.427934
-97.534027
-110.34355
-123.77817
-137.7455
-152.14034
-166.8462
-181.73683
-196.6781
-211.52992
-226.14855
-240.38899
-254.10782
-267.16615
-279.43287
-290.7882
-301.12723
-310.36387
-318.43449
-325.30235
-330.95836
-335.43207
-338.78386
-341.11012
-342.56385
-343.35118
-343.71279
-343.9126
-344.25516
-345.07782
-346.74543
-349.6467
-354.18562
-360.77369
-369.82131
-381.72836
-396.87481
-415.61104
-438.2485
-465.0506
-496.22404
-531.90884
-572.17788
-617.01656
-666.3361
-719.94613
-777.54972
-838.76626
-903.11222
-970.00247
-1038.7508
-1108.5722
-1178.5869
-1247.828
-1315.2516
-1379.7501
-1440.1706
-1495.3346
-1544.0622
-1585.1983
-1617.6409
-1640.3671
-1652.4732
-1653.1787
-1641.85
-1618.0485
-1581.618
-1532.6068
-1471.2513
-1398.0035
-1313.5355
-1218.7273
-1114.6453
-1002.5127
-883.67171
-759.54085
-631.57017
-501.19659
-369.80295
-238.68287
-109.01298
18.166804
141.96478
261.64152
376.60744
486.41525
590.74848
689.4076
782.29473
869.39805
950.77643
1026.5451
1096.8625
1161.9185
1221.9244
1277.1044
1327.6881
1373.9049
1415.9793
1454.1271
1488.5527
1519.4469
1546.9854
1571.3287
1592.6185
1610.9781
1626.5162
1639.3447
1649.5305
1657.1875
1662.0251
1664.0057
0.99076832
-2.9643121
-6.4780782
-10.525828
-15.161159
-20.495887
-26.620188
-33.604153
-41.497073
-50.327179
-60.101529