/*--------------------------------*- C++ -*----------------------------------*\
| =========                 |                                                 |
| \\      /  F ield         | foam-extend: Open Source CFD                    |
|  \\    /   O peration     | Version:     4.1                                |
|   \\  /    A nd           | Web:         http://www.foam-extend.org         |
|    \\/     M anipulation  |                                                 |
\*---------------------------------------------------------------------------*/
FoamFile
{
    version     2.0;
    format      ascii;
    class       volScalarField;
    location    "0.15";
    object      p;
}
// * * * * * * * * * * * * * * * * * * * * * * * * * * * * * * * * * * * * * //

dimensions      [0 2 -2 0 0 0 0];

internalField   nonuniform List<scalar> 
16796
(
-6.9378306
4.8402007
11.388913
19.976388
28.812134
38.175517
47.949233
58.109791
68.639885
79.529649
90.777275
102.38426
114.35459
126.69237
139.40007
152.47629
165.91371
179.69669
193.79937
208.18349
222.79719
237.57359
252.43084
267.27223
281.98865
296.46141
310.56637
324.18939
337.18075
349.31725
360.43391
370.4264
379.17154
386.55905
392.49663
396.91115
399.75068
400.98548
400.60876
398.63709
395.11498
390.12829
383.74961
375.96508
366.82717
356.47352
345.01957
332.59089
319.32228
305.35767
290.85064
275.96451
260.87264
245.75871
230.81683
216.25142
202.27697
189.11724
177.00416
166.17632
156.87696
149.35142
143.84436
140.59647
139.84101
141.80001
146.68059
154.67116
165.9377
180.62048
198.83092
220.64897
246.12103
275.25845
308.03654
344.39443
384.23629
427.43852
473.85901
523.24577
575.32438
629.8741
686.62863
745.29574
805.56865
867.12942
929.65451
992.8195
1056.3035
1119.7937
1182.9889
1245.6032
1307.3691
1368.0394
1427.3899
1485.2199
1541.3538
1595.6402
1647.9529
1698.1891
1746.2689
1792.1338
1835.7452
1877.0825
1916.141
1952.9306
1987.4733
2019.8019
2049.9578
2077.9899
2103.9529
2127.9074
2149.9178
2170.0429
2188.3497
2204.9179
2219.8287
2233.1689
2245.0438
2255.6653
2265.2257
2273.1416
2281.4889
2303.6908
-6.0701376
4.4235505
10.976471
19.601031
28.485022
37.892594
47.695393
57.876653
68.420851
79.321351
90.578255
102.19466
114.17569
126.52638
139.24992
152.34549
165.80621
179.61674
193.75137
208.17179
222.82589
237.64624
252.55008
267.43947
282.20369
296.72008
310.84032
324.40157
337.27958
349.38625
360.57621
370.67154
379.53189
387.03905
393.09468
397.62157
400.5642
401.88879
401.5831
399.65493
396.12823
391.03377
384.44497
376.50467
367.30363
356.89339
345.38045
332.88915
319.55317
305.51652
290.93285
275.96565
260.78846
245.58525
230.55048
215.88907
201.8161
188.55603
176.34164
165.41246
156.01277
148.38905
142.78714
139.44898
138.60904
140.49059
145.30191
153.23247
164.44927
179.09337
197.27685
219.08009
244.54962
273.6965
306.49499
342.88212
382.75704
425.97482
472.35236
521.7271
573.89424
628.56795
685.4614
744.27707
804.70377
866.42116
929.10371
992.4252
1056.0631
1119.7029
1183.042
1245.793
1307.6871
1368.4763
1427.9353
1485.8629
1542.0827
1596.4436
1648.8188
1699.106
1747.2256
1793.1195
1836.7496
1878.096
1917.1549
1953.9368
1988.4646
2020.7716
2050.8999
2078.8985
2104.8221
2128.7291
2150.6818
2170.7511
2189.0068
2205.5159
2220.3531
2233.5955
2245.3341
2255.7188
2264.8386
2272.4788
2279.9378
2289.5159
-8.2759656
5.1352987
11.644651
20.373736
29.133612
38.388089
48.007119
57.994613
68.340183
79.042686
90.106428
101.5387
113.3487
125.54537
138.13554
151.12162
164.49952
178.25614
192.36746
206.79627
221.49096
236.38404
251.39212
266.41591
281.3387
296.02874
310.358
324.18953
337.36927
349.73928
361.13674
371.41221
380.43702
388.09653
394.29368
398.9515
402.01432
403.4485
403.24278
401.40769
397.97355
392.98322
386.49225
378.56852
369.29389
358.77408
347.12519
334.46923
320.94126
306.68678
291.8614
276.63104
261.17208
245.67157
230.32734
215.34784
200.95182
187.36753
174.83156
163.58724
153.88255
145.9676
140.09166
136.49987
135.42968
137.10702
141.74251
149.52765
160.63106
175.19514
193.33294
215.1255
240.61978
269.82712
302.72214
339.24161
379.2825
422.70647
469.33722
518.97059
571.37427
626.28622
683.4289
742.50444
803.20003
865.19264
928.15363
991.75353
1055.6666
1119.5752
1183.1739
1246.1725
1308.3001
1369.3064
1428.9648
1487.0729
1543.4535
1597.9552
1650.4513
1700.8398
1749.0419
1795.0006
1838.6789
1880.0583
1919.1366
1955.926
1990.4509
2022.7465
2052.8567
2080.8323
2106.7299
2130.6101
2152.5361
2172.5748
2190.7958
2207.2713
2222.0769
2235.2907
2247.0037
2257.3323
2266.319
2274.0258
2281.313
2286.6887
-9.8814277
4.862923
11.318811
20.215271
28.990594
38.234938
47.803976
57.720032
67.979253
78.588374
89.55793
100.90092
112.63162
124.76339
137.3069
150.26767
163.644
177.4244
191.58567
206.09059
220.88684
235.90546
251.0606
266.24683
281.33998
296.20955
310.71876
324.71893
338.05978
350.59555
362.17454
372.6444
381.86565
389.71555
396.09014
400.90638
404.10309
405.64137
405.5046
403.69754
400.24548
395.19266
388.6048
380.56628
371.16584
360.49934
348.67789
335.8244
322.07402
307.57298
292.47812
276.95698
261.18793
245.36044
229.67508
214.34342
199.58761
185.63958
172.7398
161.13561
151.07912
142.82452
136.62512
132.72996
131.38016
132.80506
137.21836
144.81425
155.76364
170.21074
188.26993
210.02307
235.51736
264.76397
297.7369
334.36932
374.55303
418.15122
464.9932
514.87991
567.57992
622.82664
680.33233
739.79235
800.88794
863.29058
926.66645
990.68099
1055.0036
1119.3118
1183.2957
1246.6613
1309.1339
1370.4603
1430.4115
1488.7832
1545.3972
1600.1013
1652.7689
1703.2986
1751.6124
1797.6546
1841.3901
1882.8021
1921.8904
1958.6693
1993.1654
2025.4157
2055.466
2083.3686
2109.1814
2132.9661
2154.7873
2174.7121
2192.808
2209.1426
2223.7842
2236.8014
2248.2697
2258.2643
2266.7956
2273.9795
2280.2566
2283.8582
-10.577339
5.114678
11.529722
20.486501
29.16784
38.28292
47.683888
57.41344
67.475805
77.886206
88.662015
99.822651
111.3883
123.37779
135.80668
148.68475
162.01384
175.7852
189.97747
204.55442
219.46383
234.63613
249.98181
265.38773
280.73404
295.89152
310.71413
325.04767
338.73203
351.60548
363.50621
374.27893
383.78256
391.89283
398.50376
403.53013
406.90866
408.59853
408.5814
406.86031
403.45818
398.41538
391.78957
383.65525
374.09978
363.2267
351.15329
338.00536
323.92038
309.04726
293.54582
277.58696
261.35288
245.03723
228.84519
212.99327
197.70885
183.22937
169.80094
157.67671
147.11458
138.37452
131.71548
127.39189
125.65001
126.72391
130.83159
138.17104
148.91645
163.21475
181.18245
202.90294
228.42433
257.75839
290.87911
327.7158
368.15803
412.06628
459.26405
509.54348
562.66663
618.36667
676.35429
736.32086
797.94244
860.8846
924.80713
989.36895
1054.2329
1119.0704
1183.5655
1247.419
1310.3512
1372.1054
1432.4489
1491.1755
1548.1053
1603.0854
1655.9896
1706.7171
1755.1913
1801.3587
1845.1864
1886.6604
1925.7834
1962.5729
1997.0587
2029.2809
2059.2882
2087.136
2112.8846
2136.5978
2158.3417
2178.1841
2196.193
2212.4357
2226.9775
2239.8812
2251.2083
2261.0036
2269.2588
2276.0594
2281.4635
2283.847
-11.491733
4.7291943
11.064916
20.095745
28.757283
37.830292
47.155114
56.787784
66.738717
77.030866
87.688436
98.737463
110.20433
122.11359
134.486
147.33591
160.66896
174.4794
188.74797
203.43956
218.50226
233.86571
249.43407
265.08981
280.71305
296.16586
311.29699
325.94745
339.95302
353.14826
365.36872
376.45536
386.2605
394.65257
401.51857
406.76672
410.3279
412.15619
412.22906
410.54649
407.1301
402.02118
395.27992
386.98274
377.21866
366.09219
353.7212
340.2328
325.7659
310.4715
294.51189
278.061
261.30446
244.43991
227.67698
211.2371
195.35304
180.26802
166.23429
153.51135
142.36368
133.05786
125.85938
121.02913
118.81947
119.47023
123.20471
130.2256
140.71117
154.81173
172.64648
194.30071
219.82368
249.22783
282.48723
319.52738
360.23666
404.47543
452.06639
502.79863
556.4294
612.68604
671.27179
731.87013
794.14908
857.76589
922.37194
987.61771
1053.1577
1118.6553
1183.7872
1248.2471
1311.7496
1374.0326
1434.8598
1494.0216
1551.3364
1606.6506
1659.8377
1710.7982
1759.4572
1805.7635
1849.6871
1891.2174
1930.3607
1967.1379
2001.5827
2033.7389
2063.6586
2091.4004
2117.0276
2140.6065
2162.2053
2181.8928
2199.7369
2215.8038
2230.1568
2242.855
2253.9529
2263.4831
2271.4432
2277.9125
2282.815
2284.7898
-11.95607
4.6655845
10.908594
19.924215
28.481637
37.42328
46.584859
56.03599
65.794438
75.891411
86.358551
97.229144
108.5365
120.31175
132.5818
145.3665
158.67634
172.50949
186.84967
201.66363
216.90026
232.48778
248.32408
264.29345
280.27234
296.11571
311.66558
326.75435
341.20821
354.85127
367.50966
379.01664
389.21745
397.97424
405.16829
410.7026
414.5034
416.52062
416.72809
415.12242
411.72216
406.56574
399.7108
391.23185
381.21828
369.77811
357.03341
343.11463
328.16379
312.33547
295.7959
278.72333
261.30826
243.75367
226.27503
209.10015
192.46861
176.63087
161.84676
148.38366
136.5141
126.51273
118.6531
113.2039
110.42503
110.56335
113.84862
120.48934
130.66881
144.54156
162.2301
183.82212
209.36834
238.88189
272.33661
309.65362
350.7175
395.3858
443.47639
494.77278
549.02656
605.95968
665.26894
726.63019
789.70274
854.13441
919.56666
985.63982
1051.9984
1118.2959
1184.2
1249.3961
1313.5915
1376.5181
1437.9345
1497.6277
1555.4141
1611.1388
1664.676
1715.9272
1764.8199
1811.306
1855.3592
1896.973
1936.1582
1972.9405
2007.358
2039.4592
2069.3006
2096.9448
2122.4586
2145.9114
2167.3736
2186.9154
2204.6051
2220.5078
2234.6834
2247.1853
2258.0579
2267.3204
2274.9652
2281.0485
2285.4441
2287.0668
-12.760313
4.1977332
10.309878
19.320478
27.810255
36.667204
45.716709
55.037301
64.652182
74.599814
84.919025
95.650472
106.83475
118.51006
130.71001
143.46059
156.77774
170.66418
185.10717
200.07595
215.5206
231.36666
247.50786
263.82602
280.19173
296.45388
312.44765
327.99783
342.9226
357.03768
370.16093
382.11733
392.74343
401.89263
409.43789
415.27465
419.32247
421.52576
421.85401
420.3008
416.8829
411.63825
404.62479
395.91771
385.60747
373.80436
360.63333
346.22746
330.73141
314.30304
297.11237
279.34195
261.18715
242.85647
224.5715
206.56679
189.08931
172.39743
156.75942
142.45151
129.7553
118.95473
110.3326
104.16668
100.7256
100.2645
103.02074
109.20967
119.02056
132.61296
150.11344
171.61271
197.16343
226.77997
260.43633
298.04984
339.50271
384.65075
433.30788
485.2522
540.22854
597.95105
658.10746
720.36352
784.36767
849.75616
916.15842
983.20264
1050.5212
1117.7561
1184.5639
1250.6203
1315.6237
1379.2987
1441.3984
1501.7055
1560.0337
1616.2273
1670.1607
1721.7371
1770.8868
1817.5654
1861.751
1903.442
1942.6547
1979.4201
2013.7821
2045.7947
2075.5195
2103.0243
2128.3804
2151.6613
2172.941
2192.2924
2209.7858
2225.4876
2239.458
2251.7495
2262.404
2271.438
2278.8466
2284.6735
2288.7811
2290.2598
-13.397377
3.9018247
9.8553249
18.80198
27.159853
35.864978
44.735892
53.860819
63.269267
73.007516
83.122213
93.662065
104.67572
116.20934
128.30414
140.99329
154.29915
168.22999
182.77743
197.91394
213.59126
229.7322
246.22842
262.95926
279.7889
296.55873
313.09505
329.21238
344.71765
359.41483
373.11014
385.61748
396.76282
406.38976
414.36232
420.56801
424.91951
427.3554
427.84037
426.36423
422.94094
417.60658
410.41824
401.45116
390.79713
378.56946
364.89763
349.9189
333.78165
316.64814
298.69321
280.10472
261.08401
241.8461
222.61984
203.64767
185.18514
167.49983
150.86975
135.58133
121.92675
110.20064
100.69653
93.702736
89.498039
88.347167
90.49633
96.168832
105.56086
118.83778
136.13079
157.53396
183.10215
212.85078
246.75326
284.72276
326.63771
372.35057
421.67016
474.36845
530.18308
588.81985
649.95686
713.2488
778.33185
844.82905
912.35597
980.52659
1048.9592
1117.2821
1185.1392
1252.1944
1318.1361
1382.6805
1445.5737
1506.594
1565.5521
1622.2913
1676.6864
1728.6429
1778.0945
1825.0009
1869.3458
1911.1334
1950.3861
1987.1416
2021.45
2053.3716
2082.9742
2110.3309
2135.518
2158.6134
2179.6947
2198.8375
2216.114
2231.591
2245.3286
2257.378
2267.7788
2276.5469
2283.6818
2289.2261
2293.0591
2294.4073
-14.328005
3.3385194
9.0988214
17.989773
26.230909
34.805126
43.519851
52.470937
61.693043
71.239783
81.165635
91.527695
102.38324
113.78709
125.78893
138.42993
151.73979
165.7331
180.40668
195.73681
211.67735
228.14873
245.03932
262.2242
279.56117
296.88415
314.01038
330.74384
346.87997
362.21053
376.52932
389.63787
401.35003
411.49785
419.93473
426.53869
431.21431
433.89356
434.53604
433.12796
429.68107
424.23048
416.83334
407.56577
396.52145
383.81634
369.584
353.96609
337.11454
319.19598
300.39017
280.8905
260.90449
240.65413
220.37601
200.32116
180.7545
161.95374
144.20778
127.81447
113.07785
100.30472
89.800776
81.866357
76.791868
74.853031
76.306218
81.383886
90.290219
103.19733
120.24183
141.52189
167.09516
196.97871
231.14494
269.50397
311.93137
358.27542
408.33971
461.88945
518.65388
578.32888
640.58105
705.0521
771.3639
839.12412
907.9322
977.38564
1047.0863
1116.6468
1185.696
1253.8844
1320.8886
1386.415
1450.2024
1512.0235
1571.6858
1629.0315
1683.9366
1736.3088
1786.0861
1833.2336
1877.741
1919.6198
1958.8996
1995.6257
2029.8559
2061.6581
2091.1072
2118.283
2143.2683
2166.1465
2187.0002
2205.909
2222.9487
2238.1887
2251.6907
2263.5068
2273.6769
2282.2182
2289.1336
2294.4653
2298.11
2299.3835
-15.227964
2.8494439
8.3836355
17.178841
25.253246
33.644314
42.149499
50.873452
59.856669
69.160726
78.848612
88.986581
99.641433
110.87764
122.75445
135.3222
148.61908
162.66721
177.4696
193.00728
209.23696
226.07802
243.41573
261.12007
279.04197
297.00628
314.81908
332.27159
349.14517
365.21673
380.26497
394.0766
406.45121
417.20754
426.18696
433.25691
438.31301
441.27994
442.11161
440.79012
437.32463
431.74895
424.12019
414.51553
403.03072
389.78519
374.91818
358.57664
340.91685
322.11063
302.34344
281.81497
260.73975
239.34758
217.88372
196.60876
175.7981
155.74082
136.73798
119.10029
103.14517
89.193113
77.563616
68.570631
62.517739
59.693129
60.364688
64.775218
73.13791
85.63242
102.40139
123.54743
149.13114
179.17109
213.63898
252.44099
295.44842
342.50563
393.41041
447.92063
505.75657
566.60334
630.11491
695.91853
763.61999
832.8095
903.06808
973.97437
1045.1114
1116.0735
1186.4724
1255.9432
1324.1491
1390.7853
1455.582
1518.3059
1578.7611
1636.7887
1692.2659
1745.1037
1795.2449
1842.6608
1887.3484
1929.3271
1968.6349
2005.3259
2039.4665
2071.1326
2100.4074
2127.378
2152.134
2174.7649
2195.3586
2213.9993
2230.7665
2245.7327
2258.9621
2270.5091
2280.4159
2288.7038
2295.382
2300.4975
2303.9671
2305.1716
-16.367458
2.1744734
7.4507059
16.154413
24.063482
32.274713
40.572232
49.069051
57.811088
66.86798
76.31163
86.218115
96.664605
107.72623
119.47289
131.96523
145.25109
159.36119
174.30575
190.07137
206.61822
223.86523
241.69302
259.96587
278.52805
297.19487
315.76058
334.0026
351.68698
368.57422
384.4262
399.0129
412.1177
423.54419
433.12002
440.70065
446.17169
449.44979
450.48289
449.249
445.75495
440.03372
432.14293
422.16132
410.18711
396.3434
380.77529
363.63539
345.08436
325.29939
304.4719
282.80813
260.53002
237.87568
215.09969
192.47299
170.2824
148.82951
128.42881
109.40531
92.091372
76.822861
63.934784
53.756452
46.606333
42.786718
42.578524
46.236267
53.983338
66.007949
82.459589
103.44599
129.03117
159.23566
194.0309
233.31887
276.96635
324.81367
376.6523
432.23205
491.26323
553.41882
618.33859
685.63346
754.89098
825.68153
897.56513
970.09881
1042.8441
1115.3743
1187.2818
1258.1838
1327.7285
1395.5983
1461.5137
1525.235
1586.5626
1645.3367
1701.4363
1754.7762
1805.3052
1853.0019
1897.8721
1939.9442
1979.2664
2015.9025
2049.9291
2081.4319
2110.503
2137.2385
2161.7359
2184.0918
2204.4006
2222.7521
2239.2304
2253.912
2266.8643
2278.1446
2287.7976
2295.8488
2302.3125
2307.2404
2310.5658
2311.7176
-17.550002
1.514495
6.4983666
15.081586
22.784367
30.772213
38.815655
47.037384
55.489345
64.249972
73.400883
83.028907
93.222671
104.06919
115.65034
128.03854
141.29274
155.45375
170.54041
186.54608
203.43555
221.12846
239.50106
258.41087
277.6944
297.15592
316.57584
335.71547
354.32297
372.13978
388.90819
404.37879
418.31632
430.50708
440.76319
448.92669
454.87203
458.50706
459.77324
458.64422
455.12442
449.24613
441.06776
430.67004
418.15406
403.64731
387.30222
369.27807
349.74046
328.87252
306.87219
283.95291
260.34462
236.29445
212.06707
187.94472
164.22672
141.22838
119.27902
98.719497
79.898799
63.169926
48.88524
37.391254
29.023124
24.098941
22.914202
25.736484
32.800497
44.303891
60.403635
81.212974
106.79955
137.1859
172.3432
212.1686
256.524
305.24571
358.11866
414.88421
475.24203
538.85204
605.33843
674.29403
745.28602
817.86242
891.55948
965.90969
1040.45
1114.7299
1188.3194
1260.8159
1331.8499
1401.0898
1468.2455
1533.0697
1595.3592
1654.9535
1711.7338
1765.6198
1816.567
1864.5629
1909.6227
1951.7858
1991.1114
2027.6747
2061.5633
2092.8737
2121.7083
2148.1727
2172.3733
2194.4147
2214.3982
2232.4203
2248.5703
2262.9298
2275.5706
2286.554
2295.9292
2303.7266
2309.9669
2314.7072
2317.8947
2318.9962
-18.935545
0.7178918
5.3784783
13.841026
21.328786
29.083418
36.858994
44.788364
52.929615
61.370548
70.203264
79.526348
89.441054
100.0476
111.44129
123.70776
136.91862
151.1262
166.35931
182.61923
199.87629
218.05165
237.01637
256.62055
276.69288
297.02594
317.38508
337.51384
357.14049
375.98502
393.76767
410.21703
425.07671
438.11345
449.12184
457.92893
464.39687
468.42397
469.94488
468.9289
465.37836
459.3253
450.82951
439.9743
426.86421
411.63156
394.43662
375.44593
354.83026
332.77882
309.4964
285.20385
260.13952
234.56006
208.74089
182.97636
157.57935
132.8801
109.22424
86.970105
66.485118
48.141375
32.310624
19.358647
9.6393138
3.4884449
1.2178825
3.1098306
9.4116424
20.331475
36.034603
56.64038
82.220511
112.79991
148.34958
188.76159
233.89252
283.57439
337.58527
395.65749
457.47927
522.69635
590.91578
661.71041
734.6246
809.18125
884.88976
961.25475
1037.7852
1114.0037
1189.4548
1263.713
1336.3895
1407.1369
1475.6529
1541.6826
1605.0188
1665.5008
1723.0127
1777.4803
1828.8674
1877.1714
1922.4191
1964.6622
2003.9726
2040.4385
2074.1601
2105.2461
2133.8106
2159.97
2183.8403
2205.5353
2225.1642
2242.8304
2258.6295
2272.6483
2284.9633
2295.6404
2304.733
2312.2768
2318.2979
2322.8586
2325.9175
2326.9731
-20.408707
-0.098052076
4.2045067
12.524093
19.760742
27.242409
34.705543
42.294542
50.074248
58.142714
66.603504
75.568121
85.151795
95.469469
106.63155
118.73874
131.87714
146.11254
161.48555
178.00702
195.65438
214.35186
233.96545
254.33645
275.28475
296.58966
317.99931
339.23691
360.00791
380.00775
398.93133
416.48215
432.37971
446.36858
458.22367
467.75526
474.81195
479.28173
481.09203
480.20775
476.62931
470.38897
461.5484
450.19418
436.43489
420.40835
402.28424
382.23755
360.44446
337.10078
312.41849
286.62629
259.97141
232.72053
205.16053
177.59877
150.36272
123.79888
98.270691
74.155714
51.841755
31.722089
14.190035
-0.36715051
-11.574723
-19.077104
-22.544273
-21.677831
-16.216509
-5.9406868
9.3238694
29.703002
55.272662
86.060211
122.03613
163.08717
209.0646
259.79607
315.05289
374.55816
437.98811
504.97335
575.10241
647.9261
722.96352
799.70941
877.64283
956.23689
1034.9688
1113.3305
1190.8377
1267.0392
1341.524
1413.9272
1483.9333
1551.2789
1615.7529
1677.1947
1735.4925
1790.5792
1842.4281
1891.0485
1936.4804
1978.7893
2018.0618
2054.4003
2087.9193
2118.7411
2146.9925
2172.8019
2196.2961
2217.5989
2236.8284
2254.0958
2269.5037
2283.1451
2295.1022
2305.4459
2314.2348
2321.5099
2327.3032
2331.6811
2334.6119
2335.6218
-22.064746
-1.0203153
2.8928798
11.065479
18.034136
25.2223
32.346095
39.562502
46.943571
54.598524
62.643487
71.2042
80.411384
90.396401
101.2866
113.19964
126.23816
140.48332
155.98941
172.77848
190.83649
210.09218
230.40608
251.60983
273.51423
295.8845
318.44975
340.91058
362.94676
384.22598
404.41443
423.18708
440.23611
455.28102
468.07459
478.40849
486.11645
491.07537
493.20523
492.46668
488.85879
482.41464
473.19869
461.30157
446.83673
429.94805
410.81564
389.62375
366.55412
341.80925
315.60852
288.18862
259.80591
230.73757
201.28249
171.76183
142.51875
113.91733
86.340437
60.186748
35.866568
13.796675
-5.6055962
-21.929018
-34.775519
-43.767438
-48.554475
-48.820222
-44.288018
-34.725656
-19.949159
0.17429541
25.725174
56.73346
93.169307
134.91353
181.81151
233.68668
290.3034
351.3753
416.56616
485.49055
557.71699
632.77223
710.1473
789.30545
869.69162
950.74322
1031.9015
1112.6234
1192.3921
1270.7273
1347.1934
1421.4055
1493.0339
1561.8063
1627.5076
1689.9783
1749.1117
1804.8492
1857.176
1906.1148
1951.7208
1994.0756
2033.2822
2069.4594
2102.7375
2133.2539
2161.1496
2186.5661
2209.6423
2230.5125
2249.3046
2266.1381
2281.1233
2294.3596
2305.9353
2315.9266
2324.3971
2331.3935
2336.953
2341.1458
2343.9485
2344.913
-23.838007
-1.9806259
1.5082181
9.5156543
16.181808
23.036657
29.774146
36.565349
43.490185
50.670119
58.235031
66.326341
75.091928
84.681465
95.241342
106.90848
119.80442
134.02819
149.65013
166.70572
185.19155
205.0432
226.11581
248.22978
271.18598
294.73389
318.58116
342.40272
365.84912
388.55637
410.15789
430.29616
448.6323
464.85751
478.69975
489.93
498.36575
503.87206
506.36119
505.78984
502.1562
495.49502
485.8744
473.38995
458.16081
440.33776
420.11299
397.68133
373.23023
346.96914
319.12502
289.94277
259.68811
228.64904
197.13708
165.48795
134.06155
103.24093
73.4301
45.050839
18.538247
-5.6648853
-27.114543
-45.372808
-60.015616
-70.640726
-76.875332
-78.383146
-74.870665
-66.092075
-51.85305
-32.013528
-6.4885195
24.754471
61.685146
104.17769
152.07161
205.18672
263.28074
326.05795
393.16951
464.21321
538.73621
616.23903
696.18172
777.99231
861.07729
944.83363
1028.6618
1111.9789
1194.2312
1274.9056
1353.5386
1429.7234
1503.1147
1573.4306
1640.4524
1704.0225
1764.0406
1820.4588
1873.2756
1922.5298
1968.2938
2010.6676
2049.7726
2085.7458
2118.7353
2148.8951
2176.3821
2201.3519
2223.9566
2244.3423
2262.6474
2279.0006
2293.5203
2306.3134
2317.4743
2327.0851
2335.2149
2341.9157
2347.2298
2351.2304
2353.9012
2354.8191
-25.785819
-3.0278171
0.004096063
7.8393831
14.179044
20.670463
26.982592
33.302022
39.717207
46.363045
53.384546
60.94044
69.197637
78.32623
88.493964
99.859496
112.56585
126.73257
142.44861
159.76521
178.69173
199.17311
221.05909
244.15757
268.25922
293.09668
318.35387
343.67687
368.68327
392.97305
416.14235
437.79663
457.56176
475.09692
490.1022
502.32567
511.56711
517.67901
520.56593
520.18104
516.52258
509.62808
499.57046
486.45154
470.39719
451.56595
430.16353
406.39634
380.45754
352.56345
322.94859
291.866
259.59082
226.42212
192.68441
158.72873
124.93279
91.700016
59.457346
28.651859
-0.25403388
-26.788722
-50.478508
-70.855692
-87.46717
-99.883253
-107.70606
-110.57729
-108.18491
-100.26838
-86.622336
-67.099209
-41.609495
-10.118278
27.343529
70.642819
119.61281
174.07005
233.76591
298.3957
367.59796
440.95321
517.98599
598.16837
680.92624
765.64834
851.6978
938.4258
1025.1863
1111.3514
1196.3255
1279.558
1360.5546
1438.8841
1514.1841
1586.1628
1654.5984
1719.3365
1780.285
1837.4087
1890.7221
1940.2824
1986.1821
2028.5419
2067.5039
2103.2259
2135.8753
2165.6247
2192.6481
2217.1168
2239.1971
2259.0476
2276.8178
2292.6465
2306.6607
2318.9747
2329.6897
2338.8938
2346.6614
2353.0499
2358.1065
2361.9068
2364.441
2365.3107
-27.872546
-4.1218571
-1.582525
6.0649
12.042506
18.12748
23.961272
29.747699
35.584481
41.621217
48.019477
54.957041
62.621876
71.206814
80.90356
91.895362
104.34979
118.41004
134.18686
151.75026
171.12521
192.26944
215.02771
239.19375
264.54723
290.80232
317.6163
344.60268
371.3415
397.39167
422.30674
445.64996
467.00713
486.00118
502.30103
515.62935
525.7667
532.55238
535.88329
535.70978
532.03119
524.8891
514.36264
500.56115
483.6183
463.70147
441.03182
415.8288
388.29123
358.64222
327.12379
293.997
259.54633
224.08199
187.94187
151.49297
115.13182
79.28368
44.400314
10.956433
-20.555491
-49.63194
-75.766208
-98.457387
-117.21995
-131.5936
-141.15261
-145.51435
-144.34664
-137.37313
-124.377
-105.20319
-79.758032
-48.004605
-9.9749218
34.189768
84.316578
140.21974
201.64519
268.28002
339.75067
415.62019
495.38938
578.49965
664.33926
752.25303
841.5552
931.54491
1021.5233
1110.8109
1198.7645
1284.7917
1368.3628
1449.0201
1526.3825
1600.1482
1670.0929
1736.0667
1797.9881
1855.8371
1909.6469
1959.4963
2005.5005
2047.8038
2086.5718
2121.985
2154.2325
2183.5076
2210.0026
2233.906
2255.3992
2274.6548
2291.8341
2307.0863
2320.5476
2332.3404
2342.5726
2351.3387
2358.7185
2364.7744
2369.5583
2373.1478
2375.5388
2376.3581
-30.133611
-5.2891331
-3.2768479
4.1736056
9.7583963
15.397415
20.701405
25.893194
31.080547
36.429185
42.118842
48.348286
55.328779
63.278458
72.415853
82.951936
95.082168
108.97688
124.77214
142.55998
162.38418
184.21917
207.90548
233.22108
259.93434
287.73973
316.265
345.08695
373.74299
401.74522
428.59845
453.81772
476.94317
497.55672
515.29227
529.8444
540.97287
548.50323
552.32513
552.38707
548.69101
541.28428
530.25407
515.71885
497.82145
476.73952
452.7114
425.97071
396.72172
365.19387
331.63636
296.31784
259.53183
221.59959
182.87254
143.7342
104.6009
65.921237
28.173797
-8.1365232
-42.484156
-74.330213
-103.13121
-128.3491
-149.46206
-165.97552
-177.43267
-183.42399
-183.59524
-177.65313
-165.36896
-146.5804
-121.19012
-89.159769
-50.523132
-5.4305489
45.93875
103.39757
166.68752
235.48876
309.41656
388.01678
470.76565
557.07169
646.28184
737.69184
830.56064
924.12824
1017.6354
1110.3439
1201.5564
1290.6327
1377.0042
1460.1833
1539.7692
1615.4496
1686.9991
1754.2743
1817.2067
1875.7946
1930.0937
1980.2072
2026.2767
2068.4731
2106.9884
2142.0285
2173.8065
2202.5377
2228.4351
2251.7053
2272.5465
2291.1452
2307.6757
2322.2982
2335.1584
2346.3868
2356.0987
2364.3944
2371.3595
2377.0614
2381.5562
2384.9232
2387.1634
2387.9295
-32.551575
-6.5055286
-5.0574026
2.1817971
7.3349374
12.479093
17.191013
21.714541
26.168266
30.735493
35.615776
41.030902
47.217825
54.422778
62.894296
72.874626
84.590969
98.24487
114.00183
131.98002
152.24595
174.79569
199.46704
226.02042
254.21208
283.7154
314.12514
344.97655
375.75849
405.92945
434.93846
462.24538
487.33825
509.75254
529.08284
544.99273
557.21957
565.57478
569.94132
570.26727
566.55898
558.87161
547.30241
531.98088
513.06047
490.73063
465.24905
436.86488
405.78772
372.25272
336.51584
298.85267
259.56529
218.9857
177.47886
135.44521
93.32182
51.582094
10.733582
-28.685903
-66.11435
-100.97364
-132.67929
-160.65167
-184.32826
-203.1761
-216.70373
-224.47187
-226.10227
-221.28373
-209.77557
-191.40878
-166.08344
-133.76084
-94.477641
-48.394509
4.3033252
63.428832
128.7211
199.85535
276.43736
357.99665
443.9844
533.77409
626.6673
721.90482
818.68301
916.17428
1013.5503
1110.0057
1204.781
1297.1823
1386.597
1472.5046
1554.4831
1632.2102
1705.4606
1774.0999
1838.0758
1897.4088
1952.1805
2002.5228
2048.6073
2090.635
2128.8275
2163.4188
2194.6486
2222.7564
2247.9772
2270.5376
2290.653
2308.5256
2324.3428
2338.2764
2350.4819
2361.0984
2370.2483
2378.0383
2384.5591
2389.8831
2394.0703
2397.2012
2399.282
2399.9921
-35.149865
-7.7841459
-6.9373664
0.080105992
4.7637857
9.3636104
13.418384
17.195167
20.824182
24.507919
28.467547
32.950077
38.220759
44.556964
52.24072
61.549451
72.746378
86.06878
101.71625
119.8377
140.52713
163.8077
189.51689
217.39595
247.18843
278.54578
311.02603
344.11746
377.25353
409.83132
441.23578
470.86345
498.14283
522.55659
543.65519
561.06799
574.50829
583.77323
588.74012
589.35845
585.64141
577.65462
565.50797
549.34431
529.32958
505.66649
478.63486
448.50067
415.4776
379.80587
341.74726
301.58338
259.62404
216.21137
171.72369
126.57858
81.234711
36.191796
-8.011418
-50.801208
-91.575408
-129.71233
-164.58161
-195.557
-222.03013
-243.42488
-259.21094
-268.916
-272.13561
-268.53966
-257.8756
-239.96872
-214.718
-182.08592
-142.11359
-94.973489
-40.85682
20.051278
87.48973
161.13163
240.57588
325.33732
414.84218
508.42693
605.34341
704.77089
805.83456
907.62949
1009.2479
1109.8073
1208.4775
1304.5031
1397.2223
1486.0786
1570.6275
1650.5371
1725.5842
1795.6464
1860.692
1920.7675
1975.9853
2026.5104
2072.5487
2114.3353
2152.1247
2186.1821
2216.7763
2244.1732
2268.6317
2290.3995
2309.7107
2326.7834
2341.8192
2355.0016
2366.4963
2376.4509
2384.9952
2392.242
2398.2872
2403.2078
2407.0678
2409.9482
2411.8599
2412.5105
-37.922848
-9.1095571
-8.9040176
-2.1215919
2.0484847
6.046723
9.3696027
12.309846
15.010068
17.693577
20.604975
24.018786
28.231302
33.55431
40.307148
48.80678
59.357288
72.236907
87.684719
105.88592
126.96775
150.98565
177.78212
207.07863
238.60344
271.98561
306.74231
342.30849
378.05434
413.30634
447.37573
479.58619
509.29804
535.93394
558.99474
578.07205
592.85359
603.12229
608.75131
609.69398
605.97331
597.66845
584.90495
567.8416
546.65886
521.57454
492.89346
460.89973
425.81009
387.86888
347.34253
304.51743
259.70996
213.27153
165.59327
117.10998
68.302611
19.698685
-28.129521
-74.569136
-118.97373
-160.67314
-198.98567
-233.23254
-262.75369
-286.9243
-305.17044
-316.98307
-321.92925
-319.6591
-309.90876
-292.49951
-267.33159
-234.371
-193.66562
-145.40169
-89.775854
-26.96882
42.761502
119.09008
201.61277
289.83245
383.15127
480.86691
582.17684
686.19117
791.95394
898.47127
1004.7438
1109.8001
1212.7286
1312.7045
1409.0104
1501.0504
1588.3562
1670.5873
1747.5254
1819.0642
1885.1968
1946.0015
2001.6264
2052.2751
2098.1922
2139.6514
2176.944
2210.3698
2240.2292
2266.817
2290.4177
2311.3015
2329.7219
2345.9144
2360.0945
2372.4583
2383.1817
2392.4208
2400.3127
2406.9762
2412.5122
2417.0023
2420.5138
2423.1278
2424.8602
2425.4478
-40.889017
-10.486855
-10.963954
-4.4275612
-0.81681432
2.5192313
5.0295358
7.0352322
8.6920625
10.245884
11.966627
14.158735
17.152459
21.297519
26.954713
34.485329
44.239693
56.542879
71.679662
89.87781
111.30413
136.05254
163.97812
194.78269
228.17588
263.76503
301.0217
339.32036
377.95871
416.18194
453.21616
488.30104
520.7186
549.82306
575.05946
595.97784
612.23882
623.61164
629.9674
631.26648
627.54547
618.90098
605.47786
587.45399
565.02679
538.43152
508.00117
474.03887
436.76264
396.41946
353.27882
307.63013
259.79477
210.13218
159.04547
106.98647
54.458938
2.0196691
-49.72307
-100.11374
-148.45707
-194.02889
-236.08984
-273.90182
-306.74619
-333.94293
-354.86885
-368.97388
-375.79396
-374.95867
-366.19384
-349.31924
-324.23958
-290.92768