/*--------------------------------*- C++ -*----------------------------------*\
| =========                 |                                                 |
| \\      /  F ield         | foam-extend: Open Source CFD                    |
|  \\    /   O peration     | Version:     4.1                                |
|   \\  /    A nd           | Web:         http://www.foam-extend.org         |
|    \\/     M anipulation  |                                                 |
\*---------------------------------------------------------------------------*/
FoamFile
{
    version     2.0;
    format      ascii;
    class       surfaceScalarField;
    location    "0.15";
    object      phi;
}
// * * * * * * * * * * * * * * * * * * * * * * * * * * * * * * * * * * * * * //

dimensions      [0 3 -1 0 0 0 0];

internalField   nonuniform List<scalar> 
32976
(
-0.2219187
0.0001698811
-0.2221442
0.00022549669
-0.22239999
0.00025579242
-0.22268366
0.00028367113
-0.22299509
0.00031142766
-0.2233346
0.00033951192
-0.2237024
0.00036780314
-0.22409844
0.00039603988
-0.22452234
0.00042389805
-0.22497339
0.00045104631
-0.22545052
0.00047713347
-0.22595235
0.00050182468
-0.22647712
0.00052477822
-0.22702281
0.00054568265
-0.22758704
0.00056422949
-0.22816719
0.00058015281
-0.22876039
0.00059319851
-0.22936355
0.00060316586
-0.22997343
0.0006098737
-0.23058663
0.00061320298
-0.23119969
0.00061306036
-0.23180911
0.00060942064
-0.2324114
0.00060228829
-0.23300314
0.00059173878
-0.23358102
0.0005778788
-0.2341419
0.00056088531
-0.23468287
0.00054096536
-0.23520126
0.00051839199
-0.23569472
0.00049346446
-0.23616127
0.00046654027
-0.23659926
0.00043799654
-0.23700752
0.00040825561
-0.23738528
0.00037775964
-0.23773224
0.00034696489
-0.23804859
0.00031635138
-0.23833499
0.00028639211
-0.23859255
0.00025756806
-0.23882289
0.00023033937
-0.23902805
0.0002051566
-0.23921049
0.00018243664
-0.23937305
0.00016256824
-0.23951894
0.00014589086
-0.23965164
0.00013269917
-0.23977487
0.00012322701
-0.23989252
0.00011764675
-0.24000858
0.00011606139
-0.24012708
0.00011850132
-0.240252
0.00012492231
-0.24038721
0.00013520395
-0.24053636
0.0001491504
-0.24070285
0.0001664907
-0.24088973
0.00018688236
-0.24109965
0.00020991567
-0.24133477
0.00023511955
-0.24159674
0.00026197176
-0.24188664
0.00028990709
-0.24220497
0.00031832601
-0.24255158
0.00034660578
-0.24292569
0.00037411147
-0.2433259
0.00040020849
-0.24375017
0.00042427325
-0.24419588
0.00044570679
-0.24465982
0.00046394605
-0.2451383
0.00047847546
-0.24562713
0.00048883766
-0.24612178
0.00049464317
-0.24661736
0.00049558015
-0.24710878
0.00049141952
-0.2475908
0.0004820228
-0.24805815
0.00046734486
-0.24850558
0.00044743603
-0.24892802
0.00042244175
-0.24932062
0.00039260091
-0.24967886
0.00035824055
-0.24999863
0.00031976704
-0.25027629
0.00027765456
-0.25050873
0.0002324456
-0.25069346
0.00018473349
-0.25082861
0.0001351503
-0.25091298
8.4362249e-05
-0.25094601
3.3036577e-05
-0.25092766
-1.835541e-05
-0.25085791
-6.9750733e-05
-0.25073747
-0.00012043809
-0.25056824
-0.0001692318
-0.25035278
-0.0002154572
-0.25009419
-0.00025858536
-0.24979602
-0.00029817648
-0.24946215
-0.00033386987
-0.24909677
-0.00036538266
-0.24870426
-0.00039250975
-0.24828914
-0.00041512057
-0.24785598
-0.00043315702
-0.24740935
-0.00044662782
-0.24695375
-0.00045560251
-0.24649354
-0.0004602044
-0.24603294
-0.0004606028
-0.24557593
-0.00045700598
-0.24512628
-0.00044965136
-0.24468748
-0.00043879981
-0.24426276
-0.00042472737
-0.24385504
-0.00040771888
-0.24346698
-0.00038806193
-0.24310093
-0.00036604251
-0.24275899
-0.00034193917
-0.24244297
-0.00031602132
-0.24215443
-0.00028854575
-0.24189467
-0.00025975511
-0.24166479
-0.00022987687
-0.24146567
-0.00019912358
-0.24129798
-0.00016769253
-0.24116221
-0.0001357683
-0.24105869
-0.00010352441
-0.24098756
-7.1127844e-05
-0.24094881
-3.8745549e-05
-0.24094225
-6.5640717e-06
-0.24096742
2.516838e-05
-0.24102367
5.6249167e-05
-0.24111006
8.6390515e-05
-0.24122473
0.00011467062
-0.24136444
0.00013971801
-0.24152487
0.00016042287
-0.24171573
0.00019086297
0.00021971988
-0.253847
0.00018462627
-0.25385054
0.0002290314
-0.25387269
0.0002779426
-0.25391699
0.00032797774
-0.25398478
0.00037921312
-0.25407677
0.00043150533
-0.25419341
0.00048444268
-0.25433487
0.00053749205
-0.254501
0.00059003468
-0.25469139
0.00064143389
-0.25490528
0.00069101967
-0.25514159
0.00073814125
-0.25539895
0.00078213792
-0.25567566
0.00082239528
-0.25596974
0.00085830791
-0.25627893
0.00088934098
-0.25660072
0.00091498652
-0.25693238
0.00093482895
-0.257271
0.00094849554
-0.25761353
0.00095572408
-0.25795677
0.00095630827
-0.25829752
0.00095016536
-0.25863251
0.00093727769
-0.25895853
0.00091775816
-0.25927244
0.00089178914
-0.25957124
0.00085968373
-0.25985209
0.0008218236
-0.26011242
0.00077871418
-0.26034987
0.00073092302
-0.26056246
0.0006791273
-0.26074852
0.00062405425
-0.26090678
0.00056651733
-0.2610364
0.00050737506
-0.26113695
0.00044752175
-0.2612085
0.00038789535
-0.26125154
0.00032943189
-0.26126705
0.00027307911
-0.26125646
0.00021975489
-0.26122166
0.00017035374
-0.26116494
0.00012571451
-0.26108899
8.6614947e-05
-0.26099684
5.3744449e-05
-0.26089184
2.7700148e-05
-0.26077758
8.9626598e-06
-0.26065782
-2.1087059e-06
-0.26053646
-5.2941332e-06
-0.26041745
-5.1755464e-07
-0.26030467
1.2147782e-05
-0.26020194
3.2476164e-05
-0.26011288
6.0089234e-05
-0.26004085
9.445712e-05
-0.25998887
0.00013490519
-0.25995958
0.00018062181
-0.25995513
0.00023066882
-0.25997716
0.0002840045
-0.26002675
0.00033949799
-0.26010437
0.00039594721
-0.26020987
0.00045210128
-0.26034244
0.00050668315
-0.26050064
0.00055841476
-0.26068241
0.00060603976
-0.26088505
0.00064835058
-0.26110532
0.00068421193
-0.26133943
0.00071258437
-0.26158314
0.0007325463
-0.26183181
0.00074331357
-0.26208049
0.00074425864
-0.26232399
0.0007349217
-0.26255699
0.00071502516
-0.26277413
0.00068447925
-0.26297008
0.00064338598
-0.26313967
0.00059203821
-0.26327799
0.00053091568
-0.26338042
0.00046067643
-0.26344279
0.00038213543
-0.26346137
0.00029623753
-0.26343301
0.00020408235
-0.26335515
0.00010687626
-0.2632259
5.8941551e-06
-0.26304398
-9.7549861e-05
-0.26280882
-0.00020212922
-0.26252066
-0.00030651138
-0.26218116
-0.00040925458
-0.26179251
-0.00050908932
-0.2613568
-0.00060494245
-0.26087654
-0.00069571762
-0.26035468
-0.00078043893
-0.25979459
-0.00085826889
-0.25919994
-0.0009285147
-0.2585747
-0.00099063115
-0.25792298
-0.0010442227
-0.25724907
-0.0010890361
-0.25655727
-0.0011249585
-0.25585189
-0.0011520052
-0.25513718
-0.0011703091
-0.25441728
-0.0011801067
-0.25369616
-0.0011817231
-0.25297761
-0.001175559
-0.25226519
-0.0011620707
-0.25156223
-0.00114176
-0.2508718
-0.0011151579
-0.2501967
-0.001082812
-0.24953949
-0.0010452751
-0.24890243
-0.0010030971
-0.24828756
-0.00095681266
-0.24769664
-0.00090693899
-0.24713122
-0.00085396868
-0.24659261
-0.00079836674
-0.24608192
-0.0007405685
-0.24560006
-0.00068098071
-0.24514777
-0.0006199795
-0.24472563
-0.00055791613
-0.24433403
-0.00049511928
-0.24397325
-0.00043190461
-0.24364341
-0.00036858692
-0.24334449
-0.00030549059
-0.24307639
-0.00024292343
-0.24283889
-0.00018125762
-0.24263129
-0.00012120362
-0.24245245
-6.4171905e-05
-0.24230136
-1.1371674e-05
-0.24217535
3.441631e-05
-0.24206809
8.3596292e-05
8.708274e-05
-0.25706981
0.00022291712
-0.2571231
0.00028231309
-0.25719272
0.00034756289
-0.25728033
0.00041559208
-0.25738656
0.00048544336
-0.25751149
0.00055643681
-0.25765489
0.00062784216
-0.25781628
0.00069887683
-0.25799493
0.00076868847
-0.25818991
0.00083641644
-0.25840006
0.00090116453
-0.25862398
0.0009620673
-0.2588601
0.0010182504
-0.25910661
0.0010689041
-0.25936153
0.0011132345
-0.25962274
0.0011505441
-0.25988792
0.0011801752
-0.26015469
0.0012015955
-0.26042053
0.0012143345
-0.26068288
0.0012180713
-0.26093913
0.0012125655
-0.26118671
0.001197744
-0.26142306
0.0011736275
-0.26164572
0.0011404134
-0.26185233
0.0010984
-0.26204071
0.0010480625
-0.26220886
0.00098997597
-0.26235503
0.00092488268
-0.26247772
0.00085361614
-0.26257575
0.00077715672
-0.26264826
0.0006965593
-0.26269473
0.00061299309
-0.26271505
0.00052769008
-0.26270946
0.00044193294
-0.26267862
0.00035705715
-0.26262359
0.00027439833
-0.2625458
0.00019529804
-0.26244711
0.00012105674
-0.26232968
5.2931482e-05
-0.26219607
-7.8993988e-06
-0.2620491
-6.0351497e-05
-0.2618919
-0.00010346395
-0.26172778
-0.00013642009
-0.26156024
-0.00015857054
-0.2613929
-0.00016945076
-0.2612294
-0.00016879057
-0.26107339
-0.00015652904
-0.26092842
-0.00013282427
-0.26079789
-9.8054297e-05
-0.26068498
-5.2818103e-05
-0.26059259
2.0695161e-06
-0.26052328
6.5588278e-05
-0.26047917
0.00013651778
-0.26046196
0.00021345769
-0.26047282
0.00029486036
-0.26051237
0.00037905304
-0.26058069
0.00046426344
-0.26067724
0.00054865065
-0.26080089
0.00063033968
-0.26094994
0.0007074571
-0.26112206
0.00077816468
-0.26131441
0.00084069832
-0.2615236
0.00089340258
-0.26174578
0.00093476485
-0.26197668
0.00096344721
-0.26221168
0.00097831523
-0.26244589
0.00097846557
-0.26267421
0.00096324265
-0.26289145
0.00093225943
-0.26309237
0.00088540559
-0.26327184
0.00082285332
-0.26342486
0.00074505593
-0.26354668
0.00065274135
-0.26363291
0.00054690404
-0.26367953
0.00042875598
-0.26368301
0.00029971328
-0.26364035
0.00016143138
-0.26354919
1.5708999e-05
-0.26340773
-0.00013556205
-0.26321488
-0.00029040112
-0.2629702
-0.00044680891
-0.26267393
-0.00060278301
-0.26232686
-0.00075632375
-0.26193039
-0.00090556179
-0.26148655
-0.0010487773
-0.26099791
-0.0011843637
-0.26046746
-0.0013108853
-0.25989862
-0.001427104
-0.25929515
-0.0015319933
-0.25866103
-0.0016247456
-0.25800048
-0.0017047759
-0.2573178
-0.0017717108
-0.25661738
-0.0018253859
-0.25590355
-0.0018658278
-0.25518062
-0.0018932379
-0.25445276
-0.0019079718
-0.25372397
-0.0019105163
-0.25299805
-0.0019014707
-0.25227861
-0.001881516
-0.25156897
-0.0018514006
-0.25087221
-0.0018119155
-0.25019115
-0.0017638758
-0.24952832
-0.0017081034
-0.248886
-0.0016454158
-0.24826621
-0.0015766064
-0.2476707
-0.0015024424
-0.24710102
-0.001423654
-0.24655845
-0.0013409296
-0.24604411
-0.0012549131
-0.24555888
-0.0011662058
-0.2451035
-0.0010753625
-0.24467852
-0.00098290044
-0.24428433
-0.00088930289
-0.24392121
-0.00079503114
-0.24358925
-0.00070053835
-0.24328847
-0.00060627772
-0.24301869
-0.00051270345
-0.24277957
-0.00042037213
-0.24257057
-0.00033020564
-0.24239117
-0.000243575
-0.24224142
-0.00016111854
-0.24211753
-8.9472751e-05
-0.24201399
-1.9946364e-05
8.6935323e-06
-0.2573317
0.00026849515
-0.25739541
0.00034601649
-0.25747665
0.00042880639
-0.25757598
0.00051491889
-0.25769357
0.00060303873
-0.25782928
0.0006921411
-0.25798265
0.00078121316
-0.25815301
0.0008692354
-0.25833945
0.00095513275
-0.25854087
0.0010378378
-0.25875596
0.0011162503
-0.25898321
0.001189316
-0.25922093
0.0012559764
-0.25946729
0.0013152578
-0.25972026
0.001366211
-0.25997773
0.0014080092
-0.26023743
0.001439878
-0.26049703
0.0014611998
-0.26075414
0.0014714358
-0.2610063
0.0014702324
-0.26125107
0.0014573375
-0.26148603
0.001432705
-0.26170881
0.0013964069
-0.26191713
0.0013487326
-0.26210883
0.0012900985
-0.2622819
0.0012211388
-0.26243454
0.0011426146
-0.26256515
0.0010554927
-0.26267239
0.00096085731
-0.26275521
0.00085997332
-0.26281285
0.0007542032
-0.26284491
0.00064505032
-0.26285132
0.00053409887
-0.26283239
0.00042299938
-0.26278879
0.0003134657
-0.26272161
0.00020721683
-0.26263229
0.00010597361
-0.26252264
1.1404457e-05
-0.26239483
-7.4876468e-05
-0.26225138
-0.0001513495
-0.2620951
-0.00021662584
-0.2619291
-0.00026946898
-0.26175667
-0.00030884512
-0.26158131
-0.00033392912
-0.26140663
-0.00034413883
-0.26123627
-0.00033914884
-0.26107389
-0.00031890768
-0.26092307
-0.00028364894
-0.26078722
-0.00023389677
-0.26066957
-0.00017046619
-0.26057305
-9.4454558e-05
-0.26050023
-7.2276415e-06
-0.26045331
8.9590402e-05
-0.26043398
0.00019412995
-0.26044345
0.00030432657
-0.26048235
0.0004179618
-0.26055078
0.00053268425
-0.26064818
0.00064605291
-0.26077342
0.00075558501
-0.26092477
0.00085880083
-0.26109987
0.00095326897
-0.26129583
0.0010366577
-0.26150921
0.0011067808
-0.26173609
0.0011616423
-0.26197212
0.0011994783
-0.2622126
0.0012187958
-0.26245254
0.001218408
-0.26268675
0.0011974577
-0.26290994
0.0011554439
-0.26311677
0.0010922329
-0.26330198
0.0010080666
-0.26346048
0.00090356002
-0.26358744
0.00077969313
-0.26367833
0.00063780207
-0.26372908
0.00047950402
-0.26373607
0.000306705
-0.26369627
0.00012162446
-0.26360721
-7.3348947e-05
-0.26346709
-0.0002756819
-0.26327476
-0.00048273361
-0.26302974
-0.00069181953
-0.26273228
-0.00090025227
-0.2623832
-0.0011053977
-0.261984
-0.0013047587
-0.26153678
-0.0014960064
-0.26104414
-0.0016770011
-0.26050919
-0.0018458346
-0.25993543
-0.0020008613
-0.25932671
-0.0021407184
-0.25868712
-0.0022643351
-0.25802095
-0.002370939
-0.25733262
-0.0024600409
-0.25662658
-0.0025314309
-0.25590725
-0.0025851548
-0.255179
-0.0026214915
-0.25444604
-0.002640925
-0.25371245
-0.0026441141
-0.25298205
-0.0026318669
-0.25225847
-0.0026050987
-0.25154505
-0.0025648138
-0.2508449
-0.0025120716
-0.25016081
-0.0024479622
-0.24949533
-0.0023735832
-0.24885072
-0.0022900245
-0.24822899
-0.002198343
-0.24763187
-0.002099559
-0.24706088
-0.0019946422
-0.2465173
-0.0018845058
-0.24600222
-0.0017700024
-0.24551649
-0.0016519271
-0.24506084
-0.0015310117
-0.24463581
-0.0014079371
-0.24424177
-0.0012833374
-0.24387899
-0.0011578141
-0.24354758
-0.0010319495
-0.24324754
-0.00090631844
-0.24297873
-0.00078150771
-0.24274087
-0.00065823506
-0.24253355
-0.00053752868
-0.24235655
-0.0004205743
-0.24220979
-0.00030788145
-0.24208887
-0.00021038644
-0.24199359
-0.00011522994
-4.944496e-05
-0.25733567
0.00031124023
-0.2573979
0.00040824643
-0.25747882
0.00050972829
-0.25757849
0.00061458829
-0.25769691
0.00072145743
-0.25783385
0.00082908528
-0.25798885
0.00093621202
-0.2581612
0.0010415864
-0.25834998
0.0011439082
-0.25855404
0.0012418994
-0.25877204
0.0013342524
-0.25900245
0.001419722
-0.25924353
0.001497064
-0.25949342
0.0015651404
-0.25975005
0.0016228466
-0.26001127
0.0016692269
-0.26027478
0.0017033911
-0.26053822
0.0017246372
-0.26079914
0.0017323584
-0.26105508
0.0017261689
-0.26130355
0.0017058043
-0.26154209
0.0016712453
-0.26176829
0.0016226135
-0.26197985
0.0015602888
-0.26217455
0.0014848035
-0.26235036
0.0013969488
-0.26250542
0.0012976695
-0.26263808
0.0011881556
-0.26274696
0.0010697406
-0.26283097
0.00094397428
-0.26288929
0.00081252793
-0.26292148
0.00067724189
-0.26292744
0.00054005715
-0.26290744
0.0004029984
-0.26286214
0.00026816603
-0.2627926
0.00013767346
-0.26270025
1.3626703e-05
-0.26258692
-0.00010192347
-0.26245481
-0.00020698416
-0.26230648
-0.00029968077
-0.2621448
-0.00037830864
-0.26197292
-0.00044134581
-0.26179424
-0.00048752364
-0.26161234
-0.00051583094
-0.26143093
-0.00052555479
-0.26125377
-0.0005163044
-0.26108465
-0.00048803
-0.26092726
-0.00044103758
-0.26078516
-0.00037599472
-0.2606617
-0.00029393252
-0.26055991
-0.00019623594
-0.26048251
-8.4629847e-05
-0.26043177
3.8853517e-05
-0.26040951
0.00017186686
-0.260417
0.00031181179
-0.26045494
0.00045590398
-0.26052345
0.00060119388
-0.26062202
0.00074462293
-0.26074951
0.0008830783
-0.26090416
0.0010134533
-0.2610836
0.0011327025
-0.26128485
0.0012379052
-0.26150439
0.0013263243
-0.26173821
0.0013954618
-0.26198184
0.0014431114
-0.26223045
0.0014674062
-0.26247891
0.001466864
-0.26272187
0.0014404164
-0.26295386
0.0013874422
-0.26316941
0.0013077815
-0.26336309
0.0012017464
-0.26352965
0.0010701178
-0.26366409
0.00091413601
-0.26376178
0.00073548534
-0.26381849
0.00053621808
-0.26383052
0.00031873914
-0.26379475
8.5845799e-05
-0.26370863
-0.00015946086
-0.26357034
-0.00041397807
-0.26337869
-0.00067437774
-0.26313324
-0.00093727125
-0.26283422
-0.0011992753
-0.26248253
-0.0014570848
-0.26207974
-0.0017075505
-0.26162802
-0.0019477298
-0.26113009
-0.0021749316
-0.26058916
-0.0023867615
-0.26000886
-0.0025811583
-0.25939316
-0.0027564179
-0.25874629
-0.0029112061
-0.25807266
-0.0030445659
-0.25737681
-0.0031558979
-0.25666328
-0.0032449554
-0.25593662
-0.003311814
-0.25520127
-0.003356842
-0.25446153
-0.0033806654
-0.25372152
-0.0033841285
-0.25298512
-0.0033682618
-0.25225599
-0.0033342283
-0.25153751
-0.0032833005
-0.25083276
-0.0032168174
-0.25014457
-0.0031361545
-0.24947546
-0.0030426932
-0.24882768
-0.0029378037
-0.24820321
-0.0028228114
-0.24760378
-0.0026989943
-0.24703085
-0.0025675642
-0.2464857
-0.0024296606
-0.24596936
-0.002286345
-0.24548268
-0.0021386049
-0.24502634
-0.0019873464
-0.24460087
-0.0018334099
-0.24420663
-0.001677574
-0.24384388
-0.0015205706
-0.24351273
-0.0013630984
-0.24321321
-0.0012058388
-0.24294523
-0.0010494877
-0.2427086
-0.00089486652
-0.24250312
-0.00074300259
-0.24232879
-0.00059491131
-0.24218539
-0.00045127629
-0.24206917
-0.0003266096
-0.2419831
-0.00020129813
-9.7093841e-05
-0.25732536
0.00035233712
-0.25738547
0.00046835281
-0.25746479
0.00058905135
-0.25756347
0.00071326751
-0.25768148
0.00083946614
-0.25781858
0.0009661882
-0.25797431
0.0010919418
-0.25814797
0.0012152469
-0.25833864
0.0013345745
-0.25854517
0.0014484295
-0.2587662
0.0015552895
-0.25900019
0.0016537108
-0.25924538
0.0017422555
-0.25949986
0.0018196139
-0.25976153
0.0018845182
-0.26002818
0.0019358769
-0.26029746
0.0019726767
-0.26056695
0.0019941247
-0.26083413
0.00199954
-0.26109646
0.0019884992
-0.26135138
0.0019607207
-0.26159634
0.0019162075
-0.26182886
0.0018551279
-0.26204652
0.0017779499
-0.26224704
0.0016853207
-0.26242827
0.0015781885
-0.26258829
0.0014576833
-0.26272535
0.0013252212
-0.262838
0.0011823899
-0.26292506
0.00103103
-0.26298566
0.00087312945
-0.26301929
0.00071087523
-0.26302581
0.00054657627
-0.26300546
0.00038264395
-0.26295887
0.00022157995
-0.26288711
6.5906622e-05
-0.2627916
-8.1874553e-05
-0.26267423
-0.00021930235
-0.26253722
-0.00034398587
-0.26238321
-0.00045369264
-0.26221515
-0.00054637273
-0.26203628
-0.0006202145
-0.26185011
-0.0006736926
-0.26166035
-0.00070559548
-0.26147083
-0.00071506925
-0.26128549
-0.00070164752
-0.26110824
-0.00066527503
-0.26094295
-0.00060632602
-0.26079334
-0.00052561086
-0.26066289
-0.00042437882
-0.26055482
-0.00030430691
-0.26047196
-0.00016748709
-0.26041673
-1.6380235e-05
-0.26039104
0.00014618079
-0.26039628
0.00031704766
-0.26043322
0.00049284463
-0.26050203
0.00067000489
-0.26060223
0.00084482591
-0.2607327
0.0010135395
-0.26089163
0.0011723862
-0.26107661
0.0013176802
-0.26128459
0.0014458862
-0.26151195
0.001553691
-0.26175456
0.0016380712
-0.26200781
0.0016963564
-0.26226669
0.001726287
-0.26252589
0.0017260699
-0.26277989
0.0016944131
-0.26302302
0.0016305669
-0.26324958
0.0015343415
-0.26345395
0.0014061193
-0.26363068
0.0012468521
-0.2637746
0.0010580514
-0.26388087
0.00084175957
-0.26394515
0.00060049307
-0.26396358
0.00033717055
-0.26393292
5.5187288e-05
-0.26385057
-0.0002418139
-0.26371461
-0.00054993452
-0.26352387
-0.00086512135
-0.26327788
-0.0011832554
-0.26297693
-0.0015002289
-0.26262198
-0.0018120326
-0.26221469
-0.0021148409
-0.26175734
-0.0024050792
-0.26125279
-0.0026794857
-0.26070438
-0.0029351646
-0.26011591
-0.0031696281
-0.25949151
-0.0033808259
-0.25883555
-0.0035671594
-0.25815263
-0.0037274905
-0.25744741
-0.0038611175
-0.2567246
-0.0039677677
-0.25598885
-0.00404756
-0.25524472
-0.0041009679
-0.25449661
-0.0041287763
-0.25374871
-0.0041320325
-0.25300496
-0.0041120066
-0.25226907
-0.0040701263
-0.25154442
-0.0040079478
-0.25083413
-0.0039271045
-0.25014102
-0.0038292695
-0.24946759
-0.0037161194
-0.24881608
-0.0035893134
-0.24818844
-0.0034504531
-0.24758635
-0.0033010792
-0.24701127
-0.0031426501
-0.24646439
-0.0029765336
-0.24594674
-0.0028040009
-0.24545911
-0.0026262317
-0.24500215
-0.0024443049
-0.24457635
-0.0022592169
-0.24418203
-0.0020718864
-0.24381944
-0.0018831689
-0.24348866
-0.0016938704
-0.24318973
-0.001504769
-0.24292257
-0.0013166488
-0.24268705
-0.0011303875
-0.24248309
-0.00094696284
-0.24231072
-0.0007672851
-0.24216977
-0.00059222191
-0.24205732
-0.00043905701
-0.24197758
-0.00028104412
-0.0001392218
-0.25731906
0.00038950612
-0.25737625
0.00052554767
-0.25745345
0.0006662514
-0.25755074
0.00081055468
-0.25766807
0.00095680132
-0.25780523
0.0011033385
-0.25796173
0.001248449
-0.25813691
0.0013904231
-0.25832983
0.0015274976
-0.25853935
0.0016579527
-0.25876411
0.001780042
-0.25900251
0.0018921138
-0.25925278
0.0019925268
-0.25951296
0.0020797897
-0.2597809
0.0021524618
-0.26005433
0.0022093066
-0.26033083
0.0022491786
-0.26060789
0.0022711856
-0.26088292
0.0022745648
-0.26115327
0.0022588481
-0.26141628
0.0022237307
-0.2616693
0.0021692333
-0.26190974
0.0020955665
-0.26213508
0.0020032843
-0.2623429
0.0018931475
-0.26253098
0.0017662621
-0.26269724
0.0016239458
-0.26283986
0.0014678447
-0.26295728
0.0012998066
-0.26304822
0.0011219711
-0.26311174
0.00093665258
-0.26314726
0.00074639653
-0.26315458
0.00055389367
-0.2631339
0.00036195709
-0.26308582
0.00017350931
-0.26301141
-8.507408e-06
-0.26291212
-0.00018116905
-0.26278984
-0.00034157697
-0.26264689
-0.00048693271
-0.26248596
-0.00061462227
-0.26231011
-0.00072222996
-0.26212269
-0.00080762845
-0.26192736
-0.00086902224
-0.26172798
-0.00090497939
-0.26152856
-0.0009144932
-0.26133319
-0.00089700928
-0.26114601
-0.00085245867
-0.26097106
-0.00078127873
-0.26081225
-0.00068442137
-0.26067327
-0.00056335742
-0.26055751
-0.00042006367
-0.26046799
-0.00025700579
-0.26040728
-7.7098025e-05
-0.26037742
0.00011632744
-0.26037993
0.00031955194
-0.26041566
0.00052857937
-0.26048486
0.00073919971
-0.26058707
0.00094703571
-0.26072116
0.0011476334
-0.26088532
0.0013365486
-0.26107706
0.0015094229
-0.26129325
0.0016620754
-0.26153015
0.0017905865
-0.26178346
0.0018913788
-0.26204839
0.0019612921
-0.26231976
0.0019976517
-0.26259202
0.0019983345
-0.26285942
0.0019618107
-0.26311604
0.0018871923
-0.26335596
0.0017742548
-0.26357329
0.0016234519
-0.26376235
0.0014359121
-0.26391773
0.0012134293
-0.26403439
0.00095842374
-0.2641078
0.00067390066
-0.26413394
0.00036331291
-0.26410943
3.0679769e-05
-0.26403158
-0.00031967315
-0.26389839
-0.00068311503
-0.26370868
-0.0010548378
-0.26346198
-0.0014299543
-0.26315861
-0.001803595
-0.26279964
-0.00217101
-0.26238681
-0.0025276664
-0.26192256
-0.0028693322
-0.26140989
-0.0031921521
-0.26085234
-0.0034927105
-0.26025389
-0.003768081
-0.25961886
-0.0040158603
-0.25895183
-0.0042341848
-0.25825758
-0.0044217404
-0.25754097
-0.0045777322
-0.25680686
-0.0047018755
-0.25606007
-0.0047943494
-0.25530529
-0.0048557521
-0.25454701
-0.0048870479
-0.25378954
-0.0048895087
-0.25303688
-0.0048646655
-0.25229277
-0.004814231
-0.25156066
-0.0047400646
-0.25084365
-0.004644111
-0.25014456
-0.0045283561
-0.2494659
-0.0043947848
-0.24880986
-0.0042453559
-0.24817835
-0.0040819553
-0.24757304
-0.0039063931
-0.24699531
-0.0037203777
-0.24644634
-0.0035255076
-0.24592707
-0.0033232641
-0.24543829
-0.0031150177
-0.24498058
-0.0029020172
-0.24455438
-0.0026854112
-0.24416002
-0.002466252
-0.24379767
-0.0022455114
-0.24346745
-0.0020240944
-0.24316935
-0.0018028655
-0.24290332
-0.0015826789
-0.24266927
-0.0013644399
-0.24246716
-0.001149078
-0.24229698
-0.00093745978
-0.24215866
-0.00073054562
-0.24204973
-0.00054797892
-0.24197448
-0.00035629819
-0.00017810268
-0.25731821
0.00042375483
-0.25737268
0.00058002163
-0.25744779
0.00074135408
-0.25754372
0.00090648765
-0.25766048
0.0010735616
-0.25779786
0.0012407139
-0.2579554
0.0014059974
-0.25813245
0.0015674679
-0.25832807
0.0017231206
-0.25854112
0.001871002
-0.25877021
0.0020091318
-0.25901374
0.0021356391
-0.25926988
0.0022486682
-0.25953662
0.0023465349
-0.25981178
0.0024276147
-0.26009298
0.0024905151
-0.26037775
0.002533948
-0.26066348
0.0025569125
-0.26094747
0.0025585546
-0.26122698
0.0025383537
-0.26149922
0.0024959743
-0.26176144
0.0024314491
-0.2620109
0.0023450267
-0.26224496
0.0022373443
-0.26246108
0.0021092749
-0.2626569
0.0019620831
-0.26283023
0.0017972766
-0.26297913
0.0016167364
-0.2631019
0.001422577
-0.26319717
0.0012172463
-0.26326392
0.0010033963
-0.26330146
0.00078394462
-0.26330955
0.00056197946
-0.26328833
0.00034073308
-0.26323839
0.00012357094
-0.26316076
-8.6131162e-05
-0.26305694
-0.00028499256
-0.26292886
-0.00046965422
-0.2627789
-0.00063689957
-0.26260983
-0.00078368485
-0.26242483
-0.0009072332
-0.2622274
-0.0010050604
-0.26202134
-0.0010750818
-0.26181069
-0.0011156263
-0.26159967
-0.0011255153
-0.26139258
-0.001104094
-0.26119377
-0.0010512687
-0.26100752
-0.0009675344
-0.26083796
-0.00085398279
-0.26068901
-0.00071230935
-0.26056427
-0.00054479895
-0.26046697
-0.00035430312
-0.26039986
-0.00014420748
-0.26036517
8.1633798e-05
-0.26036452
0.00031890276
-0.2603989
0.0005629576
-0.26046861
0.00080891
-0.26057325
0.0010516736
-0.26071169
0.0012860727
-0.26088208
0.0015069403
-0.26108186
0.0017092081
-0.2613078
0.0018880121
-0.261556
0.0020387907
-0.261822
0.0021573787
-0.26210081
0.0022400952
-0.26238698
0.0022838238
-0.26267473
0.0022860887
-0.26295803
0.0022451046
-0.26323067
0.0021598337
-0.26348642
0.0020300107
-0.26371913
0.0018561613
-0.26392282
0.0016395979
-0.2640918
0.0013824089
-0.26422079
0.001087419
-0.26430504
0.00075814719
-0.26434033
0.00039860439
-0.26432312
1.3471815e-05
-0.2642506
-0.00039219888
-0.26412071
-0.00081300419
-0.26393221
-0.0012433386
-0.26368466
-0.0016775027
-0.26337843
-0.0021098216
-0.26301468
-0.0025347628
-0.2625953
-0.0029470491
-0.26212287
-0.0033417588
-0.26160061
-0.0037144161
-0.26103225
-0.0040610643
-0.26042201
-0.004378324
-0.25977444
-0.0046634315
-0.25909437
-0.004914258
-0.25838679
-0.0051293192
-0.25765678
-0.0053077394
-0.25690942
-0.0054492384
-0.25614969
-0.0055540764
-0.25538244
-0.0056229996
-0.25461231
-0.0056571772
-0.25384369
-0.0056581315
-0.25308067
-0.0056276803
-0.25232706
-0.0055678457
-0.25158631
-0.005480813
-0.25086156
-0.0053688589
-0.25015562
-0.0052343004
-0.24947096
-0.0050794459
-0.24880975
-0.0049065664
-0.24817386
-0.0047178423
-0.24756489
-0.0045153597
-0.24698419
-0.0043010825
-0.24643285
-0.0040768423
-0.24591179
-0.0038443311
-0.2454217
-0.0036051091
-0.24496312
-0.0033605917
-0.24453646
-0.0031120749
-0.24414197
-0.0028607384
-0.24377982
-0.0026076617
-0.24345008
-0.0023538397
-0.24315273
-0.0021002108
-0.24288773
-0.0018476801
-0.24265501
-0.0015971619
-0.24245454
-0.0013495471
-0.24228632
-0.0011056805
-0.24215034
-0.00086651999
-0.24204435
-0.00065397173
-0.24197227
-0.00042837344
-0.00021492689
-0.25732119
0.00045383264
-0.25737248
0.0006313062
-0.25744524
0.00081411785
-0.2575397
0.0010009467
-0.25765588
0.0011897455
-0.25779361
0.0013784371
-0.25795245
0.0015648375
-0.25813174
0.0017467598
-0.25833057
0.0019219483
-0.25854777
0.0020882051
-0.25878194
0.002243304
-0.25903145
0.0023851434
-0.25929442
0.0025116404
-0.25956879
0.0026209058
-0.25985229
0.0027111189
-0.2601425
0.0027807193
-0.26043682
0.0028282652
-0.26073254
0.0028526359
-0.26102686
0.0028528762
-0.26131691
0.002828404
-0.26159978
0.0027788452
-0.26187257
0.0027042382
-0.26213241
0.0026048641
-0.2623765
0.0024814398
-0.26260218
0.002334949
-0.26280691
0.0021668154
-0.26298837
0.0019787388
-0.26314448
0.0017728406
-0.26327341
0.0015515092
-0.26337367
0.0013175105
-0.26344412
0.0010738467
-0.263484
0.0008238229
-0.26349296
0.00057094243
-0.26347111
0.00031887735
-0.26341899
7.1457086e-05
-0.26333765
-0.0001674803
-0.26322857
-0.00039407154
-0.26309375
-0.00060447411
-0.26293562
-0.0007950286
-0.26275708
-0.00096221977
-0.26256143
-0.0011028808
-0.26235234
-0.0012141533
-0.26213379
-0.001293633
-0.26191003
-0.001339389
-0.2616855
-0.0013500473
-0.26146475
-0.0013248364
-0.2612524
-0.0012636264
-0.26105297
-0.0011669626
-0.26087088
-0.001036075
-0.2607103
-0.00087288725
-0.26057509
-0.00068000184
-0.26046873
-0.00046067225
-0.26039416
-0.00021877215
-0.26035382
4.129267e-05
-0.26034949
0.00031457016
-0.26038227
0.00059574498
-0.26045257
0.00087920882
-0.26056003
0.0011591264
-0.26070351
0.0014295588
-0.26088114
0.0016845717
-0.26109028
0.0019183428
-0.26132755
0.0021252822
-0.2615889
0.0023001445
-0.26186966
0.0024381378
-0.26216459
0.002535025
-0.26246798
0.0025872158
-0.26277375
0.0025918557
-0.26307553
0.0025468839
-0.26336679
0.0024510982
-0.26364097
0.0023041863
-0.26389155
0.0021067461
-0.26411224
0.0018602826
-0.26429702
0.0015671923
-0.26444034
0.0012307336
-0.26453716
0.00085497061
-0.26458306
0.00044450141
-0.2645743
4.7140821e-06
-0.26450793
-0.00045856878
-0.26438181
-0.0009391226
-0.26419466
-0.0014304913
-0.26394605
-0.0019261121
-0.26363642
-0.0024194535
-0.26326703
-0.0029041519
-0.26283993
-0.003374142
-0.26235792
-0.0038237743
-0.26182441
-0.00424792
-0.26124342
-0.0046420571
-0.26061941
-0.0050023362
-0.25995721
-0.0053256254
-0.25926194
-0.0056095305
-0.25853886
-0.0058524049
-0.25779329
-0.0060533063
-0.25703055
-0.0062119797
-0.25625583
-0.0063287911
-0.25547417
-0.0064046632
-0.25469035
-0.0064409998
-0.25390887
-0.0064396043
-0.25313394
-0.0064026114
-0.25236941
-0.0063323815
-0.25161877
-0.0062314523
-0.25088517
-0.0061024565
-0.25017141
-0.0059480629
-0.24947993
-0.0057709208
-0.24881287
-0.005573628
-0.24817204
-0.00535867
-0.24755899
-0.0051284178
-0.24697497
-0.0048850954
-0.24642104
-0.0046307707
-0.24589803
-0.0043673469
-0.24540656
-0.0040965725
-0.24494713
-0.003820027
-0.24452006
-0.0035391488
-0.24412555
-0.0032552391
-0.24376374
-0.0029694784
-0.24343463
-0.0026829436
-0.24313821
-0.0023966364
-0.24287439
-0.0021114992
-0.2426431
-0.0018284474
-0.24244431
-0.0015483425
-0.24227798
-0.0012720053
-0.24214417
-0.001000329
-0.24204062
-0.00075753069
-0.24197087
-0.00049811601
-0.0002503498
-0.25732747
0.00048004192
-0.25737547
0.00067930972
-0.25744578
0.00088442838
-0.25753872
0.0010938821
-0.25765436
0.0013053906
-0.25779257
0.0015166439
-0.25795294
0.00172521
-0.25813483
0.0019286478
-0.25833732
0.0021244393
-0.25855925
0.0023101298
-0.25879918
0.0024832339
-0.25905544
0.0026414058
-0.25932612
0.0027823213
-0.25960909
0.0029038727
-0.259902
0.003004029
-0.26020233
0.0030810493
-0.26050739
0.0031333245
-0.26081435
0.0031596025
-0.26112029
0.0031588154
-0.2614222