/*--------------------------------*- C++ -*----------------------------------*\
| =========                 |                                                 |
| \\      /  F ield         | foam-extend: Open Source CFD                    |
|  \\    /   O peration     | Version:     4.1                                |
|   \\  /    A nd           | Web:         http://www.foam-extend.org         |
|    \\/     M anipulation  |                                                 |
\*---------------------------------------------------------------------------*/
FoamFile
{
    version     2.0;
    format      ascii;
    class       volScalarField;
    location    "0.15";
    object      rAU;
}
// * * * * * * * * * * * * * * * * * * * * * * * * * * * * * * * * * * * * * //

dimensions      [0 0 1 0 0 0 0];

internalField   nonuniform List<scalar> 
16796
(
0.00012970059
0.00012960565
0.00012952679
0.0001294377
0.00012933658
0.00012922459
0.00012909977
0.00012896344
0.0001288139
0.00012865272
0.00012847852
0.0001282932
0.00012809567
0.00012788814
0.00012766983
0.00012744322
0.00012720779
0.00012696627
0.00012671835
0.0001264669
0.00012621178
0.00012595597
0.00012569937
0.00012544498
0.00012519271
0.00012494548
0.0001247031
0.00012446837
0.00012424091
0.00012402333
0.00012381501
0.0001236179
0.00012343263
0.00012325855
0.00012309747
0.00012294802
0.00012281168
0.0001226867
0.00012257422
0.00012247214
0.00012238125
0.00012229926
0.00012222612
0.00012216027
0.0001221005
0.00012204548
0.00012199373
0.00012194393
0.00012189448
0.00012184399
0.00012179103
0.0001217343
0.00012167253
0.00012160475
0.00012152993
0.00012144737
0.00012135651
0.00012125704
0.00012114884
0.00012103214
0.00012090722
0.00012077472
0.00012063545
0.00012049046
0.00012034096
0.00012018829
0.00012003409
0.00011987988
0.00011972738
0.00011957836
0.00011943456
0.00011929767
0.00011916948
0.00011905145
0.0001189451
0.00011885174
0.00011877251
0.00011870836
0.00011866018
0.00011862836
0.00011861335
0.00011861336
0.00011861535
0.00011863449
0.00011867063
0.0001187233
0.00011879181
0.00011887527
0.00011897263
0.00011908267
0.00011920422
0.00011933577
0.00011947591
0.00011962314
0.00011977595
0.00011993281
0.00012009218
0.00012025271
0.00012041286
0.00012057131
0.0001207268
0.0001208781
0.00012102407
0.00012116379
0.00012129622
0.00012142055
0.00012153603
0.000121642
0.00012173785
0.00012182319
0.00012189751
0.0001219605
0.00012201188
0.00012205146
0.00012207906
0.00012209473
0.00012209009
0.0001220701
0.00012203868
0.0001219965
0.00012194468
0.00012188446
0.0001218125
0.000121704
0.00011727883
0.00011725752
0.00011726185
0.0001172604
0.00011725019
0.00011723204
0.0001172041
0.00011716763
0.00011712107
0.00011706589
0.00011700076
0.00011692743
0.00011684478
0.0001167548
0.00011665662
0.00011655242
0.00011644156
0.00011632642
0.0001162065
0.00011608432
0.00011595951
0.00011583468
0.00011570951
0.00011558662
0.0001154657
0.00011534932
0.00011523709
0.00011513148
0.00011503195
0.0001149408
0.0001148573
0.00011478317
0.00011471888
0.0001146637
0.00011461929
0.00011458425
0.00011455993
0.00011454463
0.0001145394
0.00011454224
0.00011455389
0.00011457219
0.00011459713
0.00011462724
0.00011466146
0.00011469855
0.00011473723
0.00011477629
0.00011481435
0.00011485017
0.00011488255
0.00011491037
0.00011493258
0.00011494842
0.00011495706
0.00011495799
0.00011495089
0.00011493563
0.00011491224
0.00011488116
0.00011484279
0.00011479791
0.00011474746
0.00011469257
0.00011463452
0.00011457471
0.00011451478
0.00011445626
0.00011440085
0.00011435024
0.00011430612
0.00011427008
0.00011424379
0.0001142286
0.00011422586
0.00011423676
0.0001142623
0.00011430326
0.00011436037
0.00011440515
0.0001144635
0.00011453631
0.0001146114
0.00011470277
0.00011481035
0.00011493392
0.00011507309
0.00011522728
0.00011539575
0.00011557756
0.00011577182
0.00011597727
0.00011619275
0.00011641696
0.00011664857
0.00011688623
0.00011712853
0.00011737421
0.00011762184
0.00011787015
0.00011811788
0.00011836386
0.00011860691
0.00011884609
0.00011908031
0.0001193087
0.00011953045
0.0001197448
0.00011995103
0.00012014867
0.00012033706
0.00012051579
0.00012068443
0.00012084265
0.00012099012
0.0001211267
0.0001212439
0.00012134631
0.00012143748
0.00012151754
0.00012158678
0.00012163421
0.00012166381
0.00012167785
0.00011626332
0.00011622879
0.00011620917
0.00011618312
0.0001161487
0.00011610716
0.00011605705
0.00011599999
0.00011593476
0.0001158632
0.00011578432
0.00011570012
0.00011560979
0.00011551551
0.00011541659
0.00011531535
0.00011521123
0.00011510664
0.00011500109
0.00011489704
0.00011479403
0.00011469452
0.00011459802
0.00011450695
0.00011442074
0.00011434169
0.00011426913
0.00011420519
0.00011414903
0.00011410257
0.00011406475
0.00011403692
0.00011401918
0.00011401046
0.00011401204
0.00011402219
0.00011404192
0.00011406922
0.00011410484
0.0001141465
0.0001141947
0.00011424706
0.00011430338
0.00011435
0.00011439615
0.00011444559
0.00011449717
0.00011454984
0.00011460231
0.00011465343
0.00011470202
0.00011474697
0.00011478719
0.00011481073
0.00011481897
0.00011481808
0.00011480805
0.00011478907
0.00011476152
0.00011472614
0.00011468368
0.0001146352
0.00011458191
0.00011452518
0.00011446653
0.00011440751
0.00011434992
0.00011429538
0.00011424566
0.00011420247
0.00011416749
0.00011414225
0.00011412835
0.00011412701
0.00011413946
0.00011416671
0.00011420956
0.0001142686
0.00011430095
0.00011431798
0.0001143475
0.00011439265
0.00011445402
0.00011453199
0.00011462671
0.00011473811
0.00011486595
0.00011500977
0.00011516893
0.00011534259
0.00011552991
0.0001157297
0.00011594081
0.00011616195
0.00011639179
0.00011662896
0.00011687199
0.00011711961
0.00011737031
0.00011762275
0.00011787563
0.00011812767
0.00011837765
0.00011862453
0.00011886716
0.0001191046
0.00011933595
0.00011956038
0.00011977714
0.00011998566
0.00012018524
0.00012037541
0.00012055569
0.0001207257
0.00012088504
0.00012103354
0.00012117083
0.00012129674
0.000121411
0.00012151315
0.00012160276
0.00012166834
0.00012171621
0.0001217285
0.00011619623
0.00011615365
0.00011612481
0.00011608858
0.0001160435
0.0001159911
0.00011593011
0.00011586229
0.00011578662
0.00011570507
0.0001156168
0.00011552396
0.00011542586
0.00011532481
0.00011522023
0.00011511453
0.00011500723
0.00011490078
0.00011479475
0.0001146916
0.00011459088
0.00011449501
0.0001144035
0.00011431868
0.00011423994
0.00011416947
0.00011410651
0.00011405309
0.00011400823
0.00011397375
0.00011394845
0.00011393352
0.00011392896
0.00011393353
0.00011394837
0.00011397162
0.00011400416
0.00011404382
0.00011409123
0.00011414399
0.00011420248
0.00011424908
0.00011428884
0.00011432161
0.00011435693
0.00011439879
0.00011444624
0.00011449833
0.00011455381
0.00011461149
0.00011467009
0.00011472829
0.00011478472
0.0001148271
0.00011484723
0.00011483928
0.00011482157
0.00011479448
0.00011475859
0.00011471483
0.00011466415
0.00011460784
0.0001145473
0.0001144841
0.00011441994
0.00011435655
0.00011429587
0.00011423964
0.00011418974
0.00011414796
0.00011411602
0.00011409548
0.00011408792
0.00011409451
0.00011411644
0.00011415461
0.0001142097
0.00011425388
0.00011424045
0.00011423897
0.00011425228
0.00011428135
0.00011432696
0.00011438968
0.0001144698
0.00011456745
0.00011468249
0.00011481459
0.0001149632
0.00011512756
0.00011530688
0.00011549999
0.00011570576
0.00011592291
0.00011615008
0.00011638586
0.00011662875
0.00011687741
0.00011713027
0.00011738594
0.00011764303
0.0001179002
0.00011815613
0.00011840974
0.00011865978
0.00011890524
0.00011914516
0.00011937866
0.0001196049
0.00011982327
0.00012003302
0.00012023361
0.00012042452
0.00012060532
0.00012077557
0.00012093503
0.00012108329
0.00012122007
0.00012134502
0.00012145763
0.00012155757
0.00012164378
0.00012171748
0.00012173856
0.00011620014
0.00011615235
0.00011611786
0.00011607537
0.0001160236
0.00011596421
0.00011589605
0.00011582097
0.00011573803
0.00011564929
0.000115554
0.0001154544
0.00011534988
0.00011524283
0.00011513277
0.00011502215
0.00011491058
0.00011480056
0.00011469171
0.00011458654
0.00011448463
0.00011438844
0.00011429747
0.00011421407
0.00011413761
0.00011407029
0.00011401131
0.00011396267
0.00011392336
0.00011389512
0.0001138767
0.00011386923
0.00011387262
0.00011388553
0.00011390902
0.00011394111
0.00011398258
0.00011403113
0.00011408727
0.00011414846
0.00011419321
0.00011421279
0.00011422915
0.0001142546
0.00011428861
0.00011433042
0.00011437906
0.00011443359
0.00011449274
0.00011455525
0.00011461975
0.00011468482
0.00011474897
0.00011481082
0.0001148597
0.00011485856
0.00011483307
0.00011479766
0.00011475312
0.00011470058
0.00011464119
0.00011457645
0.00011450799
0.00011443758
0.00011436711
0.00011429849
0.00011423384
0.00011417504
0.00011412409
0.00011408287
0.00011405317
0.00011403658
0.00011403468
0.00011404865
0.00011407958
0.0001141283
0.0001141954
0.00011419596
0.00011416457
0.00011414651
0.00011414325
0.00011415599
0.00011418569
0.00011423309
0.00011429869
0.00011438274
0.00011448524
0.00011460596
0.00011474444
0.00011489998
0.00011507183
0.00011525884
0.00011545989
0.00011567368
0.00011589881
0.00011613383
0.0001163772
0.00011662751
0.00011688312
0.00011714256
0.00011740437
0.00011766714
0.00011792946
0.00011819019
0.000118448
0.00011870181
0.0001189506
0.00011919342
0.00011942938
0.00011965781
0.00011987791
0.0001200891
0.00012029081
0.00012048256
0.00012066385
0.00012083442
0.00012099377
0.00012114156
0.00012127735
0.00012140061
0.00012151099
0.00012160631
0.00012168812
0.00012172253
0.00011620428
0.00011615545
0.00011611538
0.00011606689
0.00011600874
0.00011594267
0.00011586761
0.0001157855
0.00011569547
0.00011559966
0.00011549741
0.00011539102
0.00011527999
0.00011516675
0.00011505092
0.00011493501
0.0001148187
0.00011470456
0.00011459226
0.00011448435
0.00011438048
0.00011428312
0.00011419181
0.00011410893
0.00011403386
0.00011396879
0.00011391292
0.00011386824
0.00011383369
0.000113811
0.00011379886
0.00011379833
0.00011380924
0.00011383019
0.00011386213
0.00011390298
0.00011395339
0.00011401096
0.00011407604
0.0001141333
0.00011414103
0.00011414269
0.00011415545
0.00011417853
0.00011421145
0.00011425346
0.00011430364
0.00011436102
0.00011442428
0.0001144921
0.00011456302
0.0001146355
0.00011470789
0.00011477867
0.0001148461
0.00011487607
0.00011484253
0.00011479847
0.00011474484
0.000114683
0.0001146143
0.00011454047
0.00011446336
0.00011438497
0.00011430738
0.00011423271
0.00011416327
0.00011410108
0.00011404829
0.00011400688
0.00011397873
0.00011396547
0.0001139687
0.00011398957
0.00011402916
0.00011408819
0.00011416715
0.00011412526
0.00011407686
0.00011404168
0.00011402143
0.0001140175
0.00011403106
0.00011406305
0.00011411412
0.00011418468
0.00011427484
0.00011438449
0.00011451322
0.00011466039
0.00011482528
0.00011500676
0.00011520367
0.0001154147
0.00011563842
0.0001158733
0.00011611775
0.00011637028
0.00011662918
0.0001168929
0.0001171599
0.00011742868
0.00011769778
0.00011796594
0.00011823179
0.00011849418
0.00011875201
0.00011900429
0.00011925007
0.00011948862
0.00011971911
0.00011994089
0.00012015339
0.00012035607
0.0001205484
0.00012073008
0.00012090057
0.0001210595
0.00012120637
0.0001213407
0.00012146203
0.00012156729
0.00012165927
0.00012170622
0.0001161984
0.00011615813
0.00011611263
0.00011605823
0.00011599373
0.00011592097
0.00011583894
0.00011574967
0.00011565237
0.00011554925
0.00011543974
0.00011532622
0.00011520826
0.0001150884
0.00011496631
0.00011484459
0.000114723
0.00011460415
0.00011448781
0.00011437657
0.00011427013
0.00011417101
0.0001140788
0.00011399587
0.00011392166
0.00011385835
0.00011380516
0.00011376404
0.00011373394
0.00011371654
0.00011371049
0.00011371679
0.00011373522
0.00011376426
0.00011380481
0.00011385465
0.00011391431
0.00011398128
0.00011405578
0.00011407919
0.00011406466
0.00011406163
0.00011407094
0.00011409187
0.000114124
0.00011416662
0.0001142188
0.00011427954
0.0001143475
0.00011442126
0.00011449927
0.00011457986
0.00011466122
0.00011474164
0.00011481918
0.00011488369
0.00011485059
0.0001147975
0.00011473432
0.00011466259
0.00011458392
0.00011450026
0.00011441369
0.00011432646
0.00011424087
0.00011415927
0.00011408414
0.00011401771
0.00011396225
0.00011391988
0.00011389257
0.00011388202
0.00011388985
0.00011391722
0.00011396515
0.00011403432
0.00011411856
0.00011404423
0.00011397814
0.00011392525
0.0001138875
0.00011386651
0.00011386367
0.0001138801
0.00011391663
0.00011397379
0.00011405183
0.0001141507
0.00011427009
0.00011440939
0.00011456788
0.00011474444
0.00011493789
0.00011514685
0.00011536986
0.00011560532
0.00011585155
0.00011610699
0.00011636984
0.00011663847
0.00011691125
0.00011718659
0.00011746295
0.000117739
0.0001180133
0.00011828461
0.0001185518
0.0001188138
0.0001190696
0.00011931845
0.00011955946
0.00011979195
0.00012001529
0.00012022893
0.00012043231
0.00012062507
0.00012080667
0.00012097669
0.00012113465
0.00012128006
0.00012141242
0.00012152805
0.00012163126
0.00012169114
0.00011618614
0.00011616043
0.00011610934
0.00011604886
0.00011597784
0.00011589819
0.00011580895
0.00011571223
0.00011560733
0.00011549655
0.00011537939
0.00011525832
0.000115133
0.00011500604
0.00011487721
0.00011474919
0.00011462181
0.00011449777
0.00011437688
0.00011426182
0.00011415233
0.000114051
0.00011395744
0.00011387408
0.00011380037
0.00011373852
0.00011368774
0.00011364998
0.00011362418
0.000113612
0.00011361203
0.00011362523
0.0001136513
0.00011368867
0.00011373811
0.00011379731
0.00011386668
0.00011394357
0.00011401893
0.00011399887
0.00011397843
0.00011397072
0.00011397664
0.00011399559
0.00011402718
0.00011407072
0.00011412529
0.00011418989
0.00011426308
0.00011434339
0.00011442916
0.00011451855
0.00011460959
0.00011470039
0.00011478879
0.00011487276
0.00011485833
0.00011479575
0.00011472241
0.00011464011
0.00011455069
0.00011445634
0.00011435942
0.0001142624
0.00011416784
0.00011407832
0.00011399654
0.00011392491
0.0001138659
0.00011382175
0.00011379454
0.00011378605
0.00011379796
0.00011383141
0.0001138874
0.00011396654
0.00011404919
0.00011395349
0.00011386889
0.00011379757
0.00011374171
0.00011370319
0.00011368358
0.00011368422
0.00011370609
0.00011374988
0.00011381594
0.00011390431
0.00011401472
0.0001141466
0.00011429923
0.00011447146
0.00011466208
0.00011486966
0.00011509265
0.00011532938
0.00011557809
0.00011583712
0.00011610457
0.00011637872
0.00011665784
0.00011694027
0.00011722437
0.00011750874
0.00011779185
0.00011807242
0.00011834924
0.0001186212
0.00011888723
0.00011914654
0.0001193982
0.00011964151
0.0001198758
0.00012010049
0.000120315
0.00012051895
0.00012071177
0.00012089301
0.00012106222
0.00012121891
0.00012136254
0.00012148898
0.00012160401
0.00012167683
0.00011617015
0.00011616304
0.00011610637
0.00011603975
0.0001159621
0.00011587536
0.00011577868
0.00011567423
0.0001155614
0.00011544256
0.00011531731
0.00011518822
0.00011505502
0.00011492043
0.0001147843
0.00011464941
0.00011451564
0.00011438581
0.00011425979
0.00011414032
0.00011402723
0.00011392314
0.00011382773
0.00011374347
0.00011366982
0.00011360904
0.00011356035
0.00011352569
0.00011350401
0.00011349691
0.00011350299
0.00011352314
0.00011355698
0.00011360288
0.00011366151
0.00011373046
0.00011381
0.00011389736
0.00011394947
0.00011390793
0.00011388146
0.00011386903
0.00011387165
0.00011388877
0.00011392007
0.00011396489
0.00011402231
0.00011409129
0.00011417034
0.00011425789
0.00011435216
0.00011445116
0.00011455274
0.00011465478
0.00011475489
0.00011485081
0.00011486628
0.00011479364
0.00011470949
0.00011461584
0.00011451479
0.00011440881
0.00011430052
0.00011419266
0.00011408806
0.00011398956
0.00011390008
0.00011382227
0.00011375876
0.00011371197
0.0001136841
0.00011367703
0.00011369248
0.00011373162
0.00011379543
0.00011388445
0.00011396848
0.00011385348
0.00011374948
0.00011365893
0.00011358429
0.00011352766
0.00011349087
0.00011347544
0.00011348252
0.00011351294
0.00011356716
0.0001136453
0.00011374712
0.00011387206
0.00011401941
0.00011418796
0.00011437646
0.0001145834
0.00011480714
0.00011504592
0.00011529787
0.00011556123
0.000115834
0.00011611436
0.00011640048
0.00011669058
0.00011698296
0.00011727614
0.0001175685
0.0001178587
0.00011814547
0.00011842764
0.00011870412
0.00011897406
0.0001192365
0.00011949071
0.00011973601
0.00011997178
0.00012019743
0.00012041256
0.0001206166
0.00012080911
0.00012098962
0.00012115768
0.00012131274
0.00012145027
0.00012157738
0.00012166305
0.00011615076
0.00011616641
0.00011610404
0.00011603112
0.00011594663
0.00011585257
0.00011574815
0.00011563563
0.00011551447
0.00011538715
0.00011525335
0.00011511573
0.00011497413
0.00011483136
0.00011468736
0.000114545
0.00011440427
0.00011426805
0.00011413632
0.00011401188
0.00011389463
0.00011378726
0.00011368951
0.00011360389
0.00011352991
0.00011346985
0.00011342296
0.00011339118
0.00011337346
0.00011337139
0.00011338351
0.0001134107
0.0001134525
0.00011350721
0.00011357539
0.00011365454
0.0001137448
0.00011384324
0.00011385562
0.00011380658
0.0001137739
0.00011375666
0.00011375598
0.00011377139
0.00011380262
0.00011384905
0.00011390974
0.00011398363
0.00011406916
0.00011416468
0.00011426824
0.00011437771
0.00011449073
0.00011460495
0.00011471774
0.00011482654
0.00011487519
0.00011479186
0.00011469612
0.00011459024
0.00011447658
0.0001143579
0.0001142371
0.00011411724
0.00011400144
0.00011389278
0.00011379447
0.00011370938
0.00011364036
0.00011359001
0.00011356068
0.00011355434
0.00011357279
0.00011361723
0.00011368862
0.00011378746
0.00011387983
0.00011374443
0.00011362001
0.00011350931
0.00011341509
0.0001133397
0.00011328522
0.00011325336
0.00011324545
0.00011326245
0.00011330494
0.00011337307
0.00011346667
0.00011358516
0.00011372779
0.00011389333
0.00011408042
0.00011428747
0.00011451275
0.00011475438
0.00011501037
0.00011527885
0.0001155577
0.00011584498
0.00011613875
0.00011643716
0.00011673838
0.00011704087
0.00011734293
0.00011764316
0.00011794022
0.0001182329
0.00011852007
0.00011880084
0.00011907423
0.00011933948
0.00011959588
0.00011984281
0.00012007967
0.00012030605
0.00012052136
0.00012072518
0.00012091707
0.00012109657
0.00012126318
0.00012141196
0.00012155128
0.00012164965
0.00011612791
0.00011617115
0.00011610301
0.00011602367
0.00011593215
0.00011583051
0.00011571803
0.00011559706
0.00011546715
0.00011533087
0.000115188
0.0001150413
0.00011489071
0.00011473913
0.00011458663
0.00011443615
0.00011428781
0.00011414455
0.00011400646
0.00011387642
0.00011375441
0.00011364318
0.00011354255
0.00011345508
0.00011338033
0.0001133206
0.00011327519
0.00011324605
0.00011323211
0.00011323498
0.00011325317
0.00011328749
0.00011333745
0.00011340127
0.00011347941
0.00011356925
0.00011367082
0.00011378103
0.00011375114
0.00011369427
0.00011365515
0.00011363297
0.00011362898
0.00011364278
0.00011367416
0.00011372253
0.00011378695
0.00011386632
0.00011395901
0.00011406326
0.00011417699
0.00011429787
0.00011442334
0.0001145508
0.00011467733
0.0001148001
0.0001148857
0.00011479096
0.00011468275
0.00011456363
0.00011443626
0.00011430369
0.00011416916
0.00011403602
0.0001139077
0.00011378762
0.00011367925
0.00011358571
0.00011351011
0.00011345523
0.00011342357
0.00011341727
0.00011343818
0.00011348754
0.00011356631
0.00011367496
0.00011378366
0.00011362664
0.00011348067
0.0001133488
0.0001132341
0.00011313922
0.00011306645
0.00011301775
0.0001129946
0.00011299812
0.00011302895
0.00011308733
0.00011317308
0.00011328563
0.00011342416
0.00011358738
0.00011377383
0.00011398183
0.00011420949
0.00011445483
0.00011471573
0.00011499016
0.00011527589
0.00011557085
0.000115873
0.00011618037
0.00011649104
0.00011680337
0.0001171156
0.00011742626
0.00011773397
0.00011803745
0.00011833555
0.00011862734
0.00011891182
0.00011918821
0.0001194558
0.00011971394
0.00011996204
0.00012019968
0.00012042629
0.00012064146
0.00012084475
0.00012103574
0.00012121397
0.00012137409
0.00012152563
0.00012163654
0.00011610174
0.00011616896
0.0001161037
0.00011601776
0.00011591896
0.00011580943
0.00011568855
0.00011555872
0.00011541959
0.00011527384
0.00011512134
0.00011496497
0.00011480476
0.00011464374
0.00011448207
0.0001143228
0.00011416616
0.00011401519
0.00011387007
0.00011373378
0.00011360638
0.00011349071
0.00011338665
0.00011329681
0.00011322084
0.00011316107
0.00011311681
0.00011309007
0.00011307977
0.00011308751
0.00011311179
0.00011315337
0.00011321173
0.00011328499
0.00011337353
0.00011347462
0.00011358815
0.00011370514
0.00011363588
0.00011357078
0.00011352492
0.00011349762
0.00011349025
0.00011350249
0.00011353421
0.00011358483
0.00011365343
0.00011373886
0.00011383943
0.00011395324
0.00011407807
0.00011421139
0.00011435041
0.00011449226
0.00011463374
0.00011477167
0.00011489372
0.00011479157
0.00011466991
0.00011453644
0.00011439412
0.00011424634
0.00011409669
0.00011394885
0.00011380662
0.00011367372
0.00011355393
0.00011345069
0.00011336732
0.00011330686
0.00011327199
0.00011326497
0.00011328778
0.00011334169
0.00011342766
0.00011354613
0.00011368021
0.00011350021
0.0001133314
0.00011317722
0.00011304104
0.00011292581
0.00011283409
0.00011276806
0.00011272938
0.00011271929
0.00011273853
0.00011278739
0.00011286568
0.0001129728
0.00011310788
0.00011326952
0.00011345615
0.00011366596
0.00011389691
0.00011414688
0.00011441358
0.00011469486
0.00011498833
0.00011529179
0.00011560308
0.0001159201
0.00011624085
0.0001165636
0.00011688651
0.00011720805
0.00011752677
0.00011784138
0.00011815066
0.00011845369
0.00011874942
0.00011903708
0.00011931593
0.00011958535
0.00011984473
0.00012009366
0.00012033159
0.0001205581
0.00012077281
0.00012097531
0.0001211652
0.00012133666
0.00012150037
0.00012162367
0.00011607223
0.00011615404
0.00011610672
0.00011601399
0.00011590765
0.00011578993
0.00011566023
0.00011552109
0.00011537224
0.00011521646
0.00011505372
0.00011488702
0.00011471652
0.00011454534
0.00011437377
0.00011420499
0.0001140393
0.00011387989
0.00011372702
0.00011358378
0.00011345033
0.00011332957
0.00011322148
0.00011312875
0.00011305108
0.00011299084
0.00011294741
0.00011292281
0.00011291599
0.00011292853
0.00011295894
0.00011300794
0.00011307495
0.00011315802
0.00011325746
0.0001133704
0.00011349661
0.00011360146
0.00011350942
0.00011343564
0.00011338268
0.00011335003
0.00011333917
0.00011334989
0.00011338211
0.00011343531
0.00011350856
0.00011360067
0.00011370985
0.00011383412
0.00011397105
0.00011411794
0.00011427172
0.00011442926
0.00011458701
0.00011474146
0.000114889
0.00011479438
0.00011465817
0.00011450909
0.00011435046
0.00011418602
0.00011401972
0.00011385564
0.00011369793
0.00011355068
0.00011341802
0.00011330369
0.00011321131
0.00011314415
0.00011310511
0.0001130966
0.00011312073
0.00011317881
0.00011327182
0.00011340017
0.0001135597
0.00011336531
0.00011317227
0.00011299449
0.0001128357
0.00011269918
0.00011258776
0.00011250383
0.00011244927
0.00011242543
0.00011243314
0.00011247271
0.00011254395
0.00011264621
0.00011277852
0.00011293937
0.00011312706
0.0001133396
0.00011357481
0.00011383038
0.00011410387
0.00011439295
0.00011469507
0.00011500789
0.00011532911
0.00011565653
0.00011598804
0.0001163218
0.00011665591
0.00011698877
0.0001173189
0.00011764495
0.00011796568
0.00011828014
0.00011858728
0.00011888632
0.00011917652
0.00011945726
0.00011972794
0.00011998817
0.0001202374
0.00012047526
0.00012070137
0.00012091537
0.0001211169
0.00012129966
0.00012147547
0.00012161101
0.00011603945
0.00011613273
0.00011611259
0.00011601285
0.00011589868
0.00011577238
0.00011563346
0.00011548451
0.00011532538
0.00011515895
0.00011498532
0.0001148076
0.00011462608
0.000114444
0.00011426177
0.00011408268
0.00011390718
0.00011373856
0.00011357718
0.00011342626
0.00011328603
0.00011315953
0.0001130468
0.0001129506
0.00011287072
0.0001128096
0.00011276665
0.00011274392
0.00011274041
0.0001127577
0.00011279428
0.00011285086
0.00011292681
0.00011302011
0.00011313097
0.00011325642
0.00011339608
0.00011347423
0.00011337142
0.00011328841
0.00011322793
0.00011318963
0.00011317511
0.0001131843
0.00011321718
0.00011327327
0.00011335163
0.00011345105
0.00011356967
0.00011370533
0.00011385547
0.00011401714
0.00011418702
0.00011436165
0.00011453715
0.00011470961
0.00011487503
0.00011480014
0.00011464814
0.00011448207
0.0001143056
0.00011412288
0.00011393825
0.00011375622
0.00011358133
0.00011341808
0.00011327095
0.00011314404
0.00011304128
0.00011296622
0.00011292198
0.00011291116
0.00011293599
0.00011299786
0.00011309778
0.00011323612
0.00011341259
0.00011322199
0.00011300314
0.00011280034
0.00011261769
0.00011245882
0.00011232684
0.00011222441
0.00011215357
0.0001121158
0.00011211202
0.00011214254
0.00011220717
0.00011230516
0.00011243544
0.00011259636
0.00011278604
0.00011300232
0.00011324283
0.00011350506
0.00011378637
0.00011408426
0.00011439601
0.00011471911
0.00011505113
0.00011538973
0.00011573269
0.00011607809
0.00011642395
0.00011676862
0.00011711055
0.00011744836
0.00011778081
0.00011810691
0.00011842562
0.00011873614
0.00011903777
0.00011932987
0.00011961186
0.00011988338
0.0001201439
0.00012039306
0.00012063054
0.000120856
0.00012106912
0.00012126311
0.00012145092
0.00012159853
0.0001160034
0.00011610883
0.00011612196
0.00011601497
0.00011589266
0.00011575739
0.00011560876
0.00011544946
0.00011527944
0.00011510171
0.00011491648
0.00011472699
0.00011453366
0.00011433987
0.00011414614
0.00011395592
0.00011376977
0.00011359109
0.0001134204
0.000113261
0.00011311326
0.0001129803
0.00011286226
0.000112762
0.00011267938
0.00011261691
0.00011257407
0.00011255294
0.00011255257
0.00011257454
0.00011261735
0.00011268169
0.00011276688
0.00011287085
0.00011299372
0.0001131324
0.00011328636
0.00011333577
0.00011322146
0.0001131286
0.0001130601
0.0001130158
0.00011299743
0.00011300504
0.0001130387
0.00011309798
0.00011318195
0.00011328935
0.00011341823
0.00011356632
0.00011373085
0.00011390863
0.00011409605
0.00011428934
0.0001144842
0.00011467634
0.00011486131
0.0001148097
0.00011464055
0.00011445594
0.00011425995
0.00011405717
0.00011385237
0.00011365051
0.00011345657
0.00011327548
0.00011311216
0.00011297105
0.00011285644
0.00011277217
0.00011272163
0.00011270762
0.00011273251
0.0001127978
0.0001129045
0.00011305297
0.00011324284
0.00011307032
0.00011282394
0.00011259454
0.00011238665
0.00011220424
0.00011205078
0.00011192914
0.00011184156
0.00011178967
0.00011177443
0.00011179618
0.00011185466
0.00011194902
0.00011207808
0.00011223998
0.00011243267
0.00011265377
0.0001129007
0.00011317072
0.00011346098
0.00011376876
0.00011409117
0.00011442553
0.00011476924
0.00011511984
0.000115475
0.00011583269
0.00011619088
0.00011654783
0.00011690197
0.00011725189
0.00011759631
0.00011793426
0.00011826468
0.0001185868
0.0001188999
0.00011920338
0.00011949668
0.00011977947
0.00012005123
0.00012031165
0.00012056043
0.00012079728
0.00012102192
0.00012122702
0.00012142669
0.00012158623
0.00011596414
0.0001160824
0.00011613546
0.00011602095
0.00011589015
0.00011574547
0.00011558661
0.00011541638
0.00011523482
0.00011504507
0.00011484748
0.00011464542
0.00011443944
0.00011423306
0.00011402696
0.00011382471
0.00011362702
0.00011343741
0.00011325655
0.00011308784
0.00011293178
0.0001127916
0.00011266756
0.00011256261
0.00011247668
0.00011241238
0.00011236925
0.00011234944
0.00011235201
0.0001123786
0.0001124277
0.00011249999
0.00011259476
0.00011270988
0.00011284537
0.00011299805
0.00011316723
0.00011318577
0.00011305913
0.0001129557
0.0001128786
0.00011282787
0.00011280538
0.00011281132
0.00011284586
0.00011290862
0.00011299869
0.00011311476
0.0001132548
0.0001134164
0.00011359659
0.00011379193
0.00011399849
0.00011421214
0.00011442817
0.00011464184
0.00011484822
0.00011482399
0.00011463616
0.00011443131
0.00011421395
0.00011398913
0.00011376212
0.00011353836
0.00011332333
0.00011312242
0.00011294099
0.00011278392
0.00011265586
0.00011256099
0.00011250296
0.00011248482
0.00011250911
0.00011257742
0.00011269079
0.00011284958
0.00011305333
0.00011291032
0.00011263448
0.00011237673
0.00011214206
0.00011193483
0.00011175883
0.00011161721
0.00011151241
0.00011144617
0.00011141952
0.00011143277
0.00011148561
0.00011157706
0.00011170575
0.00011186965
0.00011206646
0.00011229356
0.00011254811
0.00011282713
0.00011312754
0.00011344639
0.00011378057
0.00011412723
0.00011448359
0.00011484706
0.00011521518
0.00011558585
0.00011595695
0.00011632669
0.00011669345
0.0001170558
0.00011741247
0.00011776246
0.00011810474
0.00011843853
0.00011876315
0.00011907802
0.00011938261
0.00011967661
0.00011995955
0.00012023116
0.00012049115
0.00012073929
0.00012097533
0.00012119141
0.00012140281
0.0001215741
0.00011592172
0.0001160536
0.00011615385
0.00011603155
0.00011589186
0.0001157373
0.00011556765
0.00011538583
0.00011519203
0.00011498949
0.0001147787
0.00011456319
0.00011434365
0.00011412376
0.00011390434
0.00011368911
0.00011347892
0.00011327745
0.00011308549
0.00011290658
0.00011274136
0.00011259316
0.00011246237
0.00011235204
0.00011226221
0.00011219556
0.00011215172
0.0001121329
0.00011213823
0.00011216935
0.00011222481
0.00011230525
0.00011240995
0.00011253673
0.00011268552
0.00011285303
0.00011303841
0.00011302386
0.00011288397
0.00011276917
0.00011268281
0.00011262514
0.00011259821
0.00011260235
0.00011263783
0.00011270435
0.00011280101
0.00011292648
0.00011307864
0.00011325491
0.00011345214
0.00011366659
0.00011389404
0.00011412991
0.0001143691
0.00011460635
0.0001148362
0.00011484408
0.00011463589
0.00011440889
0.00011416811
0.00011391908
0.00011366762
0.0001134197
0.00011318133
0.00011295842
0.00011275682
0.00011258186
0.00011243861
0.00011233161
0.00011226483
0.00011224155
0.00011226452
0.00011233545
0.00011245541
0.00011262476
0.00011284293
0.00011274198
0.00011243456
0.00011214655
0.0001118834
0.00011164991
0.00011145022
0.00011128777
0.0001111652
0.00011108437
0.00011104635
0.00011105143
0.00011109919
0.0001111885
0.00011131779
0.00011148478
0.00011168691
0.00011192129
0.00011218478
0.00011247413
0.00011278598
0.00011311714
0.00011346427
0.00011382432
0.00011419434
0.00011457159
0.0001149535
0.00011533785
0.00011572246
0.0001161055
0.0001164853
0.00011686043
0.0001172296
0.00011759182
0.00011794607
0.00011829161
0.00011862778
0.00011895403
0.00011926986