/*--------------------------------*- C++ -*----------------------------------*\
| =========                 |                                                 |
| \\      /  F ield         | foam-extend: Open Source CFD                    |
|  \\    /   O peration     | Version:     4.1                                |
|   \\  /    A nd           | Web:         http://www.foam-extend.org         |
|    \\/     M anipulation  |                                                 |
\*---------------------------------------------------------------------------*/
FoamFile
{
    version     2.0;
    format      ascii;
    class       volScalarField;
    location    "0.15";
    object      rAU;
}
// * * * * * * * * * * * * * * * * * * * * * * * * * * * * * * * * * * * * * //

dimensions      [0 0 1 0 0 0 0];

internalField   nonuniform List<scalar> 
16796
(
3.9032517e-05
3.9019216e-05
3.9005156e-05
3.8988194e-05
3.8968432e-05
3.8946324e-05
3.8922038e-05
3.8896045e-05
3.8868542e-05
3.8840025e-05
3.8810713e-05
3.8781116e-05
3.8751464e-05
3.8722266e-05
3.8693734e-05
3.8666351e-05
3.8640292e-05
3.861599e-05
3.8593557e-05
3.8573354e-05
3.8555411e-05
3.8540003e-05
3.8527063e-05
3.8516764e-05
3.8508932e-05
3.8503632e-05
3.8500577e-05
3.8499722e-05
3.8499685e-05
3.8500731e-05
3.8503415e-05
3.8507686e-05
3.8513344e-05
3.8520037e-05
3.8527621e-05
3.853563e-05
3.854386e-05
3.8551797e-05
3.8559203e-05
3.8565549e-05
3.8570597e-05
3.8573842e-05
3.8573826e-05
3.8570078e-05
3.8563727e-05
3.8554726e-05
3.8543032e-05
3.8528648e-05
3.8511592e-05
3.8491932e-05
3.8469772e-05
3.8445255e-05
3.8418551e-05
3.8389879e-05
3.835946e-05
3.8327556e-05
3.8294442e-05
3.8260409e-05
3.8225755e-05
3.8190797e-05
3.8155832e-05
3.8121168e-05
3.8087104e-05
3.8053928e-05
3.8021914e-05
3.7991313e-05
3.7962373e-05
3.7935297e-05
3.7910278e-05
3.788748e-05
3.786704e-05
3.7849063e-05
3.7833641e-05
3.7820814e-05
3.7810613e-05
3.7803033e-05
3.7798046e-05
3.7795598e-05
3.7795603e-05
3.7795628e-05
3.779807e-05
3.780288e-05
3.7809962e-05
3.7819172e-05
3.783034e-05
3.7843278e-05
3.7857788e-05
3.7873662e-05
3.7890687e-05
3.7908645e-05
3.7927333e-05
3.7946529e-05
3.796603e-05
3.7985636e-05
3.8005157e-05
3.8024413e-05
3.8043234e-05
3.8061477e-05
3.807899e-05
3.8095653e-05
3.8111357e-05
3.8126009e-05
3.8139526e-05
3.8151856e-05
3.8162942e-05
3.8172753e-05
3.8181269e-05
3.8188481e-05
3.8194391e-05
3.8199022e-05
3.8202387e-05
3.820452e-05
3.820525e-05
3.8203947e-05
3.8201606e-05
3.8198296e-05
3.8194066e-05
3.8188986e-05
3.8183133e-05
3.8176596e-05
3.8169501e-05
3.8162124e-05
3.8154539e-05
3.8143689e-05
3.7829141e-05
3.7819679e-05
3.7810691e-05
3.7800078e-05
3.7787541e-05
3.7773393e-05
3.7757661e-05
3.7740752e-05
3.7722803e-05
3.7704283e-05
3.7685374e-05
3.7666568e-05
3.7648054e-05
3.7630317e-05
3.7613524e-05
3.7598129e-05
3.7584253e-05
3.7572294e-05
3.7562308e-05
3.7554621e-05
3.7549207e-05
3.7546308e-05
3.7545809e-05
3.7547859e-05
3.7552255e-05
3.7559058e-05
3.7564098e-05
3.75709e-05
3.7578894e-05
3.7588375e-05
3.7599743e-05
3.7612782e-05
3.7627163e-05
3.764244e-05
3.7658442e-05
3.7674694e-05
3.769104e-05
3.770703e-05
3.7722535e-05
3.7737144e-05
3.7750771e-05
3.7763059e-05
3.7772739e-05
3.7779358e-05
3.7779871e-05
3.7776943e-05
3.7771403e-05
3.7763276e-05
3.7752612e-05
3.773952e-05
3.7724143e-05
3.7706655e-05
3.7687258e-05
3.7666196e-05
3.7643711e-05
3.7620079e-05
3.7595586e-05
3.757053e-05
3.7545209e-05
3.7519937e-05
3.7495004e-05
3.7470709e-05
3.7447336e-05
3.7425156e-05
3.7404426e-05
3.7385375e-05
3.7368231e-05
3.7353173e-05
3.734037e-05
3.7329963e-05
3.7322066e-05
3.7316759e-05
3.7314113e-05
3.7314147e-05
3.7316869e-05
3.7322258e-05
3.7329646e-05
3.7335126e-05
3.7343186e-05
3.7351432e-05
3.7362119e-05
3.7375106e-05
3.7390273e-05
3.7407489e-05
3.7426615e-05
3.7447495e-05
3.7469966e-05
3.7493851e-05
3.7518967e-05
3.7545123e-05
3.7572142e-05
3.759982e-05
3.7627974e-05
3.7656419e-05
3.7684976e-05
3.7713474e-05
3.7741748e-05
3.7769657e-05
3.779705e-05
3.7823804e-05
3.7849805e-05
3.7874952e-05
3.7899155e-05
3.792235e-05
3.7944468e-05
3.7965465e-05
3.7985307e-05
3.8003972e-05
3.8021445e-05
3.8037735e-05
3.8052839e-05
3.8066777e-05
3.8079364e-05
3.808995e-05
3.80995e-05
3.810806e-05
3.8115671e-05
3.8122389e-05
3.812756e-05
3.8131302e-05
3.813457e-05
3.8137578e-05
3.8140286e-05
3.8140921e-05
3.7668947e-05
3.7653934e-05
3.7638362e-05
3.7622056e-05
3.7604927e-05
3.7587514e-05
3.7569914e-05
3.755255e-05
3.7535533e-05
3.7519282e-05
3.750391e-05
3.7489829e-05
3.7477133e-05
3.7466204e-05
3.7457096e-05
3.7450143e-05
3.7445339e-05
3.7442951e-05
3.7442901e-05
3.7445377e-05
3.745022e-05
3.7457534e-05
3.7467072e-05
3.7478856e-05
3.7489022e-05
3.7497967e-05
3.7504854e-05
3.7513196e-05
3.7523369e-05
3.7535382e-05
3.7548899e-05
3.7563815e-05
3.757988e-05
3.7596711e-05
3.7614178e-05
3.7631833e-05
3.7649531e-05
3.7666817e-05
3.768355e-05
3.7699292e-05
3.7713927e-05
3.7727062e-05
3.7738568e-05
3.7748201e-05
3.7748179e-05
3.7741013e-05
3.7731279e-05
3.7719096e-05
3.7704595e-05
3.7687954e-05
3.7669376e-05
3.7649091e-05
3.7627341e-05
3.7604405e-05
3.7580548e-05
3.7556062e-05
3.7531239e-05
3.7506373e-05
3.7481751e-05
3.745767e-05
3.7434397e-05
3.7412198e-05
3.7391326e-05
3.7372011e-05
3.7354468e-05
3.7338883e-05
3.7325437e-05
3.7314262e-05
3.7305482e-05
3.7299188e-05
3.729545e-05
3.7294302e-05
3.7295774e-05
3.7299845e-05
3.7306483e-05
3.7315634e-05
3.7319561e-05
3.7320904e-05
3.732482e-05
3.7331265e-05
3.7340199e-05
3.7351542e-05
3.7365197e-05
3.7381055e-05
3.7398985e-05
3.7418841e-05
3.7440466e-05
3.7463685e-05
3.7488317e-05
3.7514171e-05
3.7541063e-05
3.7568788e-05
3.7597153e-05
3.7625966e-05
3.7655037e-05
3.7684186e-05
3.7713233e-05
3.7742026e-05
3.7770402e-05
3.7798223e-05
3.7825362e-05
3.7851705e-05
3.7877148e-05
3.7901617e-05
3.7925029e-05
3.794733e-05
3.7968474e-05
3.7988432e-05
3.8007178e-05
3.8024715e-05
3.8041034e-05
3.8056149e-05
3.8070077e-05
3.8082844e-05
3.8094477e-05
3.8105023e-05
3.8114509e-05
3.8122981e-05
3.8129762e-05
3.8134948e-05
3.8139425e-05
3.8142449e-05
3.814465e-05
3.8144822e-05
3.7641711e-05
3.7623429e-05
3.7605215e-05
3.7586554e-05
3.756746e-05
3.7548525e-05
3.7529894e-05
3.751202e-05
3.7495023e-05
3.7479323e-05
3.7465013e-05
3.7452476e-05
3.7441767e-05
3.7433222e-05
3.7426842e-05
3.7422903e-05
3.7421339e-05
3.7422359e-05
3.7425822e-05
3.7431859e-05
3.7440254e-05
3.7451059e-05
3.7463979e-05
3.7474267e-05
3.7478728e-05
3.7482077e-05
3.7487479e-05
3.7495062e-05
3.7504604e-05
3.7516156e-05
3.7529423e-05
3.7544334e-05
3.7560667e-05
3.7578052e-05
3.7596363e-05
3.7615147e-05
3.7634244e-05
3.7653178e-05
3.7671778e-05
3.7689574e-05
3.7706409e-05
3.7721849e-05
3.7735723e-05
3.7747747e-05
3.7750667e-05
3.7740897e-05
3.7728504e-05
3.7713656e-05
3.7696529e-05
3.7677342e-05
3.7656338e-05
3.7633781e-05
3.7609947e-05
3.7585141e-05
3.7559654e-05
3.7533795e-05
3.7507871e-05
3.7482187e-05
3.7457036e-05
3.7432718e-05
3.7409495e-05
3.738763e-05
3.7367365e-05
3.7348922e-05
3.7332498e-05
3.7318266e-05
3.7306387e-05
3.7296975e-05
3.7290133e-05
3.7285931e-05
3.7284415e-05
3.7285599e-05
3.7289488e-05
3.7296037e-05
3.7305193e-05
3.7313513e-05
3.7310448e-05
3.7309415e-05
3.731105e-05
3.7315334e-05
3.7322242e-05
3.7331716e-05
3.7343671e-05
3.7358004e-05
3.7374591e-05
3.7393294e-05
3.7413954e-05
3.7436402e-05
3.7460453e-05
3.7485914e-05
3.7512598e-05
3.754029e-05
3.7568791e-05
3.7597898e-05
3.7627412e-05
3.7657138e-05
3.7686886e-05
3.771649e-05
3.7745773e-05
3.7774585e-05
3.7802783e-05
3.7830242e-05
3.7856844e-05
3.7882503e-05
3.7907125e-05
3.7930644e-05
3.7953006e-05
3.797417e-05
3.7994105e-05
3.8012805e-05
3.8030256e-05
3.8046464e-05
3.8061445e-05
3.8075218e-05
3.8087807e-05
3.8099254e-05
3.8109581e-05
3.8118825e-05
3.8127019e-05
3.8134189e-05
3.8140326e-05
3.8144585e-05
3.8147586e-05
3.8147276e-05
3.7632577e-05
3.7612192e-05
3.7592583e-05
3.7572646e-05
3.7552461e-05
3.7532616e-05
3.7513284e-05
3.7494937e-05
3.7477712e-05
3.7462034e-05
3.7447998e-05
3.7435981e-05
3.742603e-05
3.7418467e-05
3.7413277e-05
3.7410717e-05
3.7410703e-05
3.7413421e-05
3.7418708e-05
3.7426673e-05
3.7437073e-05
3.7449936e-05
3.746301e-05
3.7464448e-05
3.7463821e-05
3.7465559e-05
3.7469554e-05
3.747597e-05
3.7484614e-05
3.7495559e-05
3.7508524e-05
3.7523447e-05
3.7540111e-05
3.7558147e-05
3.7577423e-05
3.7597474e-05
3.7618123e-05
3.7638873e-05
3.7659526e-05
3.7679582e-05
3.7698849e-05
3.7716857e-05
3.7733394e-05
3.7748131e-05
3.7754399e-05
3.7742213e-05
3.7727337e-05
3.770998e-05
3.7690354e-05
3.7668718e-05
3.7645349e-05
3.7620542e-05
3.7594604e-05
3.7567868e-05
3.7540646e-05
3.7513271e-05
3.7486065e-05
3.7459349e-05
3.7433425e-05
3.7408601e-05
3.7385143e-05
3.7363317e-05
3.7343361e-05
3.7325492e-05
3.73099e-05
3.7296748e-05
3.7286184e-05
3.7278306e-05
3.72732e-05
3.7270918e-05
3.7271485e-05
3.7274893e-05
3.7281123e-05
3.7290106e-05
3.7301766e-05
3.7305276e-05
3.7299147e-05
3.729575e-05
3.7295136e-05
3.7297297e-05
3.7302226e-05
3.7309876e-05
3.7320175e-05
3.7333032e-05
3.7348332e-05
3.7365938e-05
3.7385698e-05
3.7407441e-05
3.7430982e-05
3.7456122e-05
3.7482669e-05
3.7510401e-05
3.7539109e-05
3.756858e-05
3.7598603e-05
3.762897e-05
3.765948e-05
3.7689951e-05
3.7720193e-05
3.7750041e-05
3.7779342e-05
3.7807954e-05
3.7835748e-05
3.7862627e-05
3.7888484e-05
3.7913244e-05
3.7936844e-05
3.7959233e-05
3.7980373e-05
3.8000253e-05
3.801885e-05
3.8036169e-05
3.8052218e-05
3.8067015e-05
3.8080581e-05
3.8092953e-05
3.8104151e-05
3.811421e-05
3.8123156e-05
3.8131009e-05
3.8137756e-05
3.814338e-05
3.814783e-05
3.8148014e-05
3.7625511e-05
3.7603126e-05
3.758202e-05
3.756078e-05
3.7539503e-05
3.7518751e-05
3.7498703e-05
3.7479834e-05
3.7462287e-05
3.7446492e-05
3.7432546e-05
3.7420829e-05
3.7411386e-05
3.7404537e-05
3.7400263e-05
3.7398814e-05
3.7400097e-05
3.7404286e-05
3.7411205e-05
3.7420944e-05
3.7433241e-05
3.7448099e-05
3.7455186e-05
3.7450427e-05
3.7447953e-05
3.744804e-05
3.7450611e-05
3.7455858e-05
3.7463611e-05
3.7473966e-05
3.7486656e-05
3.7501634e-05
3.7518689e-05
3.7537454e-05
3.7557788e-05
3.7579213e-05
3.7601531e-05
3.7624219e-05
3.7647047e-05
3.7669478e-05
3.7691283e-05
3.771195e-05
3.7731226e-05
3.7748744e-05
3.7758741e-05
3.7744046e-05
3.7726592e-05
3.7706626e-05
3.7684399e-05
3.7660207e-05
3.7634362e-05
3.7607192e-05
3.7579035e-05
3.7550251e-05
3.7521177e-05
3.7492167e-05
3.7463563e-05
3.7435699e-05
3.740889e-05
3.7383453e-05
3.735966e-05
3.7337778e-05
3.7318045e-05
3.7300673e-05
3.7285848e-05
3.7273719e-05
3.7264425e-05
3.7258049e-05
3.7254658e-05
3.7254285e-05
3.7256935e-05
3.7262575e-05
3.7271165e-05
3.7282609e-05
3.7296805e-05
3.7294888e-05
3.7286255e-05
3.7280459e-05
3.7277569e-05
3.7277597e-05
3.728055e-05
3.7286396e-05
3.7295075e-05
3.7306503e-05
3.732057e-05
3.7337145e-05
3.7356075e-05
3.7377189e-05
3.7400299e-05
3.7425201e-05
3.7451695e-05
3.7479552e-05
3.7508552e-05
3.7538469e-05
3.756908e-05
3.7600165e-05
3.7631507e-05
3.7662912e-05
3.7694173e-05
3.7725114e-05
3.7755565e-05
3.7785373e-05
3.7814397e-05
3.7842525e-05
3.7869641e-05
3.7895659e-05
3.7920508e-05
3.7944128e-05
3.7966473e-05
3.7987526e-05
3.8007261e-05
3.8025675e-05
3.8042775e-05
3.8058575e-05
3.8073092e-05
3.8086363e-05
3.8098405e-05
3.8109251e-05
3.8118927e-05
3.8127453e-05
3.8134826e-05
3.8141047e-05
3.8146062e-05
3.8147173e-05
3.7618907e-05
3.7594712e-05
3.7572077e-05
3.7549456e-05
3.7526972e-05
3.7505176e-05
3.7484256e-05
3.7464695e-05
3.7446648e-05
3.743055e-05
3.7416508e-05
3.7404905e-05
3.7395788e-05
3.7389482e-05
3.7385963e-05
3.7385481e-05
3.7387936e-05
3.7393494e-05
3.7401965e-05
3.7413426e-05
3.7427595e-05
3.744445e-05
3.7441438e-05
3.7434546e-05
3.7430125e-05
3.7428487e-05
3.7429589e-05
3.7433652e-05
3.7440533e-05
3.7450348e-05
3.7462843e-05
3.7477981e-05
3.7495554e-05
3.7515188e-05
3.7536735e-05
3.7559698e-05
3.7583856e-05
3.7608658e-05
3.7633841e-05
3.765883e-05
3.7683355e-05
3.7706863e-05
3.7729054e-05
3.7749516e-05
3.7763747e-05
3.7746492e-05
3.7726391e-05
3.7703728e-05
3.7678798e-05
3.7651933e-05
3.7623485e-05
3.7593817e-05
3.75633e-05
3.7532321e-05
3.7501248e-05
3.7470454e-05
3.7440305e-05
3.7411149e-05
3.7383317e-05
3.7357134e-05
3.733288e-05
3.7310825e-05
3.7291207e-05
3.7274237e-05
3.7260093e-05
3.7248917e-05
3.7240834e-05
3.7235914e-05
3.7234208e-05
3.7235729e-05
3.724046e-05
3.7248347e-05
3.7259323e-05
3.727327e-05
3.7290058e-05
3.728272e-05
3.7271559e-05
3.7263352e-05
3.7258188e-05
3.7256094e-05
3.7257093e-05
3.7261166e-05
3.7268262e-05
3.7278307e-05
3.7291196e-05
3.7306801e-05
3.7324971e-05
3.7345531e-05
3.736829e-05
3.7393038e-05
3.7419567e-05
3.7447636e-05
3.7477014e-05
3.7507464e-05
3.7538748e-05
3.7570633e-05
3.7602885e-05
3.7635297e-05
3.7667648e-05
3.7699745e-05
3.7731406e-05
3.7762464e-05
3.7792765e-05
3.7822187e-05
3.7850602e-05
3.7877914e-05
3.7904041e-05
3.792892e-05
3.7952495e-05
3.7974744e-05
3.7995634e-05
3.8015162e-05
3.8033329e-05
3.8050147e-05
3.8065631e-05
3.8079816e-05
3.8092716e-05
3.8104365e-05
3.8114788e-05
3.8124005e-05
3.8132021e-05
3.8138848e-05
3.8144451e-05
3.8146246e-05
3.7612041e-05
3.758587e-05
3.7561478e-05
3.753729e-05
3.751343e-05
3.7490443e-05
3.746852e-05
3.7448152e-05
3.7429499e-05
3.7413006e-05
3.7398785e-05
3.7387226e-05
3.7378381e-05
3.7372576e-05
3.736979e-05
3.7370271e-05
3.7373915e-05
3.7380879e-05
3.7390963e-05
3.7404228e-05
3.742037e-05
3.7436871e-05
3.7426432e-05
3.7417345e-05
3.7410925e-05
3.7407522e-05
3.7407129e-05
3.7409998e-05
3.7416014e-05
3.7425312e-05
3.7437655e-05
3.7453015e-05
3.7471187e-05
3.7491794e-05
3.7514672e-05
3.7539307e-05
3.756545e-05
3.7592519e-05
3.7620213e-05
3.7647916e-05
3.7675313e-05
3.7701804e-05
3.7727045e-05
3.7750575e-05
3.776956e-05
3.7749636e-05
3.7726764e-05
3.7701274e-05
3.7673501e-05
3.7643822e-05
3.7612624e-05
3.758031e-05
3.7547282e-05
3.7513962e-05
3.7480742e-05
3.7448024e-05
3.7416192e-05
3.7385614e-05
3.7356635e-05
3.7329591e-05
3.730477e-05
3.7282446e-05
3.726286e-05
3.7246219e-05
3.7232695e-05
3.7222424e-05
3.7215518e-05
3.7212032e-05
3.7212e-05
3.7215417e-05
3.7222243e-05
3.7232402e-05
3.7245801e-05
3.7262297e-05
3.7281732e-05
3.7268953e-05
3.7255209e-05
3.724455e-05
3.7237084e-05
3.7232856e-05
3.7231905e-05
3.723422e-05
3.7239765e-05
3.7248469e-05
3.7260233e-05
3.7274932e-05
3.7292411e-05
3.7312495e-05
3.7334987e-05
3.7359667e-05
3.738632e-05
3.7414692e-05
3.7444541e-05
3.7475614e-05
3.7507659e-05
3.7540427e-05
3.757367e-05
3.7607164e-05
3.7640672e-05
3.7673988e-05
3.7706915e-05
3.7739272e-05
3.7770893e-05
3.7801643e-05
3.7831383e-05
3.786001e-05
3.7887433e-05
3.7913579e-05
3.7938388e-05
3.7961832e-05
3.7983875e-05
3.8004509e-05
3.8023734e-05
3.8041559e-05
3.8057998e-05
3.8073086e-05
3.8086839e-05
3.809929e-05
3.8110467e-05
3.8120396e-05
3.8129093e-05
3.8136583e-05
3.8142853e-05
3.8145391e-05
3.7605225e-05
3.7577056e-05
3.7550798e-05
3.7524903e-05
3.7499506e-05
3.7475159e-05
3.7452065e-05
3.7430722e-05
3.7411301e-05
3.7394258e-05
3.7379714e-05
3.7368065e-05
3.7359373e-05
3.7353965e-05
3.7351826e-05
3.7353202e-05
3.7357985e-05
3.7366328e-05
3.737802e-05
3.7393107e-05
3.7411268e-05
3.7423932e-05
3.7409751e-05
3.7398335e-05
3.7389805e-05
3.7384552e-05
3.7382606e-05
3.7384251e-05
3.7389402e-05
3.7398214e-05
3.7410466e-05
3.7426139e-05
3.7445026e-05
3.7466742e-05
3.749111e-05
3.7517593e-05
3.7545911e-05
3.7575446e-05
3.7605857e-05
3.7636482e-05
3.766696e-05
3.7696639e-05
3.7725125e-05
3.7751907e-05
3.7775807e-05
3.7753567e-05
3.7727809e-05
3.769936e-05
3.7668603e-05
3.7635955e-05
3.7601848e-05
3.7566722e-05
3.7531018e-05
3.7495188e-05
3.7459657e-05
3.7424853e-05
3.7391181e-05
3.7359031e-05
3.7328762e-05
3.7300725e-05
3.7275215e-05
3.7252513e-05
3.723286e-05
3.7216463e-05
3.720349e-05
3.7194067e-05
3.7188297e-05
3.718622e-05
3.7187853e-05
3.7193171e-05
3.7202113e-05
3.721458e-05
3.7230452e-05
3.7249559e-05
3.7271663e-05
3.7253485e-05
3.7237109e-05
3.7223963e-05
3.7214176e-05
3.7207808e-05
3.720491e-05
3.7205488e-05
3.7209511e-05
3.7216917e-05
3.7227609e-05
3.7241464e-05
3.7258325e-05
3.7278014e-05
3.7300324e-05
3.7325029e-05
3.7351901e-05
3.7380675e-05
3.7411094e-05
3.7442889e-05
3.7475792e-05
3.7509538e-05
3.7543862e-05
3.7578524e-05
3.7613272e-05
3.7647882e-05
3.7682144e-05
3.7715864e-05
3.7748861e-05
3.778099e-05
3.7812102e-05
3.7842083e-05
3.7870835e-05
3.7898277e-05
3.7924345e-05
3.7949005e-05
3.7972216e-05
3.7993968e-05
3.8014259e-05
3.8033097e-05
3.8050495e-05
3.8066487e-05
3.808109e-05
3.809434e-05
3.8106266e-05
3.8116902e-05
3.8126272e-05
3.8134417e-05
3.8141347e-05
3.8144602e-05
3.7598167e-05
3.75678e-05
3.7539474e-05
3.7511693e-05
3.748459e-05
3.7458725e-05
3.743431e-05
3.7411855e-05
3.7391541e-05
3.7373834e-05
3.7358864e-05
3.734704e-05
3.7338429e-05
3.7333366e-05
3.7331839e-05
3.7334096e-05
3.734003e-05
3.7349786e-05
3.7363146e-05
3.7380141e-05
3.740043e-05
3.7408467e-05
3.7391659e-05
3.7377801e-05
3.7367063e-05
3.7359878e-05
3.7356316e-05
3.7356699e-05
3.736097e-05
3.7369308e-05
3.738151e-05
3.7397561e-05
3.7417258e-05
3.7440205e-05
3.7466207e-05
3.74947e-05
3.7525373e-05
3.7557566e-05
3.7590894e-05
3.7624644e-05
3.7658403e-05
3.7691468e-05
3.7723387e-05
3.7753598e-05
3.7781618e-05
3.7758377e-05
3.7729581e-05
3.7698013e-05
3.76641e-05
3.762831e-05
3.7591115e-05
3.7553e-05
3.7514441e-05
3.7475927e-05
3.7437915e-05
3.7400859e-05
3.736519e-05
3.7331319e-05
3.7299622e-05
3.7270463e-05
3.7244148e-05
3.7220964e-05
3.7201155e-05
3.7184927e-05
3.7172445e-05
3.7163826e-05
3.7159162e-05
3.7158479e-05
3.7161778e-05
3.7169014e-05
3.7180103e-05
3.719492e-05
3.7213322e-05
3.7235109e-05
3.7258651e-05
3.7236351e-05
3.7217275e-05
3.7201592e-05
3.7189446e-05
3.7180918e-05
3.7176072e-05
3.7174923e-05
3.717745e-05
3.7183597e-05
3.719327e-05
3.7206344e-05
3.7222662e-05
3.7242036e-05
3.7264255e-05
3.7289081e-05
3.7316272e-05
3.7345549e-05
3.7376639e-05
3.7409258e-05
3.744312e-05
3.747794e-05
3.7513438e-05
3.7549354e-05
3.758542e-05
3.7621397e-05
3.765706e-05
3.7692199e-05
3.7726622e-05
3.7760173e-05
3.7792691e-05
3.7824055e-05
3.7854158e-05
3.7882913e-05
3.791025e-05
3.7936131e-05
3.7960513e-05
3.7983384e-05
3.8004739e-05
3.8024587e-05
3.8042941e-05
3.8059836e-05
3.8075292e-05
3.8089344e-05
3.8102031e-05
3.8113388e-05
3.8123451e-05
3.8132274e-05
3.8139885e-05
3.8143854e-05
3.759107e-05
3.7558398e-05
3.7527857e-05
3.7498025e-05
3.746904e-05
3.7441479e-05
3.7415569e-05
3.7391831e-05
3.7370461e-05
3.7351937e-05
3.7336401e-05
3.7324274e-05
3.7315632e-05
3.7310819e-05
3.7309829e-05
3.7312915e-05
3.7319968e-05
3.7331131e-05
3.7346179e-05
3.7365128e-05
3.7387623e-05
3.7391481e-05
3.7371866e-05
3.7355405e-05
3.7342319e-05
3.7333087e-05
3.7327825e-05
3.7326892e-05
3.7330262e-05
3.733814e-05
3.7350339e-05
3.7366853e-05
3.7387474e-05
3.7411796e-05
3.7439603e-05
3.7470302e-05
3.7503544e-05
3.7538624e-05
3.7575107e-05
3.7612227e-05
3.7649512e-05
3.7686201e-05
3.7721785e-05
3.7755643e-05
3.7787237e-05
3.7764136e-05
3.7732142e-05
3.769728e-05
3.766003e-05
3.7620905e-05
3.758043e-05
3.7539128e-05
3.7497519e-05
3.745613e-05
3.7415449e-05
3.7375961e-05
3.7338124e-05
3.7302369e-05
3.7269093e-05
3.7238673e-05
3.7211428e-05
3.7187651e-05
3.7167592e-05
3.7151455e-05
3.7139401e-05
3.7131541e-05
3.7127956e-05
3.7128659e-05
3.7133632e-05
3.714281e-05
3.7156086e-05
3.7173311e-05
3.7194314e-05
3.7218865e-05
3.724271e-05
3.7217485e-05
3.719564e-05
3.7177365e-05
3.7162825e-05
3.7152116e-05
3.7145315e-05
3.714245e-05
3.7143506e-05
3.7148433e-05
3.7157139e-05
3.7169497e-05
3.7185347e-05
3.7204494e-05
3.7226716e-05
3.7251763e-05
3.727938e-05
3.7309271e-05
3.7341145e-05
3.73747e-05
3.740963e-05
3.7445632e-05
3.7482406e-05
3.7519674e-05
3.7557151e-05
3.7594581e-05
3.7631721e-05
3.7668351e-05
3.7704263e-05
3.7739291e-05
3.7773265e-05
3.7806052e-05
3.783754e-05
3.7867636e-05
3.7896264e-05
3.7923384e-05
3.7948949e-05
3.7972945e-05
3.7995368e-05
3.8016225e-05
3.8035531e-05
3.8053322e-05
3.8069621e-05
3.8084467e-05
3.8097902e-05
3.810997e-05
3.8120716e-05
3.8130205e-05
3.8138484e-05
3.8143142e-05
3.758374e-05
3.7548556e-05
3.7515602e-05
3.7483532e-05
3.7452487e-05
3.7423059e-05
3.7395488e-05
3.7370312e-05
3.734774e-05
3.7328263e-05
3.731204e-05
3.7299503e-05
3.729074e-05
3.7286107e-05
3.7285606e-05
3.7289495e-05
3.7297669e-05
3.7310269e-05
3.7327063e-05
3.7348058e-05
3.7372877e-05
3.7373094e-05
3.7350495e-05
3.7331269e-05
3.7315689e-05
3.7304288e-05
3.7297227e-05
3.7294908e-05
3.7297341e-05
3.7304757e-05
3.7316988e-05
3.7334034e-05
3.7355685e-05
3.7381523e-05
3.7411305e-05
3.7444408e-05
3.7480437e-05
3.7518642e-05
3.7558528e-05
3.7599271e-05
3.7640337e-05
3.76809e-05
3.772039e-05
3.7758123e-05
3.7793504e-05
3.7770955e-05
3.7735573e-05
3.7697216e-05
3.7656419e-05
3.7613749e-05
3.7569778e-05
3.7525078e-05
3.748021e-05
3.7435741e-05
3.7392193e-05
3.7350085e-05
3.73099e-05
3.7272095e-05
3.7237086e-05
3.7205265e-05
3.7176964e-05
3.7152486e-05
3.7132082e-05
3.711596e-05
3.7104277e-05
3.7097137e-05
3.7094611e-05
3.7096696e-05
3.7103358e-05
3.7114511e-05
3.7130024e-05
3.7149722e-05
3.7173404e-05
3.7200813e-05
3.7225112e-05
3.7196861e-05
3.7172164e-05
3.7151233e-05
3.7134252e-05
3.7121332e-05
3.7112565e-05
3.7107989e-05
3.7107597e-05
3.7111342e-05
3.7119134e-05
3.7130843e-05
3.7146304e-05
3.7165313e-05
3.7187637e-05
3.7213013e-05
3.7241167e-05
3.7271787e-05
3.7304562e-05
3.7339168e-05
3.7375281e-05
3.7412576e-05
3.7450731e-05
3.7489451e-05
3.7528431e-05
3.7567397e-05
3.7606091e-05
3.7644278e-05
3.7681739e-05
3.7718294e-05
3.7753765e-05
3.7788011e-05
3.7820911e-05
3.7852369e-05
3.7882304e-05
3.7910673e-05
3.7937428e-05
3.7962553e-05
3.7986044e-05
3.800791e-05
3.8028167e-05
3.8046854e-05
3.8063995e-05
3.8079635e-05
3.809382e-05
3.8106601e-05
3.8118032e-05
3.8128188e-05
3.8137129e-05
3.8142459e-05
3.7576289e-05
3.7538437e-05
3.7502892e-05
3.7468398e-05
3.7435099e-05
3.7403614e-05
3.7374196e-05
3.7347402e-05
3.7323456e-05
3.7302867e-05
3.7285809e-05
3.727273e-05
3.7263732e-05
3.7259184e-05
3.7259099e-05
3.7263742e-05
3.7273015e-05
3.7287058e-05
3.7305636e-05
3.7328745e-05
3.7355994e-05
3.735314e-05
3.7327338e-05
3.7305144e-05
3.7286892e-05
3.7273169e-05
3.726419e-05
3.7260402e-05
3.7261853e-05
3.7268804e-05
3.7281104e-05
3.7298762e-05
3.7321564e-05
3.7349075e-05
3.7381027e-05
3.7416757e-05
3.7455824e-05
3.749742e-05
3.7540992e-05
3.7585648e-05
3.7630786e-05
3.7675511e-05
3.7719183e-05
3.7761054e-05
3.7800464e-05
3.7778908e-05
3.773993e-05
3.7697859e-05
3.7653288e-05
3.760684e-05
3.755914e-05
3.751081e-05
3.7462456e-05
3.7414685e-05
3.7368059e-05
3.7323127e-05
3.7280404e-05
3.7240371e-05
3.7203463e-05
3.7170094e-05
3.7140606e-05
3.7115311e-05
3.7094468e-05
3.7078286e-05
3.7066917e-05
3.7060462e-05
3.7058978e-05
3.7062451e-05
3.7070826e-05
3.7083997e-05
3.7101809e-05
3.7124058e-05
3.7150515e-05
3.718089e-05
3.7205806e-05
3.7174423e-05
3.7146784e-05
3.7123126e-05
3.710365e-05
3.7088486e-05
3.7077739e-05
3.7071455e-05
3.7069635e-05
3.7072236e-05
3.7079167e-05
3.7090297e-05
3.7105451e-05
3.7124417e-05
3.7146949e-05
3.7172766e-05
3.7201578e-05
3.7233052e-05
3.7266854e-05
3.730264e-05
3.7340061e-05
3.737877e-05
3.7418424e-05
3.7458706e-05
3.7499291e-05
3.7539888e-05
3.7580223e-05
3.7620045e-05
3.7659123e-05
3.7697265e-05
3.7734283e-05
3.7770029e-05
3.7804377e-05
3.7837224e-05
3.7868487e-05
3.7898119e-05
3.7926071e-05
3.7952329e-05
3.7976887e-05
3.7999758e-05
3.8020958e-05
3.804053e-05
3.8058502e-05
3.8074923e-05
3.8089845e-05
3.8103327e-05
3.8115429e-05
3.8126238e-05
3.8135824e-05
3.8141804e-05
3.7568592e-05
3.7527854e-05
3.7489509e-05
3.745239e-05
3.7416644e-05
3.738291e-05
3.7351462e-05
3.7322873e-05
3.7297388e-05
3.7275531e-05
3.7257497e-05
3.7243749e-05
3.7234409e-05
3.7229859e-05
3.7230127e-05
3.723549e-05
3.7245855e-05
3.7261368e-05
3.728179e-05
3.7307111e-05
3.7336923e-05
3.7331663e-05
3.7302427e-05
3.727705e-05
3.7255928e-05
3.7239714e-05
3.7228679e-05
3.7223319e-05
3.7223726e-05
3.7230193e-05
3.7242589e-05
3.7260933e-05
3.7285005e-05
3.7314353e-05
3.7348676e-05
3.738727e-05
3.742964e-05
3.7474917e-05
3.7522478e-05
3.757136e-05
3.7620883e-05
3.7670078e-05
3.7718231e-05
3.7764522e-05
3.7808224e-05
3.7788118e-05
3.7745307e-05
3.7699274e-05
3.7650676e-05
3.7600195e-05
3.7548512e-05
3.7496301e-05
3.7444216e-05
3.7392908e-05
3.7342977e-05
3.7295007e-05
3.7249545e-05
3.7207096e-05
3.716812e-05
3.7133048e-05
3.7102238e-05
3.7076011e-05
3.7054633e-05
3.7038314e-05
3.7027206e-05
3.7021402e-05
3.7020951e-05
3.7025821e-05
3.7035941e-05
3.7051182e-05
3.7071363e-05
3.7096251e-05
3.7125588e-05
3.7159048e-05
3.7184746e-05
3.715011e-05
3.711943e-05
3.7092964e-05
3.7070936e-05
3.7053489e-05
3.7040741e-05
3.7032749e-05
3.7029521e-05
3.7031016e-05
3.7037142e-05
3.7047763e-05
3.7062697e-05
3.708172e-05
3.7104571e-05
3.713095e-05
3.7160547e-05
3.7193006e-05
3.722797e-05
3.7265069e-05
3.7303929e-05
3.734418e-05
3.7385454e-05
3.7427412e-05
3.7469708e-05
3.7512034e-05
3.7554096e-05
3.759563e-05
3.7636391e-05
3.7676177e-05
3.7714791e-05
3.7752077e-05
3.7787904e-05
3.7822164e-05
3.7854772e-05
3.7885679e-05
3.7914836e-05
3.794223e-05
3.7967856e-05
3.7991728e-05
3.8013867e-05
3.8034319e-05
3.8053116e-05
3.8070311e-05
3.8085963e-05
3.8100136e-05
3.81129e-05
3.812435e-05
3.8134566e-05
3.8141174e-05
3.7560705e-05
3.7516889e-05
3.7475537e-05
3.7435584e-05
3.7397179e-05
3.7360991e-05
3.7327311e-05
3.7296732e-05
3.7269521e-05
3.7246224e-05
3.7227053e-05
3.7212494e-05
3.7202685e-05
3.719803e-05
3.7198572e-05
3.7204602e-05
3.7216038e-05
3.7233034e-05
3.725535e-05
3.728297e-05
3.7315474e-05
3.7308542e-05
3.72756e-05
3.7246786e-05
3.7222567e-05
3.7203664e-05
3.7190411e-05
3.718336e-05
3.718265e-05
3.7188609e-05
3.7201131e-05
3.722024e-05
3.7245714e-05
3.7277077e-05
3.7313996e-05
3.7355716e-05
3.7401685e-05
3.7450963e-05
3.7502852e-05
3.7556307e-05
3.7610566e-05
3.7664576e-05
3.7717543e-05
3.7768568e-05
3.7816855e-05
3.7798681e-05
3.7751774e-05
3.7701508e-05
3.7648606e-05
3.7593813e-05
3.753787e-05
3.7481506e-05
3.7425427e-05
3.7370327e-05
3.7316849e-05
3.7265613e-05
3.7217197e-05
3.7172136e-05
3.7130912e-05
3.7093976e-05
3.7061702e-05
3.7034423e-05
3.7012412e-05
3.6995882e-05
3.6984983e-05
3.6979803e-05
3.6980379e-05
3.6986666e-05
3.6998572e-05
3.7015946e-05
3.703858e-05
3.7066211e-05
3.7098547e-05
3.7135229e-05
3.716188e-05
3.7123861e-05
3.7090031e-05
3.706067e-05
3.7036022e-05
3.7016247e-05
3.7001476e-05
3.6991774e-05
3.6987156e-05
3.6987582e-05
3.699296e-05
3.7003147e-05
3.7017953e-05
3.7037139e-05
3.7060427e-05
3.7087497e-05
3.7118017e-05
3.7151603e-05
3.7187874e-05
3.7226432e-05
3.7266875e-05
3.7308806e-05
3.7351832e-05
3.739559e-05
3.7439714e-05
3.7483872e-05
3.7527757e-05
3.7571087e-05
3.7613605e-05
3.7655098e-05
3.769536e-05
3.773423e-05
3.7771569e-05
3.7807269e-05
3.784124e-05
3.7873434e-05
3.7903802e-05
3.7932331e-05
3.7959021e-05
3.7983888e-05
3.8006955e-05
3.8028274e-05
3.8047881e-05
3.8065835e-05
3.80822e-05
3.8097049e-05
3.8110458e-05
3.8122531e-05
3.8133357e-05
3.8140569e-05
3.7552549e-05
3.7505422e-05
3.7460836e-05
3.7417827e-05
3.7376549e-05
3.7337694e-05
3.7301576e-05
3.7268811e-05
3.7239687e-05
3.7214771e-05
3.7194301e-05
3.7178782e-05
3.7168378e-05
3.7163513e-05
3.716425e-05
3.7170899e-05
3.7183391e-05
3.7201891e-05
3.7226163e-05
3.7256188e-05
3.7291534e-05
3.7283773e-05
3.7246832e-05
3.7214304e-05
3.7186734e-05
3.7164918e-05
3.714926e-05
3.7140376e-05
3.7138457e-05
3.7143871e-05
3.7156537e-05
3.7176491e-05
3.7203501e-05
3.723707e-05
3.7276825e-05
3.7321957e-05
3.7371846e-05
3.7425476e-05
3.7482061e-05
3.754047e-05
3.7599846e-05
3.7659048e-05
3.771719e-05
3.7773293e-05
3.7826482e-05
3.781073e-05
3.7759435e-05
3.7704633e-05
3.764712e-05
3.758771e-05
3.7527207e-05
3.7466398e-05
3.740604e-05
3.7346878e-05
3.7289595e-05
3.7234851e-05
3.7183256e-05
3.7135374e-05
3.7091714e-05
3.7052746e-05
3.7018862e-05
3.6990407e-05
3.6967662e-05
3.6950845e-05
3.6940105e-05
3.6935523e-05
3.6937126e-05
3.6944854e-05
3.6958596e-05
3.6978175e-05
3.7003355e-05
3.7033843e-05
3.7069311e-05
3.7109363e-05
3.7137138e-05
3.7095594e-05
3.7058495e-05
3.7026145e-05
3.6998805e-05
3.6976652e-05
3.695983e-05
3.6948414e-05
3.6942422e-05
3.6941819e-05
3.6946508e-05
3.6956341e-05
3.6971115e-05
3.6990577e-05
3.7014429e-05
3.7042329e-05
3.7073918e-05
3.7108785e-05
3.7146517e-05
3.7186688e-05
3.7228865e-05
3.7272623e-05
3.7317541e-05
3.736323e-05
3.7409301e-05
3.7455401e-05
3.7501206e-05
3.7546418e-05
3.7590767e-05
3.763403e-05
3.7675993e-05
3.7716488e-05
3.7755373e-05
3.7792536e-05
3.7827887e-05
3.7861379e-05
3.7892963e-05
3.7922629e-05
3.7950379e-05
3.7976233e-05
3.8000219e-05
3.8022394e-05
3.8042798e-05
3.8061497e-05
3.8078561e-05
3.8094069e-05
3.8108105e-05
3.8120781e-05
3.8132196e-05
3.8139989e-05
3.7544148e-05
3.7493484e-05
3.7445432e-05
3.7399135e-05
3.735475e-05
3.7313002e-05
3.7274225e-05
3.7239059e-05
3.7207816e-05
3.718109e-05
3.715914e-05
3.71425e-05
3.7131359e-05
3.7126164e-05
3.7127004e-05
3.713421e-05
3.7147733e-05
3.7167748e-05
3.7194031e-05
3.7226562e-05
3.72649e-05
3.725726e-05
3.7215986e-05
3.7179427e-05
3.7148216e-05
3.7123232e-05
3.7104958e-05
3.7094078e-05
3.7090842e-05
3.7095665e-05
3.7108492e-05
3.7129373e-05
3.7158066e-05
3.7194051e-05
3.7236907e-05
3.7285765e-05
3.7339929e-05
3.7398297e-05
3.7459989e-05
3.7523771e-05
3.7588687e-05
3.7653495e-05
3.7717214e-05
3.7778772e-05
3.7837213e-05
3.7824383e-05
3.7768375e-05
3.7708705e-05
3.7646248e-05
3.7581889e-05
3.75165e-05
3.7450929e-05
3.738599e-05
3.7322475e-05
3.7261113e-05
3.7202602e-05
3.7147588e-05
3.7096666e-05
3.7050371e-05
3.7009195e-05
3.6973548e-05
3.6943789e-05
3.6920209e-05
3.6903029e-05
3.6892399e-05
3.6888394e-05
3.6891032e-05
3.6900236e-05
3.6915873e-05
3.6937742e-05
3.6965577e-05
3.6999052e-05
3.7037801e-05
3.708139e-05
3.7110456e-05
3.7065236e-05
3.702474e-05
3.6989295e-05
3.6959183e-05
3.6934597e-05
3.6915693e-05
3.6902555e-05
3.6895206e-05
3.6893613e-05
3.6897675e-05
3.6907236e-05
3.6922082e-05
3.6941941e-05
3.6966493e-05
3.6995372e-05
3.7028188e-05
3.70645e-05
3.7103862e-05
3.7145813e-05
3.718989e-05
3.7235633e-05
3.7282593e-05
3.7330354e-05
3.73785e-05
3.742666e-05
3.7474489e-05
3.7521673e-05
3.7567932e-05
3.7613031e-05
3.7656749e-05
3.7698913e-05
3.7739377e-05
3.7778028e-05
3.7814775e-05
3.7849573e-05
3.7882375e-05
3.7913174e-05
3.7941976e-05
3.7968806e-05
3.7993698e-05