/*--------------------------------*- C++ -*----------------------------------*\
| =========                 |                                                 |
| \\      /  F ield         | foam-extend: Open Source CFD                    |
|  \\    /   O peration     | Version:     4.1                                |
|   \\  /    A nd           | Web:         http://www.foam-extend.org         |
|    \\/     M anipulation  |                                                 |
\*---------------------------------------------------------------------------*/
FoamFile
{
    version     2.0;
    format      ascii;
    class       volVectorField;
    location    "0.15";
    object      U;
}
// * * * * * * * * * * * * * * * * * * * * * * * * * * * * * * * * * * * * * //

dimensions      [0 1 -1 0 0 0 0];

internalField   nonuniform List<vector> 
16796
(
(135.54509 -0.079121662 0)
(135.74441 -0.10661513 0)
(135.94857 -0.12713981 0)
(136.21176 -0.14384862 0)
(136.51725 -0.15764884 0)
(136.86298 -0.16885708 0)
(137.24376 -0.17791144 0)
(137.65455 -0.18500693 0)
(138.09013 -0.19026323 0)
(138.54496 -0.19371483 0)
(139.01335 -0.19536456 0)
(139.48943 -0.19520719 0)
(139.96726 -0.19325043 0)
(140.44089 -0.18952592 0)
(140.90449 -0.18409523 0)
(141.35241 -0.17705227 0)
(141.77936 -0.16852317 0)
(142.18042 -0.15866535 0)
(142.55119 -0.14766541 0)
(142.88787 -0.1357376 0)
(143.18734 -0.12312187 0)
(143.44721 -0.11008342 0)
(143.6659 -0.096912165 0)
(143.84271 -0.083923628 0)
(143.97781 -0.071459297 0)
(144.07232 -0.059887672 0)
(144.12829 -0.049591342 0)
(144.14863 -0.040832417 0)
(144.13715 -0.033393778 0)
(144.0973 -0.026478388 0)
(144.03124 -0.019596424 0)
(143.94213 -0.01296559 0)
(143.83382 -0.0070085926 0)
(143.71089 -0.0021613592 0)
(143.5785 0.0011661673 0)
(143.44228 0.0026148795 0)
(143.30823 0.0018860654 0)
(143.18255 -0.0012534651 0)
(143.07153 -0.0069643563 0)
(142.98145 -0.015320414 0)
(142.91842 -0.02627694 0)
(142.88822 -0.039577706 0)
(142.89618 -0.054452552 0)
(142.9459 -0.069566008 0)
(143.0379 -0.084251002 0)
(143.17316 -0.098762787 0)
(143.35243 -0.11327728 0)
(143.57603 -0.1277538 0)
(143.84378 -0.14205166 0)
(144.15487 -0.15598682 0)
(144.50788 -0.16936586 0)
(144.90078 -0.18200088 0)
(145.33098 -0.1937158 0)
(145.79535 -0.2043497 0)
(146.29031 -0.21375915 0)
(146.81184 -0.22182001 0)
(147.3556 -0.22842894 0)
(147.91692 -0.23350452 0)
(148.49096 -0.23698802 0)
(149.07268 -0.23884375 0)
(149.657 -0.23905909 0)
(150.23882 -0.23764408 0)
(150.81309 -0.23463075 0)
(151.3749 -0.230072 0)
(151.91951 -0.22404025 0)
(152.44245 -0.21662575 0)
(152.93954 -0.20793474 0)
(153.40692 -0.1980873 0)
(153.84115 -0.18721508 0)
(154.23919 -0.17545895 0)
(154.59847 -0.1629665 0)
(154.91686 -0.14988946 0)
(155.19273 -0.13638098 0)
(155.42494 -0.12259243 0)
(155.61284 -0.10866946 0)
(155.75624 -0.094745932 0)
(155.85545 -0.08093397 0)
(155.91116 -0.06730266 0)
(155.92441 -0.053781379 0)
(155.89674 -0.04000981 0)
(155.82835 -0.025959746 0)
(155.72062 -0.012202114 0)
(155.57589 0.00076804771 0)
(155.39696 0.012709613 0)
(155.18698 0.023484743 0)
(154.94932 0.033011439 0)
(154.68752 0.041239735 0)
(154.40519 0.048142481 0)
(154.10601 0.05371167 0)
(153.79363 0.057956443 0)
(153.4717 0.060901625 0)
(153.14373 0.062586409 0)
(152.81316 0.063062947 0)
(152.48325 0.062394822 0)
(152.15707 0.060655479 0)
(151.8375 0.057926561 0)
(151.52718 0.05429625 0)
(151.2285 0.049857564 0)
(150.94362 0.044706746 0)
(150.67441 0.038941715 0)
(150.42247 0.032660558 0)
(150.18918 0.025960168 0)
(149.97561 0.018935003 0)
(149.78261 0.011675939 0)
(149.61077 0.0042693116 0)
(149.46048 -0.00320384 0)
(149.33191 -0.010668382 0)
(149.22502 -0.018055351 0)
(149.13963 -0.025301851 0)
(149.07538 -0.032350451 0)
(149.03178 -0.039147919 0)
(149.00823 -0.045642421 0)
(149.00402 -0.051772566 0)
(149.01833 -0.057461876 0)
(149.05011 -0.062712144 0)
(149.09843 -0.067551043 0)
(149.16234 -0.071941726 0)
(149.2408 -0.075804688 0)
(149.3327 -0.079015076 0)
(149.43646 -0.08137631 0)
(149.55026 -0.08238537 0)
(149.67492 -0.081026809 0)
(149.80498 -0.078138577 0)
(149.88836 -0.070670046 0)
(155.30327 -0.10261293 0)
(155.39696 -0.14003471 0)
(155.48275 -0.18753129 0)
(155.61057 -0.23235886 0)
(155.77126 -0.27517579 0)
(155.9664 -0.31417821 0)
(156.1928 -0.34883141 0)
(156.44677 -0.37854255 0)
(156.7238 -0.40290924 0)
(157.01882 -0.42159725 0)
(157.32646 -0.43436323 0)
(157.64106 -0.44105019 0)
(157.95689 -0.44159689 0)
(158.26816 -0.4360431 0)
(158.56922 -0.4245334 0)
(158.85456 -0.4073184 0)
(159.119 -0.38475238 0)
(159.35774 -0.35728953 0)
(159.56645 -0.32547642 0)
(159.74137 -0.28994441 0)
(159.87939 -0.2513986 0)
(159.97808 -0.21060788 0)
(160.03572 -0.16839142 0)
(160.05135 -0.12560669 0)
(160.02477 -0.083133526 0)
(159.95649 -0.041839105 0)
(159.84773 -0.0025049881 0)
(159.70013 0.034136236 0)
(159.51588 0.067513135 0)
(159.29909 0.097367103 0)
(159.05634 0.12335258 0)
(158.79408 0.14486869 0)
(158.51872 0.16138344 0)
(158.2365 0.17249162 0)
(157.95341 0.17790376 0)
(157.67515 0.17744582 0)
(157.40706 0.17105194 0)
(157.15406 0.15875622 0)
(156.92062 0.14068608 0)
(156.71067 0.1170579 0)
(156.5276 0.088181178 0)
(156.37427 0.054499539 0)
(156.25293 0.016790059 0)
(156.16652 -0.023727052 0)
(156.11974 -0.066068583 0)
(156.1152 -0.10971102 0)
(156.15428 -0.15410862 0)
(156.23746 -0.19866683 0)
(156.36448 -0.24275882 0)
(156.53441 -0.28574724 0)
(156.74568 -0.32700848 0)
(156.99614 -0.36594768 0)
(157.28307 -0.4020098 0)
(157.60325 -0.43468813 0)
(157.953 -0.4635311 0)
(158.32825 -0.48814756 0)
(158.72455 -0.50821106 0)
(159.13721 -0.52346299 0)
(159.56132 -0.53371456 0)
(159.99182 -0.53884782 0)
(160.42357 -0.53881562 0)
(160.85145 -0.5336405 0)
(161.27039 -0.52341267 0)
(161.67542 -0.50828705 0)
(162.06181 -0.48847939 0)
(162.42502 -0.46426168 0)
(162.76084 -0.43595689 0)
(163.06539 -0.40393299 0)
(163.33518 -0.36859675 0)
(163.56713 -0.33038706 0)
(163.75861 -0.28976815 0)
(163.90744 -0.24722272 0)
(164.01196 -0.20324522 0)
(164.07094 -0.15833496 0)
(164.08369 -0.11298965 0)
(164.04997 -0.067698434 0)
(163.97002 -0.02292986 0)
(163.84459 0.020894997 0)
(163.67481 0.063400297 0)
(163.46223 0.10442808 0)
(163.21051 0.1437629 0)
(162.92274 0.18089167 0)
(162.60166 0.21536461 0)
(162.25008 0.24687928 0)
(161.87088 0.27520839 0)
(161.46713 0.30018619 0)
(161.04198 0.3216982 0)
(160.59867 0.33967727 0)
(160.14049 0.35410122 0)
(159.67072 0.36499062 0)
(159.19261 0.37240624 0)
(158.70933 0.37644619 0)
(158.22396 0.37724255 0)
(157.73942 0.37495758 0)
(157.25848 0.36977968 0)
(156.78374 0.36191908 0)
(156.31756 0.3516035 0)
(155.86212 0.33907368 0)
(155.41935 0.32457909 0)
(154.99095 0.30837381 0)
(154.57839 0.29071249 0)
(154.1829 0.27184675 0)
(153.80549 0.25202175 0)
(153.44695 0.23147313 0)
(153.10783 0.21042428 0)
(152.78851 0.18908409 0)
(152.48919 0.16764496 0)
(152.20987 0.14628146 0)
(151.95042 0.12514947 0)
(151.71057 0.10438613 0)
(151.48993 0.08411046 0)
(151.288 0.064425465 0)
(151.1042 0.045427544 0)
(150.93789 0.027220377 0)
(150.78854 0.0098676795 0)
(150.65533 -0.0066102495 0)
(150.53737 -0.022164026 0)
(150.43369 -0.036715356 0)
(150.34323 -0.050150151 0)
(150.2647 -0.062296692 0)
(150.1968 -0.072516865 0)
(150.13946 -0.079424919 0)
(150.08858 -0.084869047 0)
(150.03178 -0.084639758 0)
(157.93904 -0.17006734 0)
(158.14342 -0.21358423 0)
(158.30913 -0.27781582 0)
(158.5071 -0.33933972 0)
(158.71757 -0.39867435 0)
(158.94207 -0.452743 0)
(159.17695 -0.50039013 0)
(159.41915 -0.54056141 0)
(159.66507 -0.57254064 0)
(159.91083 -0.59577551 0)
(160.15241 -0.60987792 0)
(160.38563 -0.61461088 0)
(160.60637 -0.60989563 0)
(160.81052 -0.59581761 0)
(160.99417 -0.57263073 0)
(161.15366 -0.54075834 0)
(161.28565 -0.50078819 0)
(161.3872 -0.45346499 0)
(161.45585 -0.39967643 0)
(161.48967 -0.34043877 0)
(161.48734 -0.27687615 0)
(161.44814 -0.2102016 0)
(161.37202 -0.14169266 0)
(161.25957 -0.072669291 0)
(161.11207 -0.0044506325 0)
(160.93142 0.06166803 0)
(160.7201 0.12439849 0)
(160.48147 0.18252365 0)
(160.21946 0.23477724 0)
(159.93836 0.2798706 0)
(159.64275 0.31684821 0)
(159.33757 0.34516998 0)
(159.02793 0.36449199 0)
(158.71905 0.37460113 0)
(158.41613 0.37541526 0)
(158.1243 0.36698921 0)
(157.8485 0.34951798 0)
(157.59342 0.32333522 0)
(157.3634 0.2889077 0)
(157.16235 0.24682321 0)
(156.9937 0.19777317 0)
(156.86033 0.14251266 0)
(156.76463 0.081762856 0)
(156.70842 0.016207493 0)
(156.69297 -0.053125037 0)
(156.71917 -0.1248824 0)
(156.78741 -0.19781407 0)
(156.89738 -0.27079446 0)
(157.04817 -0.34274507 0)
(157.23828 -0.4126219 0)
(157.46572 -0.47942289 0)
(157.72797 -0.5422005 0)
(158.02208 -0.60007494 0)
(158.34471 -0.65224595 0)
(158.69215 -0.69800269 0)
(159.06037 -0.73673185 0)
(159.44512 -0.7679242 0)
(159.84193 -0.79117951 0)
(160.2462 -0.80620969 0)
(160.65324 -0.81284048 0)
(161.05835 -0.81101129 0)
(161.45684 -0.8007735 0)
(161.84413 -0.78228712 0)
(162.21577 -0.75581596 0)
(162.56752 -0.7217213 0)
(162.89535 -0.68045434 0)
(163.19554 -0.63254749 0)
(163.4647 -0.57860463 0)
(163.69978 -0.51929075 0)
(163.89812 -0.45532097 0)
(164.05749 -0.38744925 0)
(164.17605 -0.31645706 0)
(164.25244 -0.24314213 0)
(164.2857 -0.16830736 0)
(164.27534 -0.092751685 0)
(164.22129 -0.017263053 0)
(164.12392 0.057400506 0)
(163.98401 0.1304909 0)
(163.80282 0.20129086 0)
(163.58193 0.26902662 0)
(163.32324 0.33307471 0)
(163.02894 0.39305558 0)
(162.70149 0.44860827 0)
(162.34358 0.49935681 0)
(161.9581 0.54497581 0)
(161.54809 0.58520835 0)
(161.11674 0.61987123 0)
(160.66732 0.64885514 0)
(160.20314 0.67212291 0)
(159.7275 0.68970666 0)
(159.24367 0.70170393 0)
(158.75485 0.70827307 0)
(158.26413 0.70962768 0)
(157.77445 0.70603045 0)
(157.28861 0.69778644 0)
(156.80919 0.68523601 0)
(156.33858 0.66874761 0)
(155.87896 0.6487105 0)
(155.43225 0.62552771 0)
(155.00017 0.59960928 0)
(154.58418 0.57136586 0)
(154.1855 0.54120281 0)
(153.80514 0.50951487 0)
(153.44387 0.47668135 0)
(153.10226 0.44306192 0)
(152.78066 0.40899323 0)
(152.47926 0.37478599 0)
(152.19807 0.34072302 0)
(151.93693 0.307058 0)
(151.69556 0.2740152 0)
(151.47357 0.24178987 0)
(151.27044 0.21054929 0)
(151.08558 0.1804322 0)
(150.91833 0.15155122 0)
(150.76793 0.12403051 0)
(150.63359 0.098004862 0)
(150.51443 0.073595871 0)
(150.40953 0.050942488 0)
(150.3179 0.030214931 0)
(150.23838 0.011651349 0)
(150.17 -0.004154916 0)
(150.11194 -0.016246587 0)
(150.06071 -0.025339624 0)
(150.01802 -0.027880062 0)
(158.26263 -0.29304902 0)
(158.50299 -0.35866933 0)
(158.69276 -0.43163726 0)
(158.91523 -0.49925597 0)
(159.14545 -0.56209895 0)
(159.38501 -0.61770819 0)
(159.62946 -0.66493876 0)
(159.87561 -0.70266061 0)
(160.11989 -0.73004463 0)
(160.35867 -0.7464493 0)
(160.58833 -0.75144104 0)
(160.80525 -0.74478961 0)
(161.00591 -0.72647604 0)
(161.18691 -0.69669731 0)
(161.34507 -0.65586813 0)
(161.47747 -0.60461947 0)
(161.58146 -0.54379024 0)
(161.65479 -0.47441674 0)
(161.69558 -0.39771407 0)
(161.70243 -0.31505735 0)
(161.67443 -0.2279547 0)
(161.61117 -0.13802283 0)
(161.51284 -0.046955892 0)
(161.38019 0.043513202 0)
(161.21457 0.13165452 0)
(161.01789 0.21575403 0)
(160.7927 0.29419213 0)
(160.54205 0.36543856 0)
(160.26945 0.42815041 0)
(159.97884 0.48118728 0)
(159.6745 0.52361243 0)
(159.36107 0.55466103 0)
(159.04347 0.57372316 0)
(158.72683 0.58038353 0)
(158.41638 0.57444241 0)
(158.11729 0.55592271 0)
(157.83461 0.52507004 0)
(157.57316 0.48234621 0)
(157.33742 0.42842057 0)
(157.13149 0.36415813 0)
(156.95899 0.29061286 0)
(156.823 0.20901776 0)
(156.72603 0.1207529 0)
(156.66992 0.02727479 0)
(156.65589 -0.069933834 0)
(156.68459 -0.16942176 0)
(156.75615 -0.26976206 0)
(156.8701 -0.36950754 0)
(157.02537 -0.46723674 0)
(157.22034 -0.56157536 0)
(157.45285 -0.65121486 0)
(157.72028 -0.73492913 0)
(158.01954 -0.81158889 0)
(158.34719 -0.88017442 0)
(158.69944 -0.9397866 0)
(159.07221 -0.98965607 0)
(159.46119 -1.0291508 0)
(159.8619 -1.0577815 0)
(160.26973 -1.0752058 0)
(160.68 -1.0812293 0)
(161.08803 -1.0758059 0)
(161.48916 -1.0590354 0)
(161.87883 -1.0311592 0)
(162.25262 -0.99255393 0)
(162.6063 -0.94372397 0)
(162.93588 -0.8852913 0)
(163.23766 -0.81798451 0)
(163.50822 -0.74262617 0)
(163.74454 -0.66011948 0)
(163.94394 -0.57143384 0)
(164.10415 -0.4775901 0)
(164.22336 -0.37964557 0)
(164.30014 -0.27867888 0)
(164.33354 -0.17577474 0)
(164.32305 -0.072011174 0)
(164.26859 0.03155338 0)
(164.17053 0.13390153 0)
(164.02964 0.23406965 0)
(163.84708 0.33116931 0)
(163.62438 0.42434976 0)
(163.36339 0.51281159 0)
(163.06631 0.59581813 0)
(162.73566 0.6727011 0)
(162.37422 0.74289294 0)
(161.98494 0.80593203 0)
(161.57095 0.86146146 0)
(161.1355 0.90922848 0)
(160.68189 0.94908265 0)
(160.2135 0.98097328 0)
(159.73369 1.0049456 0)
(159.24576 1.0211357 0)
(158.75296 1.0297639 0)
(158.25841 1.0311278 0)
(157.7651 1.0255927 0)
(157.27584 1.0135833 0)
(156.79324 0.99557316 0)
(156.3197 0.97207478 0)
(155.85742 0.94362966 0)
(155.40832 0.91079825 0)
(154.97412 0.87415063 0)
(154.55628 0.83425757 0)
(154.15602 0.79168232 0)
(153.77433 0.74697318 0)
(153.41197 0.70065686 0)
(153.06949 0.65323262 0)
(152.74725 0.60516761 0)
(152.44539 0.5568929 0)
(152.16392 0.50880091 0)
(151.90267 0.46124398 0)
(151.66134 0.41453444 0)
(151.43953 0.36894613 0)
(151.2367 0.32471779 0)
(151.05226 0.28205646 0)
(150.88553 0.24113931 0)
(150.73575 0.20212491 0)
(150.60215 0.16516611 0)
(150.48388 0.13042712 0)
(150.38009 0.098108814 0)
(150.28986 0.068472744 0)
(150.21222 0.041906365 0)
(150.14643 0.019130134 0)
(150.09162 0.0010915172 0)
(150.0455 -0.0114056 0)
(150.0121 -0.013575752 0)
(158.25997 -0.38997048 0)
(158.50829 -0.47569763 0)
(158.70207 -0.56272397 0)
(158.93174 -0.64236026 0)
(159.16951 -0.71459448 0)
(159.41708 -0.7771357 0)
(159.66939 -0.82874269 0)
(159.923 -0.86825948 0)
(160.17411 -0.89484508 0)
(160.41903 -0.90787789 0)
(160.6541 -0.90696899 0)
(160.87571 -0.89195711 0)
(161.08041 -0.86291572 0)
(161.26488 -0.82015848 0)
(161.426 -0.76424146 0)
(161.56089 -0.69596308 0)
(161.66697 -0.61635612 0)
(161.74199 -0.52667825 0)
(161.78406 -0.4283929 0)
(161.79175 -0.32315065 0)
(161.76407 -0.21276026 0)
(161.70056 -0.099164068 0)
(161.6013 0.015596483 0)
(161.46699 0.12942608 0)
(161.29884 0.2401792 0)
(161.09873 0.34576511 0)
(160.86907 0.444136 0)
(160.61287 0.53335227 0)
(160.33365 0.6116244 0)
(160.03545 0.67735 0)
(159.7227 0.72919523 0)
(159.40027 0.76613598 0)
(159.07329 0.78744824 0)
(158.74707 0.79269953 0)
(158.42698 0.78174642 0)
(158.11838 0.75473124 0)
(157.82644 0.71207491 0)
(157.55613 0.65446288 0)
(157.31204 0.58282686 0)
(157.09837 0.4983179 0)
(156.91883 0.40227935 0)
(156.77659 0.29621231 0)
(156.67425 0.18174602 0)
(156.6138 0.06061955 0)
(156.5966 -0.06530493 0)
(156.62337 -0.19408236 0)
(156.69422 -0.32375474 0)
(156.80863 -0.45240902 0)
(156.96546 -0.57820136 0)
(157.16303 -0.69936804 0)
(157.39911 -0.81424257 0)
(157.67099 -0.92127295 0)
(157.97552 -1.0190377 0)
(158.30915 -1.1062602 0)
(158.66799 -1.1818208 0)
(159.04786 -1.2447668 0)
(159.44436 -1.2943207 0)
(159.8529 -1.3298855 0)
(160.26876 -1.3510486 0)
(160.68718 -1.3575835 0)
(161.10336 -1.3494485 0)
(161.51255 -1.3267843 0)
(161.91011 -1.2899087 0)
(162.29151 -1.2393087 0)
(162.65245 -1.1756313 0)
(162.98886 -1.099672 0)
(163.29694 -1.012361 0)
(163.57324 -0.91474778 0)
(163.81465 -0.80798541 0)
(164.01845 -0.69331231 0)
(164.18234 -0.57203433 0)
(164.30445 -0.44550623 0)
(164.38335 -0.31511309 0)
(164.41808 -0.18225192 0)
(164.40811 -0.048316854 0)
(164.35339 0.085316204 0)
(164.2543 0.21731661 0)
(164.11164 0.34642003 0)
(163.92664 0.47141838 0)
(163.70092 0.59118225 0)
(163.43641 0.70469585 0)
(163.13539 0.81107186 0)
(162.80043 0.90952469 0)
(162.43433 0.99936797 0)
(162.04012 1.0800304 0)
(161.62097 1.1510648 0)
(161.1802 1.212152 0)
(160.7212 1.2631026 0)
(160.24739 1.3038542 0)
(159.7622 1.3344675 0)
(159.26901 1.3551199 0)
(158.77111 1.3660975 0)
(158.27167 1.3677851 0)
(157.77371 1.3606549 0)
(157.28009 1.3452548 0)
(156.79345 1.3221951 0)
(156.31621 1.2921355 0)
(155.85056 1.2557722 0)
(155.39845 1.2138249 0)
(154.96158 1.1670247 0)
(154.54142 1.1161025 0)
(154.13917 1.0617788 0)
(153.7558 1.0047538 0)
(153.39206 0.94569927 0)
(153.04847 0.88525086 0)
(152.72536 0.82400228 0)
(152.42287 0.76250026 0)
(152.14096 0.70124102 0)
(151.87945 0.64066829 0)
(151.63801 0.58117291 0)
(151.41621 0.52309404 0)
(151.21351 0.46672259 0)
(151.02928 0.41230611 0)
(150.86284 0.36005601 0)
(150.71343 0.31015906 0)
(150.58026 0.26278417 0)
(150.46251 0.21809045 0)
(150.35933 0.17624446 0)
(150.26986 0.13743755 0)
(150.1933 0.10193868 0)
(150.12906 0.070199234 0)
(150.07642 0.042698211 0)
(150.03447 0.020061086 0)
(150.00804 0.005460293 0)
(158.21386 -0.51862393 0)
(158.47149 -0.62089162 0)
(158.66985 -0.71895731 0)
(158.90606 -0.80675745 0)
(159.15066 -0.88420222 0)
(159.40584 -0.94941652 0)
(159.66628 -1.0012403 0)
(159.92844 -1.0385753 0)
(160.18841 -1.0605956 0)
(160.44239 -1.0666987 0)
(160.68659 -1.05653 0)
(160.9173 -1.0299873 0)
(161.13093 -0.9872318 0)
(161.32404 -0.92869568 0)
(161.49338 -0.85508534 0)
(161.63593 -0.76738299 0)
(161.74897 -0.66683905 0)
(161.83011 -0.55496401 0)
(161.87735 -0.43350871 0)
(161.88911 -0.30444548 0)
(161.86431 -0.16993665 0)
(161.80238 -0.032307749 0)
(161.70335 0.1059978 0)
(161.56783 0.24246537 0)
(161.39705 0.37460309 0)
(161.19288 0.49993228 0)
(160.95781 0.61605574 0)
(160.69493 0.720714 0)
(160.40789 0.81184232 0)
(160.10086 0.887616 0)
(159.77846 0.94649882 0)
(159.44567 0.98726732 0)
(159.1078 1.0090239 0)
(158.77034 1.0112133 0)
(158.43888 0.99363741 0)
(158.11897 0.95645998 0)
(157.81602 0.90020169 0)
(157.53518 0.82572511 0)
(157.28127 0.73421418 0)
(157.05866 0.62714324 0)
(156.87122 0.5062454 0)
(156.72224 0.373468 0)
(156.61441 0.23092606 0)
(156.54975 0.080846678 0)
(156.52965 -0.074468301 0)
(156.55482 -0.23269152 0)
(156.62536 -0.39152609 0)
(156.74072 -0.54870299 0)
(156.89975 -0.70201639 0)
(157.1007 -0.84935287 0)
(157.34128 -0.98871835 0)
(157.6187 -1.118261 0)
(157.92971 -1.2362901 0)
(158.27067 -1.3412928 0)
(158.63758 -1.4319469 0)
(159.02614 -1.5071325 0)
(159.43184 -1.5659401 0)
(159.84995 -1.6076768 0)
(160.27565 -1.6318708 0)
(160.70403 -1.6382718 0)
(161.13018 -1.6268511 0)
(161.54923 -1.5977971 0)
(161.9564 -1.5515099 0)
(162.34708 -1.4885921 0)
(162.71684 -1.4098379 0)
(163.06151 -1.3162192 0)
(163.37721 -1.2088698 0)
(163.66041 -1.0890667 0)
(163.90794 -0.95821115 0)
(164.11702 -0.81780687 0)
(164.28531 -0.6694382 0)
(164.41092 -0.51474742 0)
(164.4924 -0.35541194 0)
(164.52879 -0.19312153 0)
(164.51957 -0.029559071 0)
(164.46471 0.13361975 0)
(164.36461 0.29480724 0)
(164.22011 0.45246941 0)
(164.03246 0.6051528 0)
(163.80331 0.75149406 0)
(163.53466 0.89023737 0)
(163.22886 1.0202515 0)
(162.88856 1.1405368 0)
(162.51665 1.2502358 0)
(162.11624 1.3486437 0)
(161.69062 1.4352124 0)
(161.24318 1.5095537 0)
(160.7774 1.5714386 0)
(160.29679 1.620795 0)
(159.80487 1.6577019 0)
(159.30508 1.6823822 0)
(158.8008 1.695192 0)
(158.29524 1.696609 0)
(157.7915 1.6872183 0)
(157.29245 1.6676977 0)
(156.80078 1.6388012 0)
(156.31894 1.6013434 0)
(155.84914 1.5561827 0)
(155.39332 1.5042059 0)
(154.9532 1.4463131 0)
(154.53021 1.3834033 0)
(154.12557 1.3163621 0)
(153.74022 1.2460497 0)
(153.37488 1.1732907 0)
(153.03005 1.0988652 0)
(152.70603 1.0235017 0)
(152.40294 0.94787102 0)
(152.12069 0.87258255 0)
(151.85908 0.79818181 0)
(151.61776 0.72515045 0)
(151.39627 0.65390794 0)
(151.19403 0.58481572 0)
(151.01042 0.51818263 0)
(150.84471 0.45427279 0)
(150.69615 0.39331717 0)
(150.56394 0.33552512 0)
(150.44726 0.28109685 0)
(150.34529 0.23023788 0)
(150.2572 0.18317275 0)
(150.18223 0.14017993 0)
(150.11982 0.10162627 0)
(150.06926 0.067832094 0)
(150.03008 0.039218023 0)
(150.00667 0.017084527 0)
(158.15425 -0.62952152 0)
(158.41809 -0.74969746 0)
(158.62123 -0.86255667 0)
(158.86443 -0.96269373 0)
(159.11706 -1.0497302 0)
(159.38152 -1.1218619 0)
(159.65218 -1.1778874 0)
(159.92537 -1.2167076 0)
(160.19698 -1.237501 0)
(160.46303 -1.2396906 0)
(160.71954 -1.2229671 0)
(160.96263 -1.187295 0)
(161.18852 -1.1329247 0)
(161.39359 -1.0604015 0)
(161.57438 -0.97057064 0)
(161.7277 -0.8645811 0)
(161.85062 -0.74387945 0)
(161.94058 -0.61020377 0)
(161.99538 -0.46556423 0)
(162.01329 -0.31222503 0)
(161.99307 -0.15267165 0)
(161.93404 0.010416522 0)
(161.83614 0.17422384 0)
(161.69989 0.33581018 0)
(161.5265 0.49221247 0)
(161.31787 0.6404809 0)
(161.07652 0.77776107 0)
(160.80564 0.90134873 0)
(160.50903 1.0087589 0)
(160.19103 1.0977848 0)
(159.8565 1.1665622 0)
(159.51067 1.2136133 0)
(159.15912 1.2378755 0)
(158.8076 1.2387173 0)
(158.46198 1.2159472 0)
(158.12806 1.1698119 0)
(157.81151 1.1009845 0)
(157.5177 1.0105409 0)
(157.25166 0.89993007 0)
(157.01797 0.77093239 0)
(156.82064 0.62561823 0)
(156.66312 0.46629574 0)
(156.54822 0.29546502 0)
(156.47806 0.11576572 0)
(156.4541 -0.070064577 0)
(156.47708 -0.25924161 0)
(156.54709 -0.44897723 0)
(156.66356 -0.63653445 0)
(156.82525 -0.81927385 0)
(157.03035 -0.99468109 0)
(157.27647 -1.1603944 0)
(157.56072 -1.3142285 0)
(157.87974 -1.4541956 0)
(158.22973 -1.578522 0)
(158.60658 -1.6856631 0)
(159.00585 -1.774315 0)
(159.42286 -1.8434228 0)
(159.85275 -1.8921876 0)
(160.29053 -1.9200701 0)
(160.73115 -1.9267918 0)
(161.16954 -1.9123336 0)
(161.60068 -1.8769318 0)
(162.01964 -1.821071 0)
(162.42168 -1.745474 0)
(162.80224 -1.6510894 0)
(163.15703 -1.5390755 0)
(163.48206 -1.410782 0)
(163.77369 -1.2677291 0)
(164.02868 -1.1115844 0)
(164.24417 -0.9441384 0)
(164.41778 -0.76727832 0)
(164.54758 -0.5829619 0)
(164.63209 -0.39319043 0)
(164.67034 -0.1999821 0)
(164.66182 -0.0053488846 0)
(164.60655 0.18872828 0)
(164.50494 0.38033838 0)
(164.35789 0.56766141 0)
(164.16674 0.74896582 0)
(163.93321 0.9226369 0)
(163.65938 1.0871971 0)
(163.3477 1.2413203 0)
(163.00088 1.3838375 0)
(162.62192 1.5137451 0)
(162.21404 1.6302158 0)
(161.78061 1.7326061 0)
(161.32513 1.8204607 0)
(160.85119 1.8935136 0)
(160.36241 1.9516849 0)
(159.8624 1.9950755 0)
(159.35469 2.0239574 0)
(158.84273 2.0387617 0)
(158.32983 2.0400642 0)
(157.81913 2.0285682 0)
(157.31358 2.0050866 0)
(156.81588 1.9705224 0)
(156.32852 1.9258491 0)
(155.85372 1.8720912 0)
(155.39344 1.8103049 0)
(154.94939 1.7415605 0)
(154.523 1.6669254 0)
(154.11545 1.5874488 0)
(153.72766 1.5041478 0)
(153.36033 1.4179957 0)
(153.01393 1.329911 0)
(152.68871 1.2407493 0)
(152.38475 1.1512965 0)
(152.10195 1.0622638 0)
(151.84005 0.97428542 0)
(151.59867 0.88791796 0)
(151.37732 0.80364277 0)
(151.17539 0.72187043 0)
(150.99224 0.64294728 0)
(150.82712 0.56716409 0)
(150.67927 0.49476645 0)
(150.54788 0.4259652 0)
(150.43215 0.3609474 0)
(150.33128 0.29988852 0)
(150.24447 0.24296504 0)
(150.17107 0.19037949 0)
(150.11054 0.14236889 0)
(150.06227 0.099130709 0)
(150.02605 0.06098595 0)
(150.0055 0.028515456 0)
(158.09287 -0.76140642 0)
(158.36727 -0.8974948 0)
(158.57764 -1.0234429 0)
(158.82993 -1.133847 0)
(159.09234 -1.2283445 0)
(159.36757 -1.3052293 0)
(159.64984 -1.3633239 0)
(159.93537 -1.4015496 0)
(160.2199 -1.4190929 0)
(160.49927 -1.4153932 0)
(160.76933 -1.3901719 0)
(161.02601 -1.3434475 0)
(161.26531 -1.2755508 0)
(161.48339 -1.1871387 0)
(161.67659 -1.0792013 0)
(161.84149 -0.95306925 0)
(161.97494 -0.81040879 0)
(162.07416 -0.65321831 0)
(162.13677 -0.48380881 0)
(162.16086 -0.30478613 0)
(162.14503 -0.11901595 0)
(162.08848 0.070407129 0)
(161.99105 0.26022204 0)
(161.85319 0.44707409 0)
(161.67613 0.62758098 0)
(161.46177 0.79837179 0)
(161.21271 0.95617409 0)
(160.93225 1.0978838 0)
(160.62436 1.2206464 0)
(160.29358 1.3219244 0)
(159.94498 1.3995662 0)
(159.58409 1.4518559 0)
(159.21674 1.477553 0)
(158.849 1.4759192 0)
(158.48703 1.4467335 0)
(158.13696 1.3902951 0)
(157.80474 1.3074116 0)
(157.49605 1.1993725 0)
(157.21619 1.0679139 0)
(156.96994 0.91516802 0)
(156.76156 0.74361183 0)
(156.59462 0.55600036 0)
(156.47207 0.35530682 0)
(156.3961 0.14465298 0)
(156.3682 -0.072748481 0)
(156.38915 -0.29365461 0)
(156.45899 -0.51486364 0)
(156.57713 -0.73323341 0)
(156.74225 -0.94572731 0)
(156.95246 -1.1494521 0)
(157.20528 -1.3416924 0)
(157.49766 -1.5199397 0)
(157.82613 -1.6819161 0)
(158.18675 -1.8255936 0)
(158.57524 -1.9492097 0)
(158.987 -2.0512803 0)
(159.41719 -2.1306088 0)
(159.86076 -2.1862931 0)
(160.31257 -2.2177296 0)
(160.76738 -2.2246144 0)
(161.21994 -2.2069416 0)
(161.66507 -2.1649987 0)
(162.09768 -2.0993586 0)
(162.51285 -2.0108681 0)
(162.90589 -1.900634 0)
(163.27235 -1.7700045 0)
(163.60814 -1.6205483 0)
(163.90951 -1.4540301 0)
(164.1731 -1.2723846 0)
(164.39601 -1.0776874 0)
(164.57577 -0.87212482 0)
(164.71042 -0.65796329 0)
(164.79846 -0.43751816 0)
(164.83892 -0.21312288 0)
(164.8313 0.012897693 0)
(164.77563 0.23825659 0)
(164.67237 0.46072479 0)
(164.52248 0.67817669 0)
(164.32733 0.88860013 0)
(164.08874 1.0901168 0)
(163.80889 1.2810015 0)
(163.49031 1.4597011 0)
(163.13584 1.6248475 0)
(162.7486 1.7752708 0)
(162.33191 1.9100096 0)
(161.88928 2.0283194 0)
(161.42435 2.1296762 0)
(160.94082 2.2137776 0)
(160.44244 2.2805394 0)
(159.93293 2.3300889 0)
(159.41593 2.3627533 0)
(158.895 2.3790463 0)
(158.37352 2.3796503 0)
(157.85472 2.3653963 0)
(157.34158 2.3372429 0)
(156.83689 2.2962527 0)
(156.34315 2.2435693 0)
(155.8626 2.1803947 0)
(155.39722 2.107966 0)
(154.94869 2.0275351 0)
(154.51845 1.9403486 0)
(154.10764 1.8476303 0)
(153.71717 1.7505652 0)
(153.34769 1.6502856 0)
(152.99963 1.5478591 0)
(152.67321 1.4442792 0)
(152.36845 1.3404572 0)
(152.08521 1.2372175 0)
(151.8232 1.1352944 0)
(151.58198 1.0353318 0)
(151.36102 0.93788586 0)
(151.15969 0.84342971 0)
(150.97728 0.75236083 0)
(150.81305 0.66501016 0)
(150.6662 0.58165265 0)
(150.53591 0.50251739 0)
(150.42135 0.42779646 0)
(150.32171 0.35765173 0)
(150.23623 0.2922192 0)
(150.16424 0.23161519 0)
(150.10522 0.17591863 0)
(150.05856 0.12511362 0)
(150.02414 0.079190079 0)
(150.00502 0.038052623 0)
(158.02384 -0.88524319 0)
(158.30845 -1.0393159 0)
(158.5271 -1.1810849 0)
(158.78994 -1.3046397 0)
(159.06388 -1.4095356 0)
(159.35187 -1.494 0)
(159.64788 -1.5568089 0)
(159.94798 -1.5968591 0)
(160.24772 -1.6133269 0)
(160.54275 -1.6056608 0)
(160.82872 -1.5736116 0)
(161.10132 -1.5172501 0)
(161.35633 -1.4369848 0)
(161.58969 -1.3335783 0)
(161.79747 -1.2081571 0)
(161.97601 -1.0622217 0)
(162.12193 -0.89764376 0)
(162.23219 -0.71666499 0)
(162.30418 -0.521878 0)
(162.33578 -0.31620934 0)
(162.3254 -0.10288268 0)
(162.27208 0.1146148 0)
(162.17551 0.33259395 0)
(162.03608 0.5472001 0)
(161.85497 0.75452452 0)
(161.63409 0.95067556 0)
(161.37613 1.1318712 0)
(161.08453 1.2945196 0)
(160.76343 1.4353133 0)
(160.41763 1.5513087 0)
(160.05248 1.6400084 0)
(159.67382 1.6994222 0)
(159.28785 1.7281189 0)
(158.90101 1.7252579 0)
(158.51981 1.690606 0)
(158.15076 1.6245378 0)
(157.80017 1.5280189 0)
(157.47404 1.4025716 0)
(157.17797 1.2502311 0)
(156.91702 1.0734837 0)
(156.69566 0.8752058 0)
(156.51766 0.65858645 0)
(156.38609 0.42705976 0)
(156.30328 0.18422614 0)
(156.27076 -0.066214495 0)
(156.28932 -0.32053146 0)
(156.359 -0.57501515 0)
(156.47913 -0.82603294 0)
(156.64832 -1.0700928 0)
(156.86456 -1.3038806 0)
(157.12524 -1.5242963 0)
(157.42717 -1.7284839 0)
(157.7667 -1.9138562 0)
(158.13973 -2.0781154 0)
(158.5418 -2.2192696 0)
(158.96811 -2.3356448 0)
(159.41363 -2.4258959 0)
(159.87312 -2.4890129 0)
(160.34122 -2.524325 0)
(160.81248 -2.531502 0)
(161.28148 -2.5105524 0)
(161.74283 -2.4618179 0)
(162.19124 -2.3859651 0)
(162.62161 -2.2839731 0)
(163.02908 -2.1571169 0)
(163.40905 -2.006948 0)
(163.75727 -1.8352699 0)
(164.06986 -1.6441112 0)
(164.34337 -1.4356951 0)
(164.57479 -1.212407 0)
(164.76159 -0.97675952 0)
(164.90176 -0.73135731 0)
(164.99378 -0.47886113 0)
(165.03665 -0.22195251 0)
(165.02991 0.03669707 0)
(164.97362 0.29446388 0)
(164.86828 0.54881631 0)
(164.71493 0.79733375 0)
(164.51503 1.037719 0)
(164.27048 1.2678287 0)
(163.98358 1.4856964 0)
(163.65697 1.6895517 0)
(163.29361 1.8778367 0)
(162.89676 2.0492192 0)
(162.46987 2.2026058 0)
(162.01661 2.3371512 0)
(161.54075 2.4522634 0)
(161.04615 2.5476054 0)
(160.53668 2.6230913 0)
(160.0162 2.6788787 0)
(159.48849 2.7153558 0)
(158.9572 2.7331252 0)
(158.42584 2.7329831 0)
(157.8977 2.7158962 0)
(157.37585 2.6829762 0)
(156.86311 2.6354527 0)
(156.36202 2.5746464 0)
(155.87486 2.501942 0)
(155.40359 2.4187619 0)
(154.94991 2.3265423 0)
(154.51523 2.2267103 0)
(154.10066 2.1206637 0)
(153.70707 2.0097529 0)
(153.33508 1.8952651 0)
(152.98506 1.7784113 0)
(152.65719 1.6603151 0)
(152.35143 1.542005 0)
(152.0676 1.4244079 0)
(151.80535 1.3083468 0)
(151.56421 1.1945407 0)
(151.34358 1.083607 0)
(151.14282 0.97606778 0)
(150.96117 0.87235779 0)
(150.79785 0.77283434 0)
(150.65205 0.67778838 0)
(150.52293 0.58745502 0)
(150.40965 0.5020223 0)
(150.31141 0.42163716 0)
(150.22745 0.34640776 0)
(150.15709 0.27640241 0)
(150.09979 0.21162557 0)
(150.05495 0.15197499 0)
(150.02236 0.097285708 0)
(150.00459 0.04715499 0)
(157.95077 -1.0246401 0)
(158.24913 -1.195949 0)
(158.47797 -1.3527948 0)
(158.75328 -1.4885817 0)
(159.04054 -1.602927 0)
(159.34298 -1.6939918 0)
(159.65438 -1.760522 0)
(159.97069 -1.8013856 0)
(160.28727 -1.8157396 0)
(160.59959 -1.8030266 0)
(160.90306 -1.7630113 0)
(161.19316 -1.6958025 0)
(161.46541 -1.6018758 0)
(161.71548 -1.4820942 0)
(161.93918 -1.3377218 0)
(162.13257 -1.1704377 0)
(162.292 -0.98233616 0)
(162.41416 -0.77592861 0)
(162.49619 -0.55412515 0)
(162.53573 -0.32021868 0)
(162.53097 -0.077845618 0)
(162.48079 0.16905019 0)
(162.38473 0.41629349 0)
(162.24312 0.65956039 0)
(162.05707 0.89445156 0)
(161.82853 1.1165729 0)
(161.56027 1.3216402 0)
(161.25586 1.5055744 0)
(160.91965 1.664611 0)
(160.55671 1.7953933 0)
(160.1727 1.8950679 0)
(159.77382 1.9613575 0)
(159.36668 1.992624 0)
(158.9581 1.9879085 0)
(158.55507 1.9469534 0)
(158.16448 1.8702038 0)
(157.79306 1.7587891 0)
(157.44721 1.6144823 0)
(157.13287 1.4396481 0)
(156.85541 1.2371699 0)
(156.61955 1.0103751 0)
(156.42928 0.76294448 0)
(156.28781 0.49882996 0)
(156.19755 0.22216187 0)