/*--------------------------------*- C++ -*----------------------------------*\
| =========                 |                                                 |
| \\      /  F ield         | foam-extend: Open Source CFD                    |
|  \\    /   O peration     | Version:     4.1                                |
|   \\  /    A nd           | Web:         http://www.foam-extend.org         |
|    \\/     M anipulation  |                                                 |
\*---------------------------------------------------------------------------*/
FoamFile
{
    version     2.0;
    format      ascii;
    class       volVectorField;
    location    "0.15";
    object      U;
}
// * * * * * * * * * * * * * * * * * * * * * * * * * * * * * * * * * * * * * //

dimensions      [0 1 -1 0 0 0 0];

internalField   nonuniform List<vector> 
16796
(
(137.5031 -0.076326812 0)
(137.65569 -0.09015584 0)
(137.80446 -0.097128868 0)
(137.97168 -0.10334129 0)
(138.15609 -0.10943997 0)
(138.35782 -0.11555319 0)
(138.57708 -0.12166349 0)
(138.8139 -0.12771579 0)
(139.06817 -0.13364344 0)
(139.33955 -0.1393756 0)
(139.62748 -0.14484072 0)
(139.9312 -0.14996819 0)
(140.24975 -0.15468989 0)
(140.58194 -0.15894119 0)
(140.9264 -0.16266234 0)
(141.28159 -0.16579929 0)
(141.6458 -0.16830488 0)
(142.01716 -0.17013956 0)
(142.39372 -0.17127234 0)
(142.77341 -0.17168144 0)
(143.1541 -0.17135486 0)
(143.53361 -0.1702908 0)
(143.90977 -0.16849797 0)
(144.28044 -0.16599565 0)
(144.64352 -0.16281367 0)
(144.997 -0.15899215 0)
(145.339 -0.15458113 0)
(145.66778 -0.14964003 0)
(145.98179 -0.14423686 0)
(146.27966 -0.13844754 0)
(146.56028 -0.13235466 0)
(146.82276 -0.1260466 0)
(147.06649 -0.11961626 0)
(147.29116 -0.11315949 0)
(147.49671 -0.10677404 0)
(147.68341 -0.10055777 0)
(147.85182 -0.094607288 0)
(148.00278 -0.089016202 0)
(148.13743 -0.083873805 0)
(148.25717 -0.079263429 0)
(148.36365 -0.075260933 0)
(148.45876 -0.071933176 0)
(148.54457 -0.069336922 0)
(148.62333 -0.06751736 0)
(148.6974 -0.06650677 0)
(148.76924 -0.066323266 0)
(148.84135 -0.066970523 0)
(148.91622 -0.068437326 0)
(148.9963 -0.070697238 0)
(149.08393 -0.073708729 0)
(149.1813 -0.077415593 0)
(149.29043 -0.081747682 0)
(149.4131 -0.086621507 0)
(149.55079 -0.091941391 0)
(149.70471 -0.097601542 0)
(149.87571 -0.10348744 0)
(150.06426 -0.10947767 0)
(150.2705 -0.11544599 0)
(150.49412 -0.12126351 0)
(150.73445 -0.12680104 0)
(150.99043 -0.13193147 0)
(151.2606 -0.13653214 0)
(151.54315 -0.14048726 0)
(151.83592 -0.14369021 0)
(152.13648 -0.1460457 0)
(152.44209 -0.14747182 0)
(152.74983 -0.147902 0)
(153.0566 -0.14728655 0)
(153.35917 -0.14559401 0)
(153.65426 -0.14281211 0)
(153.93862 -0.13894822 0)
(154.20901 -0.13402944 0)
(154.46236 -0.12810197 0)
(154.69574 -0.12123031 0)
(154.90647 -0.11349473 0)
(155.09213 -0.10498999 0)
(155.25064 -0.09582238 0)
(155.38024 -0.086107029 0)
(155.47958 -0.075967047 0)
(155.5477 -0.065517395 0)
(155.58404 -0.05484786 0)
(155.58847 -0.044010902 0)
(155.5612 -0.033054516 0)
(155.50193 -0.022217809 0)
(155.41173 -0.011776965 0)
(155.292 -0.0018827368 0)
(155.1445 0.007348734 0)
(154.9713 0.015821539 0)
(154.77473 0.023457444 0)
(154.55729 0.030195546 0)
(154.32165 0.035992079 0)
(154.07059 0.040819983 0)
(153.80693 0.044668104 0)
(153.53352 0.047540066 0)
(153.25317 0.049452905 0)
(152.96863 0.050435495 0)
(152.68258 0.050526856 0)
(152.39755 0.049774392 0)
(152.11596 0.048232162 0)
(151.84006 0.045959209 0)
(151.57193 0.043017972 0)
(151.31347 0.039472877 0)
(151.06642 0.035389083 0)
(150.83234 0.030831408 0)
(150.61259 0.025863474 0)
(150.40839 0.020547065 0)
(150.22078 0.014941661 0)
(150.05064 0.0091042103 0)
(149.89872 0.0030891209 0)
(149.76563 -0.0030515238 0)
(149.65184 -0.0092674615 0)
(149.55772 -0.015509396 0)
(149.48351 -0.021727728 0)
(149.42937 -0.027870406 0)
(149.39534 -0.033878952 0)
(149.38137 -0.039682635 0)
(149.38729 -0.045196803 0)
(149.41259 -0.050339931 0)
(149.45672 -0.054954577 0)
(149.51942 -0.05869769 0)
(149.60181 -0.061206381 0)
(149.69957 -0.062167144 0)
(149.79678 -0.062231587 0)
(149.87489 -0.050552707 0)
(157.38252 -0.074532991 0)
(157.3826 -0.095867043 0)
(157.39085 -0.11272657 0)
(157.41121 -0.1292731 0)
(157.44584 -0.1460566 0)
(157.49528 -0.1631526 0)
(157.55992 -0.18045424 0)
(157.63992 -0.1977909 0)
(157.73532 -0.21496554 0)
(157.84594 -0.23176892 0)
(157.97141 -0.24798748 0)
(158.11117 -0.26340736 0)
(158.26445 -0.27781927 0)
(158.4303 -0.29102139 0)
(158.60758 -0.30282348 0)
(158.79497 -0.31304966 0)
(158.99098 -0.32154214 0)
(159.19399 -0.32816366 0)
(159.40225 -0.33280064 0)
(159.61389 -0.33536524 0)
(159.82697 -0.33579767 0)
(160.03951 -0.33406761 0)
(160.24949 -0.33017568 0)
(160.4549 -0.32415408 0)
(160.65375 -0.31606694 0)
(160.84414 -0.30601023 0)
(161.02424 -0.29411095 0)
(161.19239 -0.28052622 0)
(161.34703 -0.26544125 0)
(161.48682 -0.24906768 0)
(161.61062 -0.2316404 0)
(161.71751 -0.21341502 0)
(161.80684 -0.19466409 0)
(161.87821 -0.17567297 0)
(161.93151 -0.1567361 0)
(161.96691 -0.13815181 0)
(161.98487 -0.12021786 0)
(161.98613 -0.10322583 0)
(161.97173 -0.087456929 0)
(161.94297 -0.073177058 0)
(161.90139 -0.060630776 0)
(161.84879 -0.050036656 0)
(161.78714 -0.041583476 0)
(161.71861 -0.035422862 0)
(161.64548 -0.031665481 0)
(161.57014 -0.030380296 0)
(161.49503 -0.031591814 0)
(161.42259 -0.035277405 0)
(161.35523 -0.0413668 0)
(161.29526 -0.049742706 0)
(161.24485 -0.060240195 0)
(161.206 -0.072648782 0)
(161.18046 -0.086715659 0)
(161.16973 -0.10214843 0)
(161.175 -0.11862191 0)
(161.19712 -0.13578392 0)
(161.23656 -0.15326036 0)
(161.29343 -0.17066228 0)
(161.36744 -0.187593 0)
(161.45788 -0.20365546 0)
(161.56366 -0.21845992 0)
(161.68332 -0.2316317 0)
(161.81498 -0.24281875 0)
(161.95648 -0.25169888 0)
(162.1053 -0.25798656 0)
(162.25869 -0.26143904 0)
(162.41365 -0.26186179 0)
(162.56703 -0.25911288 0)
(162.71557 -0.25310648 0)
(162.85592 -0.2438151 0)
(162.98476 -0.23127068 0)
(163.09883 -0.21556439 0)
(163.19498 -0.19684503 0)
(163.27025 -0.17531681 0)
(163.3219 -0.15123327 0)
(163.34747 -0.12488818 0)
(163.34482 -0.096620334 0)
(163.31217 -0.066801389 0)
(163.24814 -0.035823353 0)
(163.15176 -0.0040824403 0)
(163.02245 0.028013117 0)
(162.86006 0.060109319 0)
(162.66499 0.09188461 0)
(162.43894 0.12291483 0)
(162.18299 0.15272548 0)
(161.89858 0.18094791 0)
(161.58741 0.20727013 0)
(161.25143 0.23142764 0)
(160.89286 0.25320234 0)
(160.51406 0.27242279 0)
(160.11755 0.28896411 0)
(159.70595 0.30274691 0)
(159.28192 0.31373523 0)
(158.84815 0.32193354 0)
(158.4073 0.32738315 0)
(157.96197 0.33015789 0)
(157.51469 0.33035952 0)
(157.06785 0.32811295 0)
(156.62375 0.32356145 0)
(156.18452 0.31686198 0)
(155.75215 0.30818083 0)
(155.32846 0.29768955 0)
(154.9151 0.28556143 0)
(154.51358 0.27196834 0)
(154.12522 0.25707813 0)
(153.75119 0.24105261 0)
(153.39253 0.22404591 0)
(153.05011 0.20620342 0)
(152.72469 0.18766117 0)
(152.41689 0.16854576 0)
(152.12722 0.14897459 0)
(151.85608 0.12905688 0)
(151.60378 0.10889502 0)
(151.37052 0.088588091 0)
(151.15644 0.068237022 0)
(150.96156 0.047950818 0)
(150.78582 0.027847163 0)
(150.62909 0.0080642726 0)
(150.49108 -0.011130161 0)
(150.37167 -0.029173662 0)
(150.27161 -0.045631195 0)
(150.1866 -0.059761947 0)
(150.10767 -0.073922496 0)
(150.03435 -0.067419611 0)
(159.36489 -0.075020253 0)
(159.3968 -0.096119223 0)
(159.43504 -0.11997186 0)
(159.48364 -0.14477366 0)
(159.54372 -0.17030033 0)
(159.6154 -0.19637246 0)
(159.69865 -0.22275249 0)
(159.79323 -0.24915769 0)
(159.89877 -0.27527877 0)
(160.01477 -0.30079114 0)
(160.14056 -0.32536431 0)
(160.27536 -0.34866732 0)
(160.41823 -0.37037579 0)
(160.56814 -0.39017649 0)
(160.72391 -0.40777363 0)
(160.88426 -0.42289329 0)
(161.04781 -0.43528924 0)
(161.2131 -0.44474693 0)
(161.3786 -0.45108854 0)
(161.54274 -0.45417637 0)
(161.70391 -0.45391667 0)
(161.8605 -0.45026214 0)
(162.01091 -0.44321429 0)
(162.15357 -0.43282483 0)
(162.28699 -0.41919626 0)
(162.40976 -0.40248199 0)
(162.52057 -0.38288511 0)
(162.61825 -0.36065711 0)
(162.7018 -0.33609475 0)
(162.77037 -0.30953738 0)
(162.82334 -0.28136203 0)
(162.86026 -0.25197929 0)
(162.88095 -0.22182709 0)
(162.88543 -0.19136439 0)
(162.874 -0.16106488 0)
(162.84717 -0.13140864 0)
(162.80574 -0.10287476 0)
(162.75071 -0.075932571 0)
(162.68334 -0.051034336 0)
(162.6051 -0.028607126 0)
(162.51766 -0.0090452087 0)
(162.42287 0.00730085 0)
(162.32273 0.020133836 0)
(162.21937 0.029215867 0)
(162.11501 0.034362925 0)
(162.0119 0.035465065 0)
(161.91231 0.032488879 0)
(161.81848 0.025476885 0)
(161.73259 0.014549447 0)
(161.65667 -9.3684008e-05 0)
(161.59264 -0.018175744 0)
(161.54217 -0.039346475 0)
(161.50674 -0.063185175 0)
(161.48755 -0.089207644 0)
(161.48547 -0.11687812 0)
(161.50107 -0.1456132 0)
(161.53458 -0.17479363 0)
(161.58585 -0.20377568 0)
(161.65436 -0.23190242 0)
(161.73924 -0.25851653 0)
(161.83923 -0.28297297 0)
(161.95272 -0.3046517 0)
(162.07778 -0.3229704 0)
(162.21215 -0.33739643 0)
(162.35331 -0.34745809 0)
(162.49848 -0.35275486 0)
(162.64471 -0.35296639 0)
(162.78889 -0.34785982 0)
(162.9278 -0.33729558 0)
(163.05822 -0.32123101 0)
(163.1769 -0.29972218 0)
(163.28069 -0.27292358 0)
(163.36656 -0.24108531 0)
(163.43166 -0.20455067 0)
(163.47338 -0.16374165 0)
(163.48935 -0.11914815 0)
(163.47756 -0.071343387 0)
(163.43633 -0.020955843 0)
(163.36438 0.031358932 0)
(163.26079 0.084894374 0)
(163.12511 0.1389488 0)
(162.95728 0.19281333 0)
(162.75761 0.2457997 0)
(162.52679 0.29729749 0)
(162.2659 0.34674138 0)
(161.97636 0.39357536 0)
(161.65991 0.43730205 0)
(161.31856 0.47749306 0)
(160.95453 0.51379342 0)
(160.57023 0.54592377 0)
(160.16822 0.57368056 0)
(159.75116 0.59693454 0)
(159.32174 0.61562746 0)
(158.88267 0.62976722 0)
(158.43665 0.63942191 0)
(157.9863 0.6447128 0)
(157.53416 0.64580682 0)
(157.08266 0.64290866 0)
(156.6341 0.6362529 0)
(156.19062 0.6260964 0)
(155.75422 0.6127111 0)
(155.32672 0.5963774 0)
(154.90977 0.57737831 0)
(154.50487 0.55599438 0)
(154.11335 0.53249939 0)
(153.73638 0.50715705 0)
(153.37498 0.4802183 0)
(153.03002 0.45191956 0)
(152.70224 0.42248164 0)
(152.39227 0.39210936 0)
(152.1006 0.36099178 0)
(151.82762 0.32930313 0)
(151.57364 0.29720423 0)
(151.33885 0.26484619 0)
(151.12338 0.23237396 0)
(150.92727 0.19992734 0)
(150.75043 0.16764056 0)
(150.59267 0.13567964 0)
(150.45383 0.10435007 0)
(150.33379 0.074143382 0)
(150.23279 0.045234182 0)
(150.14681 0.019414014 0)
(150.07302 -0.0072168012 0)
(150.01978 -0.018485476 0)
(159.52339 -0.10717254 0)
(159.56239 -0.13514373 0)
(159.60755 -0.16542189 0)
(159.66345 -0.19694969 0)
(159.73072 -0.22924001 0)
(159.80929 -0.26193518 0)
(159.899 -0.29468315 0)
(159.99949 -0.32711264 0)
(160.11026 -0.3588363 0)
(160.23069 -0.38945561 0)
(160.36003 -0.41856941 0)
(160.4974 -0.44577937 0)
(160.64182 -0.47069779 0)
(160.79219 -0.49295286 0)
(160.94731 -0.51219626 0)
(161.10589 -0.52810829 0)
(161.26657 -0.54040498 0)
(161.42793 -0.54884287 0)
(161.58849 -0.55322525 0)
(161.74674 -0.55340631 0)
(161.90117 -0.54929589 0)
(162.05025 -0.54086269 0)
(162.19251 -0.52813714 0)
(162.3265 -0.51121328 0)
(162.45082 -0.49024943 0)
(162.56419 -0.46546846 0)
(162.66542 -0.43715613 0)
(162.75345 -0.4056595 0)
(162.82736 -0.37138287 0)
(162.88641 -0.33478431 0)
(162.93003 -0.29636921 0)
(162.95787 -0.256685 0)
(162.96976 -0.21631273 0)
(162.96579 -0.1758591 0)
(162.94626 -0.13594795 0)
(162.91172 -0.097209283 0)
(162.86294 -0.060269605 0)
(162.80094 -0.025738829 0)
(162.72696 0.0057967291 0)
(162.64245 0.033785783 0)
(162.54908 0.057722937 0)
(162.44868 0.077167053 0)
(162.34324 0.091738588 0)
(162.23489 0.10113159 0)
(162.12582 0.10514142 0)
(162.0183 0.10365259 0)
(161.91461 0.096644515 0)
(161.81699 0.084201982 0)
(161.72763 0.066514826 0)
(161.6486 0.043876302 0)
(161.5818 0.016681562 0)
(161.52897 -0.014577418 0)
(161.49157 -0.049313308 0)
(161.47084 -0.086852054 0)
(161.46767 -0.12644971 0)
(161.48265 -0.16730704 0)
(161.51599 -0.20857712 0)
(161.56755 -0.24938069 0)
(161.63683 -0.28882321 0)
(161.72292 -0.32601056 0)
(161.82455 -0.36006653 0)
(161.9401 -0.39015012 0)
(162.06758 -0.41547256 0)
(162.20472 -0.43531334 0)
(162.34894 -0.44903547 0)
(162.49741 -0.45609933 0)
(162.64713 -0.4560749 0)
(162.79493 -0.44865166 0)
(162.93753 -0.4336466 0)
(163.07164 -0.41100908 0)
(163.19395 -0.38082351 0)
(163.30123 -0.3433088 0)
(163.39041 -0.29881452 0)
(163.45856 -0.24781926 0)
(163.50302 -0.19090162 0)
(163.52137 -0.12874308 0)
(163.51156 -0.062138508 0)
(163.47187 0.0080555866 0)
(163.40099 0.080925774 0)
(163.29798 0.15552418 0)
(163.16236 0.23088545 0)
(162.99405 0.30603614 0)
(162.79338 0.38001016 0)
(162.56108 0.4519002 0)
(162.29828 0.52087072 0)
(162.00644 0.58614878 0)
(161.68734 0.64704415 0)
(161.34305 0.70296139 0)
(160.97585 0.75340698 0)
(160.58822 0.797993 0)
(160.18276 0.83643769 0)
(159.76219 0.86856341 0)
(159.32926 0.8942919 0)
(158.88674 0.91363758 0)
(158.43735 0.92669905 0)
(157.98377 0.93364924 0)
(157.52856 0.93472478 0)
(157.07417 0.930215 0)
(156.62294 0.92045079 0)
(156.17701 0.905794 0)
(155.73838 0.88662732 0)
(155.30888 0.86334517 0)
(154.89018 0.83634547 0)
(154.48375 0.80602272 0)
(154.09093 0.77276213 0)
(153.71286 0.73693506 0)
(153.35055 0.69889561 0)
(153.00488 0.65897834 0)
(152.67656 0.61749711 0)
(152.3662 0.57474508 0)
(152.07429 0.53099552 0)
(151.80122 0.48650404 0)
(151.54727 0.44151189 0)
(151.31264 0.39625164 0)
(151.09744 0.35095322 0)
(150.90171 0.30584767 0)
(150.72539 0.26117505 0)
(150.56833 0.21723204 0)
(150.43045 0.17445771 0)
(150.3116 0.13340569 0)
(150.21166 0.094387066 0)
(150.12718 0.061214351 0)
(150.05838 0.028915881 0)
(150.01442 0.0087649127 0)
(159.52697 -0.11607226 0)
(159.56421 -0.15222841 0)
(159.6089 -0.19043998 0)
(159.66483 -0.23007958 0)
(159.73246 -0.27058501 0)
(159.81168 -0.31147306 0)
(159.90228 -0.35227337 0)
(160.00389 -0.39250673 0)
(160.11601 -0.43168451 0)
(160.23799 -0.46931164 0)
(160.36905 -0.50489464 0)
(160.50832 -0.53794718 0)
(160.65477 -0.56799912 0)
(160.80728 -0.59460234 0)
(160.96463 -0.61733956 0)
(161.12551 -0.63583029 0)
(161.28855 -0.64973895 0)
(161.45228 -0.65878048 0)
(161.61521 -0.66272743 0)
(161.77582 -0.66141477 0)
(161.93257 -0.65474542 0)
(162.08392 -0.64269399 0)
(162.22836 -0.62531017 0)
(162.36441 -0.60272103 0)
(162.49068 -0.57513192 0)
(162.60584 -0.54282702 0)
(162.70867 -0.50616747 0)
(162.79809 -0.46558982 0)
(162.87316 -0.42160131 0)
(162.93309 -0.37477607 0)
(162.97729 -0.32574748 0)
(163.00539 -0.27520201 0)
(163.01719 -0.2238691 0)
(163.01275 -0.17251157 0)
(162.99237 -0.12191523 0)
(162.95656 -0.072875489 0)
(162.90611 -0.026183806 0)
(162.84204 0.017389484 0)
(162.76557 0.057097615 0)
(162.67821 0.092236302 0)
(162.58164 0.12216649 0)
(162.47773 0.14631321 0)
(162.36852 0.16419495 0)
(162.25618 0.17543689 0)
(162.14299 0.17976801 0)
(162.03126 0.17703678 0)
(161.92335 0.1672229 0)
(161.82158 0.15043618 0)
(161.72823 0.12692175 0)
(161.64543 0.097060504 0)
(161.57519 0.061364769 0)
(161.51928 0.020471935 0)
(161.47927 -0.024863297 0)
(161.45644 -0.073769943 0)
(161.45173 -0.12528573 0)
(161.46579 -0.17837735 0)
(161.49885 -0.23194831 0)
(161.55081 -0.28486121 0)
(161.62115 -0.33595966 0)
(161.70896 -0.38408847 0)
(161.81297 -0.42811613 0)
(161.93151 -0.46695726 0)
(162.06256 -0.49959483 0)
(162.20378 -0.52510066 0)
(162.35253 -0.54265505 0)
(162.5059 -0.55156473 0)
(162.66081 -0.55127857 0)
(162.81398 -0.54140037 0)
(162.96205 -0.52169914 0)
(163.10162 -0.49211538 0)
(163.22928 -0.45276453 0)
(163.34171 -0.40393626 0)
(163.43572 -0.34608967 0)
(163.50832 -0.27985057 0)
(163.55674 -0.20597606 0)
(163.57852 -0.12535848 0)
(163.57153 -0.039035776 0)
(163.53401 0.051882091 0)
(163.46461 0.14621248 0)
(163.36238 0.24272955 0)
(163.22683 0.34018282 0)
(163.05789 0.43732441 0)
(162.85592 0.53293127 0)
(162.62169 0.62583812 0)
(162.35636 0.71495757 0)
(162.06147 0.7992928 0)
(161.73886 0.87795575 0)
(161.39067 0.95018095 0)
(161.01926 1.0153347 0)
(160.62719 1.0729199 0)
(160.21715 1.122577 0)
(159.79191 1.1640809 0)
(159.35432 1.1973353 0)
(158.90719 1.2223632 0)
(158.45331 1.2392961 0)
(157.99541 1.2483612 0)
(157.5361 1.2498669 0)
(157.07787 1.2441891 0)
(156.62305 1.2317562 0)
(156.17383 1.2130354 0)
(155.7322 1.1885197 0)
(155.30001 1.1587159 0)
(154.87891 1.1241338 0)
(154.47038 1.0852777 0)
(154.07573 1.0426384 0)
(153.6961 0.99668712 0)
(153.33248 0.94787156 0)
(152.98572 0.89661234 0)
(152.65653 0.8433016 0)
(152.34549 0.78830254 0)
(152.05308 0.73195024 0)
(151.77966 0.67455393 0)
(151.52551 0.61640066 0)
(151.29082 0.55776115 0)
(151.07571 0.4988959 0)
(150.88021 0.44006124 0)
(150.70429 0.38152426 0)
(150.54786 0.32360893 0)
(150.41094 0.26674519 0)
(150.29332 0.21140505 0)
(150.19495 0.15795003 0)
(150.1132 0.11185467 0)
(150.0496 0.066238575 0)
(150.01172 0.030483641 0)
(159.52146 -0.14033116 0)
(159.55705 -0.18416835 0)
(159.60061 -0.22986176 0)
(159.65573 -0.27695557 0)
(159.72293 -0.32485737 0)
(159.80208 -0.37300534 0)
(159.89295 -0.4208399 0)
(159.99519 -0.46779404 0)
(160.1083 -0.5132945 0)
(160.23163 -0.55676407 0)
(160.36441 -0.59763046 0)
(160.50573 -0.63533203 0)
(160.65456 -0.66932788 0)
(160.80978 -0.69910441 0)
(160.97012 -0.72418533 0)
(161.13426 -0.74413831 0)
(161.30077 -0.75858433 0)
(161.46818 -0.76720397 0)
(161.63494 -0.76974555 0)
(161.79949 -0.76603067 0)
(161.96023 -0.75596052 0)
(162.11558 -0.7395203 0)
(162.26398 -0.71678316 0)
(162.4039 -0.687913 0)
(162.53387 -0.65316563 0)
(162.65253 -0.61288958 0)
(162.75859 -0.56752404 0)
(162.85093 -0.51759732 0)
(162.92854 -0.46372137 0)
(162.99059 -0.40658754 0)
(163.03646 -0.34695771 0)
(163.06572 -0.28565711 0)
(163.07815 -0.22356236 0)
(163.07378 -0.16159017 0)
(163.05288 -0.10068499 0)
(163.01599 -0.041803723 0)
(162.96387 0.014106722 0)
(162.89755 0.066118771 0)
(162.81831 0.11332967 0)
(162.72766 0.15489627 0)
(162.62733 0.19004772 0)
(162.51926 0.2180962 0)
(162.40554 0.23847049 0)
(162.28842 0.25071421 0)
(162.17026 0.25450508 0)
(162.05345 0.24966937 0)
(161.94046 0.23618618 0)
(161.83371 0.21419689 0)
(161.73555 0.18400757 0)
(161.64824 0.14608905 0)
(161.57385 0.10107338 0)
(161.51429 0.049748525 0)
(161.47118 -0.0069598633 0)
(161.44587 -0.067982735 0)
(161.4394 -0.13213433 0)
(161.45243 -0.19814523 0)
(161.48528 -0.26467332 0)
(161.53783 -0.33032629 0)
(161.6096 -0.39368722 0)
(161.69967 -0.45334141 0)
(161.80674 -0.50790271 0)
(161.9291 -0.55604099 0)
(162.06468 -0.59650962 0)
(162.21107 -0.62817086 0)
(162.36554 -0.65001962 0)
(162.52511 -0.66120548 0)
(162.68656 -0.66105215 0)
(162.84652 -0.64907333 0)
(163.00149 -0.62498545 0)
(163.14795 -0.58871553 0)
(163.28237 -0.54040562 0)
(163.4013 -0.480412 0)
(163.50143 -0.40929993 0)
(163.57966 -0.32783702 0)
(163.6331 -0.23696298 0)
(163.65923 -0.13777427 0)
(163.65581 -0.031546382 0)
(163.62106 0.080354364 0)
(163.55355 0.19645322 0)
(163.45233 0.31522697 0)
(163.31689 0.43512618 0)
(163.14717 0.5546057 0)
(162.94358 0.67215691 0)
(162.70692 0.78634057 0)
(162.43844 0.89581217 0)
(162.13973 0.99934332 0)
(161.81272 1.0958422 0)
(161.45966 1.1843697 0)
(161.08299 1.2641506 0)
(160.68538 1.3345794 0)
(160.26961 1.3952212 0)
(159.83857 1.445808 0)
(159.39518 1.4862312 0)
(158.94233 1.51653 0)
(158.48291 1.5368772 0)
(158.01969 1.5475633 0)
(157.55533 1.5489788 0)
(157.09236 1.5415965 0)
(156.63316 1.525953 0)
(156.17993 1.5026319 0)
(155.73468 1.4722474 0)
(155.29925 1.4354296 0)
(154.87529 1.3928119 0)
(154.46426 1.3450194 0)
(154.06748 1.2926599 0)
(153.68605 1.2363168 0)
(153.32094 1.1765438 0)
(152.97298 1.113861 0)
(152.64286 1.0487529 0)
(152.33112 0.98166845 0)
(152.03823 0.91302111 0)
(151.76452 0.84319191 0)
(151.51025 0.77253292 0)
(151.27559 0.70137259 0)
(151.06064 0.63002105 0)
(150.86543 0.55877656 0)
(150.68994 0.48794126 0)
(150.53412 0.41785559 0)
(150.39798 0.34891072 0)
(150.28131 0.28147862 0)
(150.18418 0.21588556 0)
(150.10461 0.15869165 0)
(150.04462 0.10014029 0)
(150.01032 0.048945901 0)
(159.5192 -0.15160005 0)
(159.55198 -0.2037255 0)
(159.59404 -0.25779891 0)
(159.64807 -0.31335443 0)
(159.71462 -0.36973469 0)
(159.79357 -0.42628743 0)
(159.8847 -0.48235312 0)
(159.98765 -0.53726277 0)
(160.10193 -0.59034261 0)
(160.22689 -0.6409176 0)
(160.36175 -0.68832136 0)
(160.50559 -0.73190253 0)
(160.65738 -0.77103607 0)
(160.81594 -0.80513049 0)
(160.98001 -0.83363906 0)
(161.1482 -0.85606724 0)
(161.31907 -0.87198311 0)
(161.49107 -0.88102441 0)
(161.66263 -0.88290763 0)
(161.8321 -0.87743426 0)
(161.99786 -0.86449794 0)
(162.15824 -0.84408943 0)
(162.31161 -0.81630127 0)
(162.45637 -0.78133103 0)
(162.59101 -0.73948282 0)
(162.71407 -0.69116846 0)
(162.82421 -0.63690535 0)
(162.92022 -0.57731497 0)
(163.00104 -0.51311688 0)
(163.06579 -0.44512412 0)
(163.11378 -0.37423316 0)
(163.14454 -0.30141587 0)
(163.15781 -0.22770578 0)
(163.15359 -0.15418483 0)
(163.13213 -0.081970001 0)
(163.09396 -0.012193013 0)
(163.03983 0.054027439 0)
(162.97081 0.11558449 0)
(162.88819 0.17140293 0)
(162.79355 0.22048734 0)
(162.68864 0.26190628 0)
(162.57548 0.29485591 0)
(162.45626 0.3186462 0)
(162.33329 0.33273321 0)
(162.20904 0.33673342 0)
(162.08603 0.3304363 0)
(161.96682 0.31381706 0)
(161.85396 0.28704326 0)
(161.74993 0.25047959 0)
(161.65709 0.20468762 0)
(161.57765 0.1504216 0)
(161.51361 0.088622428 0)
(161.46672 0.020398653 0)
(161.4384 -0.052977449 0)
(161.42977 -0.13008947 0)
(161.44158 -0.20941686 0)
(161.47416 -0.28935583 0)
(161.52746 -0.36823662 0)
(161.60097 -0.4443622 0)
(161.6938 -0.51603913 0)
(161.8046 -0.58160795 0)
(161.93162 -0.63947642 0)
(162.07273 -0.68815254 0)
(162.22541 -0.7262749 0)
(162.38686 -0.75264114 0)
(162.55395 -0.76623437 0)
(162.72336 -0.76624648 0)
(162.89155 -0.75209716 0)
(163.05491 -0.72344918 0)
(163.20973 -0.68021789 0)
(163.35234 -0.6225766 0)
(163.47915 -0.55095545 0)
(163.58669 -0.4660363 0)
(163.67172 -0.36874035 0)
(163.73123 -0.26020701 0)
(163.7626 -0.14175124 0)
(163.7635 -0.014901879 0)
(163.73206 0.11869859 0)
(163.6668 0.25729687 0)
(163.56676 0.39906703 0)
(163.43141 0.54215203 0)
(163.26071 0.68470079 0)
(163.0551 0.82490699 0)
(162.81546 0.96104623 0)
(162.54309 1.091508 0)
(162.2397 1.2148235 0)
(161.90732 1.3296899 0)
(161.54829 1.4349889 0)
(161.16521 1.5298003 0)
(160.76084 1.6134084 0)
(160.3381 1.6853031 0)
(159.89999 1.7451754 0)
(159.44954 1.7929069 0)
(158.98975 1.8285565 0)
(158.52359 1.8523426 0)
(158.05389 1.8646236 0)
(157.58341 1.8658764 0)
(157.11471 1.8566742 0)
(156.65019 1.8376652 0)
(156.1921 1.8095515 0)
(155.74245 1.7730699 0)
(155.30309 1.7289738 0)
(154.87566 1.6780184 0)
(154.46161 1.6209472 0)
(154.06223 1.5584813 0)
(153.67861 1.4913112 0)
(153.31169 1.4200902 0)
(152.96227 1.3454306 0)
(152.631 1.2679019 0)
(152.31842 1.1880299 0)
(152.02493 1.1062982 0)
(151.75088 1.0231517 0)
(151.49647 0.93900086 0)
(151.26187 0.85422757 0)
(151.04718 0.76919165 0)
(150.85239 0.68423957 0)
(150.67751 0.59972087 0)
(150.5225 0.51601314 0)
(150.38737 0.43351792 0)
(150.27188 0.35261472 0)
(150.17623 0.27369761 0)
(150.09876 0.20435512 0)
(150.04152 0.13201295 0)
(150.0095 0.06564568 0)
(159.52018 -0.16991273 0)
(159.55056 -0.23017316 0)
(159.59117 -0.29242348 0)
(159.64411 -0.35618629 0)
(159.71007 -0.42074401 0)
(159.78891 -0.48536708 0)
(159.88042 -0.5493087 0)
(159.98428 -0.61180801 0)
(160.09997 -0.67209875 0)
(160.22686 -0.72941389 0)
(160.36416 -0.78299725 0)
(160.51095 -0.83211075 0)
(160.66615 -0.87604706 0)
(160.82857 -0.91413776 0)
(160.99692 -0.94576594 0)
(161.16977 -0.97037444 0)
(161.34563 -0.98747766 0)
(161.5229 -0.99666939 0)
(161.69993 -0.99763305 0)
(161.87505 -0.99014881 0)
(162.04652 -0.97410158 0)
(162.21263 -0.94948687 0)
(162.37167 -0.91641593 0)
(162.52195 -0.87511982 0)
(162.66189 -0.82595112 0)
(162.78994 -0.76938553 0)
(162.90469 -0.70601964 0)
(163.00485 -0.63656953 0)
(163.0893 -0.56186408 0)
(163.15707 -0.48284005 0)
(163.20741 -0.40053068 0)
(163.2398 -0.3160568 0)
(163.25395 -0.23061124 0)
(163.2498 -0.14544326 0)
(163.2276 -0.061845905 0)
(163.18786 0.018876804 0)
(163.13132 0.095426503 0)
(163.05909 0.16651492 0)
(162.97249 0.23090062 0)
(162.87313 0.28742416 0)
(162.76285 0.33500772 0)
(162.64372 0.37270723 0)
(162.51804 0.39972036 0)
(162.38822 0.41540943 0)
(162.25685 0.41932479 0)
(162.12658 0.4112178 0)
(162.0001 0.39105599 0)
(161.8801 0.35903197 0)
(161.76919 0.31556841 0)
(161.66989 0.26131891 0)
(161.58455 0.19716306 0)
(161.51529 0.12419803 0)
(161.46397 0.043724012 0)
(161.43215 -0.042776659 0)
(161.42103 -0.13364652 0)
(161.43142 -0.22710265 0)
(161.46374 -0.32126824 0)
(161.51794 -0.41419435 0)
(161.59357 -0.50389612 0)
(161.68968 -0.58839154 0)
(161.80492 -0.66573817 0)
(161.93748 -0.73407131 0)
(162.08514 -0.79164233 0)
(162.2453 -0.83685497 0)
(162.41501 -0.8682987 0)
(162.59104 -0.88477978 0)
(162.76987 -0.88534867 0)
(162.94784 -0.86932265 0)
(163.12114 -0.83630383 0)
(163.28588 -0.78619075 0)
(163.43822 -0.71918469 0)
(163.57437 -0.63578849 0)
(163.69069 -0.53680124 0)
(163.7838 -0.42330352 0)
(163.85052 -0.29663941 0)
(163.88812 -0.15834756 0)
(163.89412 -0.010219551 0)
(163.86661 0.14581153 0)
(163.80404 0.30766944 0)
(163.70539 0.47320701 0)
(163.57014 0.64024084 0)
(163.39828 0.8065964 0)
(163.19028 0.97015307 0)
(162.9471 1.1288871 0)
(162.67014 1.2809104 0)
(162.3612 1.4245036 0)
(162.02246 1.5581452 0)
(161.65639 1.6805334 0)
(161.26573 1.7906012 0)
(160.85339 1.8875238 0)
(160.42245 1.9707201 0)
(159.97602 2.0398458 0)
(159.51728 2.0947815 0)
(159.04935 2.1356162 0)
(158.57529 2.1626254 0)
(158.09804 2.1762477 0)
(157.62041 2.1770592 0)
(157.14504 2.1657471 0)
(156.67436 2.1430839 0)
(156.21064 2.1099029 0)
(155.75592 2.0670749 0)
(155.31203 2.0154879 0)
(154.88062 1.956029 0)
(154.46312 1.8895689 0)
(154.06079 1.8169498 0)
(153.67468 1.7389756 0)
(153.30572 1.6564045 0)
(152.95465 1.5699449 0)
(152.6221 1.4802525 0)
(152.30856 1.3879302 0)
(152.01441 1.2935293 0)
(151.73995 1.1975527 0)
(151.48537 1.1004601 0)
(151.2508 1.002673 0)
(151.03631 0.90458224 0)
(150.8419 0.80655699 0)
(150.66757 0.7089598 0)
(150.51329 0.61216349 0)
(150.37907 0.51654309 0)
(150.26465 0.42245929 0)
(150.17036 0.33031716 0)
(150.09469 0.24867456 0)
(150.03948 0.16236489 0)
(150.00899 0.08126855 0)
(159.52392 -0.18071838 0)
(159.55123 -0.24966619 0)
(159.59018 -0.32076946 0)
(159.64194 -0.39348692 0)
(159.70726 -0.46701629 0)
(159.78602 -0.54053536 0)
(159.87804 -0.61319781 0)
(159.98299 -0.68413979 0)
(160.10038 -0.75249137 0)
(160.22955 -0.81738283 0)
(160.36972 -0.87795811 0)
(160.51994 -0.93338294 0)
(160.67912 -0.98285901 0)
(160.84604 -1.025633 0)
(161.01935 -1.0610104 0)
(161.19759 -1.0883649 0)
(161.37921 -1.1071512 0)
(161.56256 -1.1169137 0)
(161.74591 -1.1172978 0)
(161.92752 -1.1080583 0)
(162.10558 -1.0890676 0)
(162.27828 -1.060323 0)
(162.44383 -1.0219522 0)
(162.60047 -0.97421829 0)
(162.7465 -0.91752166 0)
(162.8803 -0.85240226 0)
(163.00035 -0.77953737 0)
(163.10529 -0.6997403 0)
(163.1939 -0.61395326 0)
(163.26514 -0.52324211 0)
(163.3182 -0.42878382 0)
(163.35248 -0.33185672 0)
(163.36762 -0.23382298 0)
(163.36356 -0.13611087 0)
(163.34049 -0.040202967 0)
(163.29891 0.052411076 0)
(163.23959 0.1402353 0)
(163.16363 0.22178428 0)
(163.0724 0.29563678 0)
(162.96754 0.36044104 0)
(162.851 0.41497113 0)
(162.72494 0.45812957 0)
(162.59173 0.48898731 0)
(162.45394 0.50680375 0)
(162.31428 0.51105366 0)
(162.17555 0.5014442 0)
(162.0406 0.47793085 0)
(161.91227 0.44072885 0)
(161.79335 0.39031881 0)
(161.68653 0.32744803 0)
(161.5943 0.25312537 0)
(161.51894 0.1686106 0)
(161.46247 0.075401746 0)
(161.42656 -0.02479779 0)
(161.41253 -0.13007642 0)
(161.42128 -0.23838014 0)
(161.45327 -0.34754498 0)
(161.50853 -0.4553172 0)
(161.5866 -0.55940267 0)
(161.68653 -0.65751085 0)
(161.80693 -0.74739591 0)
(161.94593 -0.82690138 0)
(162.10121 -0.89400482 0)
(162.27006 -0.94685926 0)
(162.44939 -0.98383211 0)
(162.6358 -1.0035412 0)
(162.82561 -1.0048865 0)
(163.01494 -0.9870768 0)
(163.19979 -0.94965042 0)
(163.37607 -0.89248891 0)
(163.53971 -0.81582455 0)
(163.68672 -0.72023918 0)
(163.81326 -0.60665739 0)
(163.91575 -0.47633465 0)
(163.99084 -0.33083427 0)
(164.03565 -0.17193272 0)
(164.04758 -0.0017060242 0)
(164.02461 0.17760525 0)
(163.96512 0.3636071 0)
(163.86806 0.55381305 0)
(163.73289 0.74569447 0)
(163.55962 0.93673429 0)
(163.3488 1.1244792 0)
(163.10145 1.3065895 0)
(162.81909 1.4808844 0)
(162.50365 1.6453818 0)
(162.15747 1.7983314 0)
(161.78317 1.9382404 0)
(161.38367 2.0638906 0)
(160.96205 2.1743471 0)
(160.52154 2.2689587 0)
(160.06545 2.3473498 0)
(159.59709 2.4094061 0)
(159.11972 2.4552535 0)
(158.63652 2.4852333 0)
(158.15054 2.4998735 0)
(157.66467 2.4998587 0)
(157.1816 2.485999 0)
(156.70385 2.4591999 0)
(156.23367 2.4204334 0)
(155.77314 2.3707116 0)
(155.32409 2.3110625 0)
(154.88815 2.2425102 0)
(154.46674 2.1660567 0)
(154.06106 2.0826685 0)
(153.67217 1.9932654 0)
(153.30092 1.8987132 0)
(152.94804 1.7998184 0)
(152.61409 1.6973259 0)
(152.29953 1.5919188 0)
(152.0047 1.4842201 0)
(151.72985 1.3747962 0)
(151.47514 1.2641623 0)
(151.24067 1.1527879 0)
(151.02649 1.0411038 0)
(150.83258 0.92951191 0)
(150.6589 0.81839625 0)
(150.50543 0.70813349 0)
(150.37216 0.59908433 0)
(150.25884 0.4915932 0)
(150.16585 0.38603741 0)
(150.09171 0.2919204 0)
(150.03806 0.19161775 0)
(150.00865 0.09618673 0)
(159.52963 -0.19420589 0)
(159.55392 -0.27193301 0)
(159.59114 -0.35195935 0)
(159.64165 -0.43369843 0)
(159.70632 -0.51626528 0)
(159.78506 -0.59874804 0)
(159.87771 -0.68020456 0)
(159.98394 -0.75967017 0)
(160.10326 -0.83617248 0)
(160.23504 -0.90873897 0)
(160.37846 -0.97641234 0)
(160.53257 -1.0382598 0)
(160.69624 -1.0933891 0)
(160.86823 -1.1409582 0)
(161.04713 -1.1801911 0)
(161.23145 -1.2103879 0)
(161.41955 -1.2309391 0)
(161.60973 -1.2413354 0)
(161.8002 -1.2411803 0)
(161.9891 -1.230199 0)
(162.17456 -1.2082483 0)
(162.35468 -1.1753242 0)
(162.52755 -1.1315685 0)
(162.69133 -1.0772747 0)
(162.84421 -1.01289 0)
(162.98447 -0.93901838 0)
(163.11049 -0.85641831 0)
(163.2208 -0.76600173 0)
(163.31409 -0.66882627 0)
(163.38924 -0.56608981 0)