/*--------------------------------*- C++ -*----------------------------------*\
| =========                 |                                                 |
| \\      /  F ield         | foam-extend: Open Source CFD                    |
|  \\    /   O peration     | Version:     4.1                                |
|   \\  /    A nd           | Web:         http://www.foam-extend.org         |
|    \\/     M anipulation  |                                                 |
\*---------------------------------------------------------------------------*/
FoamFile
{
    version     2.0;
    format      ascii;
    class       volScalarField;
    location    "3";
    object      p;
}
// * * * * * * * * * * * * * * * * * * * * * * * * * * * * * * * * * * * * * //

dimensions      [0 2 -2 0 0 0 0];

internalField   nonuniform List<scalar> 
4393
(
-46.418263
-92.981782
-146.74655
-201.53761
-258.52837
-318.02953
-380.42403
-446.02143
-515.04598
-587.60783
-663.67494
-743.04489
-825.31957
-909.8864
-995.91013
-1082.3382
-1167.9201
-1251.2384
-1330.7461
-1404.8058
-1471.7262
-1529.797
-1577.3236
-1612.668
-1634.3029
-1640.8851
-1631.3602
-1605.1084
-1562.0228
-1502.6036
-1428.0621
-1340.3037
-1241.823
-1135.5203
-1024.4762
-911.72548
-800.06751
-691.93493
-589.32487
-493.78551
-406.44428
-328.06225
-259.09998
-199.78332
-150.17361
-110.23988
-79.762798
-57.831854
-43.627558
-45.166099
-92.395961
-146.03397
-200.6738
-257.49544
-316.84181
-379.10948
-444.62006
-513.60967
-586.20051
-662.37213
-741.93221
-824.48966
-909.43439
-995.92795
-1082.9088
-1169.1126
-1253.1057
-1333.3242
-1408.1148
-1475.7714
-1534.5693
-1582.797
-1618.7951
-1641.0072
-1648.0565
-1638.8535
-1612.7034
-1569.4357
-1509.5437
-1434.2444
-1345.4781
-1245.805
-1138.2113
-1025.8676
-911.88836
-799.13328
-690.07159
-586.71485
-490.60787
-402.8624
-324.21694
-255.1094
-195.75282
-146.20006
-106.35978
-75.961139
-54.862204
-44.264032
-44.36186
-91.499208
-144.77569
-199.05474
-255.52555
-314.56069
-376.57881
-441.92384
-510.85501
-583.51821
-659.91585
-739.87521
-823.01857
-908.73968
-996.19213
-1084.2944
-1171.753
-1257.0993
-1338.735
-1414.9748
-1484.084
-1544.3098
-1593.9088
-1631.1782
-1654.5009
-1662.4205
-1653.7587
-1627.7377
-1584.0952
-1523.2529
-1446.4217
-1355.6115
-1253.5189
-1143.3087
-1028.3376
-911.88342
-796.92583
-686.00454
-581.15519
-483.91006
-395.34327
-316.14171
-246.68945
-187.15585
-137.55032
-97.687485
-67.257376
-46.702451
-37.919922
-43.571141
-90.203462
-142.87197
-196.5725
-252.49929
-311.05351
-372.68264
-437.76258
-506.58735
-579.33936
-656.05684
-736.59849
-820.6087
-907.48873
-996.38104
-1086.1738
-1175.5277
-1262.921
-1346.7022
-1425.1385
-1496.4543
-1558.858
-1610.5619
-1649.8025
-1674.8746
-1684.1992
-1676.4519
-1650.7038
-1606.5446
-1544.289
-1465.1351
-1371.1988
-1265.3936
-1151.1691
-1032.1784
-911.95562
-793.66668
-679.95703
-572.89503
-473.98915
-384.25229
-304.29057
-234.40427
-174.68756
-125.07478
-85.290953
-55.021765
-34.933814
-26.78969
-42.746006
-88.586041
-140.40158
-193.2978
-248.47656
-306.36988
-367.46071
-432.16647
-500.82777
-573.67692
-650.80195
-732.10612
-817.2661
-905.69514
-996.52095
-1088.5888
-1180.4944
-1270.6401
-1357.3004
-1438.6788
-1512.948
-1578.2699
-1632.8041
-1674.7128
-1702.1779
-1713.4586
-1707.0288
-1681.7387
-1636.9526
-1572.8173
-1490.4973
-1392.2533
-1281.3113
-1161.5344
-1037.0023
-911.61289
-788.78856
-671.31332
-561.28981
-460.18257
-368.91117
-287.965
-217.52538
-157.57721
-107.95322
-68.29616
-38.299306
-18.682947
-10.926538
-41.737429
-86.536852
-137.25302
-189.11393
-243.33031
-300.36934
-360.75678
-424.96179
-493.38463
-566.32272
-643.93049
-726.17207
-812.76997
-903.15658
-996.44195
-1091.4139
-1186.5791
-1280.2365
-1370.5622
-1455.6794
-1533.7
-1602.7366
-1660.8932
-1706.2489
-1736.8498
-1750.7502
-1746.1561
-1721.6148
-1676.1686
-1609.7094
-1523.3298
-1419.4769
-1301.8085
-1174.7655
-1043.0174
-910.95424
-782.33277
-660.10504
-546.39963
-442.60477
-349.50265
-267.41919
-196.37182
-136.19465
-86.586275
-47.089999
-17.368249
1.8958015
9.4346239
-40.595499
-84.127136
-133.49113
-184.07001
-237.08784
-293.05292
-352.5415
-416.08536
-484.15845
-557.14056
-635.27196
-718.59791
-806.90478
-899.65504
-995.93924
-1094.4702
-1193.6348
-1291.5937
-1386.395
-1476.0636
-1558.646
-1632.2095
-1694.8099
-1744.4432
-1779.0046
-1796.3009
-1794.1934
-1770.8246
-1724.7861
-1655.5858
-1564.1759
-1453.2317
-1326.9984
-1190.7115
-1049.8409
-909.42553
-773.64306
-645.63619
-527.53669
-420.60827
-325.43809
-242.13212
-170.49372
-110.16451
-60.679373
-21.460242
7.9045668
26.824133
34.191398
-39.185996
-81.205515
-128.95639
-178.00153
-229.57694
-284.23723
-342.61677
-405.32119
-472.91357
-545.87556
-624.55645
-709.1079
-799.40428
-894.95465
-994.83015
-1097.6465
-1201.6303
-1304.757
-1404.9085
-1499.9921
-1587.9886
-1666.9346
-1734.8564
-1789.6809
-1829.1464
-1850.7722
-1851.9885
-1830.41
-1784.005
-1711.7088
-1614.2138
-1494.4629
-1357.497
-1209.6427
-1057.449
-906.79841
-762.38272
-627.5438
-504.37008
-393.9276
-296.52988
-211.99104
-139.84037
-79.480907
-30.252721
8.5661209
37.490622
56.044259
63.249015
-37.653437
-77.930901
-123.79681
-171.03278
-220.89014
-273.97541
-330.98863
-392.62096
-459.5415
-532.35637
-611.55177
-697.41805
-789.95085
-888.73157
-992.81667
-1100.698
-1210.3871
-1319.6099
-1426.0326
-1527.4227
-1621.703
-1706.9068
-1781.0683
-1842.0767
-1887.5227
-1914.6046
-1920.2261
-1901.323
-1855.0117
-1779.3757
-1674.6452
-1544.0576
-1393.739
-1231.5238
-1065.4176
-902.39081
-747.74662
-605.01038
-476.14608
-361.91615
-262.25612
-176.59896
-104.12998
-43.962748
4.7918091
43.024137
71.375247
89.494573
96.517386
-35.748803
-74.004792
-117.69202
-162.83146
-210.68176
-261.90413
-317.27062
-377.56948
-443.59395
-516.10021
-595.7446
-682.99648
-778.01768
-880.50083
-989.49973
-1103.3487
-1219.7668
-1336.1394
-1449.8468
-1558.4918
-1659.9566
-1752.3183
-1833.6801
-1901.9524
-1954.6108
-1988.5126
-1999.935
-1984.9549
-1939.5399
-1860.5122
-1747.297
-1603.4215
-1436.5071
-1256.5005
-1073.3825
-895.5184
-728.91314
-577.2174
-442.13747
-323.98053
-222.16684
-135.63907
-63.159095
-3.4976064
44.497009
81.904842
109.50795
127.08936
133.89307
-33.798622
-69.806205
-111.02783
-153.76784
-199.29472
-248.32721
-301.71441
-360.35237
-425.17724
-497.12392
-577.05806
-665.6784
-763.37396
-870.00836
-984.65996
-1105.4659
-1229.746
-1354.4134
-1476.467
-1593.3169
-1702.8399
-1803.231
-1892.7559
-1969.4398
-2030.7073
-2073.0752
-2092.1035
-2082.7925
-2039.5853
-1957.4484
-1834.4239
-1674.247
-1486.6339
-1284.544
-1080.6571
-885.11568
-704.69025
-543.02706
-401.36464
-279.3418
-175.68545
-88.716133
-16.683397
42.039923
88.898918
125.17924
151.81173
168.71764
175.2504
-31.322716
-64.748318
-103.16391
-143.16702
-186.01783
-232.49034
-283.51333
-340.10031
-403.35011
-474.40894
-554.39843
-644.30949
-744.84077
-856.11832
-977.2989
-1106.2775
-1239.8194
-1374.1692
-1505.8012
-1631.8962
-1750.3823
-1859.6798
-1958.3487
-2044.671
-2116.1353
-2168.957
-2197.9195
-2196.6905
-2157.7323
-2073.3251
-1939.1479
-1758.8893
-1545.2547
-1315.6013
-1086.3273
-869.81815
-673.60645
-501.08654
-352.70746
-227.14555
-122.20816
-35.439325
35.518741
92.743408
137.99784
172.78128
198.17349
214.23548
220.43301
-28.93534
-59.57498
-94.898012
-131.84679
-171.67515
-215.2101
-263.45958
-317.56058
-378.79191
-448.54466
-528.24807
-619.25832
-722.68925
-839.06408
-967.71654
-1106.253
-1250.6593
-1396.2151
-1538.6632
-1674.9217
-1803.0775
-1921.945
-2030.5691
-2127.6995
-2211.0797
-2276.7102
-2318.5362
-2328.6702
-2297.0933
-2212.1919
-2065.6516
-1860.4849
-1613.749
-1349.4066
-1089.0108
-847.73803
-633.73433
-449.70474
-294.8269
-166.41656
-61.08104
24.58639
93.646218
148.66975
191.75148
224.60104
248.43781
263.45947
269.24666
-25.834172
-53.293379
-85.133267
-118.6335
-155.00875
-195.12752
-240.071
-291.10177
-349.69452
-417.52224
-496.38331
-588.08821
-694.30509
-816.16049
-953.35321
-1103.1785
-1260.5217
-1419.2469
-1574.053
-1721.5571
-1860.1742
-1989.3359
-2108.7966
-2218.0396
-2315.3458
-2396.6697
-2455.0967
-2481.0196
-2461.4973
-2379.4186
-2219.7578
-1983.4121
-1693.8844
-1385.4096
-1086.7042
-816.33219
-582.61574
-386.83295
-226.18323
-96.09542
8.3590568
91.723123
157.84513
209.81655
250.0588
280.47349
302.39896
316.16004
321.45283
-22.98826
-47.105575
-75.194187
-104.93099
-137.49248
-173.7799
-214.93897
-262.35438
-317.70617
-382.98357
-460.41839
-552.36987
-661.22064
-788.98772
-936.05512
-1099.4239
-1272.3859
-1446.6586
-1615.3974
-1774.8818
-1924.1578
-2063.6282
-2194.0743
-2316.113
-2429.0544
-2529.1504
-2608.6682
-2656.1729
-2655.5151
-2582.0931
-2409.6772
-2133.8907
-1787.8779
-1422.5325
-1076.4499
-772.138
-517.10606
-310.00194
-145.03238
-15.06416
86.74935
166.26606
228.18041
276.10044
312.74434
340.16767
359.79326
372.05564
376.76348
-19.23399
-39.566094
-63.483922
-89.028594
-117.28542
-149.16086
-185.84168
-228.81593
-279.96321
-341.61477
-416.50473
-507.64514
-618.31808
-751.84265
-909.86961
-1089.2872
-1281.1049
-1473.7723
-1658.1736
-1830.2914
-1990.3736
-2140.3272
-2282.2794
-2418.3709
-2549.5394
-2672.7612
-2779.4819
-2856.4144
-2884.4359
-2829.5599
-2647.2457
-2321.0867
-1898.5222
-1458.8314
-1053.8853
-710.45759
-433.22492
-216.29655
-49.466519
77.790079
174.63862
248.39218
304.59783
347.33063
379.54077
403.37555
420.29213
430.808
434.83705
-15.909546
-32.36721
-51.889391
-72.946076
-96.528001
-123.52987
-155.16101
-192.99606
-239.10663
-296.19266
-367.57377
-457.02986
-568.92153
-708.39568
-879.33995
-1079.0095
-1295.0588
-1510.7433
-1713.4124
-1898.7622
-2069.1468
-2228.6983
-2381.1213
-2530.477
-2680.3852
-2829.6034
-2969.1763
-3084.3376
-3154.0985
-3134.0107
-2949.9597
-2559.1603
-2029.2973
-1490.9051
-1012.5341
-624.92418
-325.99117
-102.36295
62.50301
183.47704
272.40224
338.09646
386.88014
423.18082
450.07183
469.70231
483.49676
492.01922
495.27651
-11.483918
-23.591228
-38.294641
-54.438591
-72.848039
-94.363122
-120.16985
-151.87501
-191.68054
-242.61928
-308.63667
-394.36238
-505.33287
-649.10782
-833.41815
-1057.1178
-1303.0122
-1546.0296
-1768.1205
-1964.9805
-2142.9739
-2309.8844
-2471.3076
-2633.6114
-2804.735
-2986.7697
-3170.3476
-3338.4978
-3469.9062
-3511.2586
-3344.1363
-2870.7979
-2184.1428
-1512.8696
-942.74469
-506.96132
-189.29425
35.499043
192.78397
302.75101
380.12613
435.11339
474.5981
503.16053
523.83682
538.65873
548.93522
555.23134
557.62966
-7.5459391
-15.399229
-25.214312
-36.272563
-49.208218
-64.768004
-84.068855
-108.69877
-140.9328
-184.11067
-242.90313
-322.98227
-431.1489
-577.96538
-777.58698
-1033.2895
-1320.8799
-1601.2872
-1847.8975
-2056.6834
-2241.3068
-2415.2338
-2585.4237
-2759.5245
-2951.477
-3168.7933
-3401.841
-3630.6648
-3839.9337
-3979.4501
-3868.0215
-3294.1299
-2367.8694
-1515.4531
-830.29293
-345.15929
-15.871602
201.09555
342.92684
435.89077
497.45864
538.82708
567.06032
586.58958
600.19926
609.65776
616.06303
619.92888
621.39247
-2.4940456
-5.6553853
-10.105261
-15.57378
-22.444933
-31.342321
-43.273785
-59.749302
-83.012918
-116.56742
-165.756
-237.36406
-339.18016
-484.64141
-697.71875
-992.0392
-1333.767
-1659.6111
-1930.1027
-2142.1462
-2323.1195
-2495.6054
-2666.7925
-2843.1718
-3048.9943
-3303.1735
-3599.0872
-3914.1972
-4241.4067
-4553.2171
-4583.023
-3903.478
-2589.3108
-1483.2199
-653.4305
-124.34792
202.50778
397.84757
513.68391
582.39929
623.43368
648.17776
663.26896
672.58042
678.38281
682.01681
684.26839
685.54523
686.01579
2.9588015
3.9730143
4.5462971
4.3728164
3.3873863
1.1547389
-3.120087
-10.723957
-23.652227
-45.261055
-81.374237
-140.1307
-230.27317
-367.38815
-589.87743
-934.91023
-1357.8534
-1750.693
-2054.8897
-2266.9247
-2439.8803
-2611.5586
-2788.5984
-2969.4134
-3193.9257
-3500.0123
-3883.2968
-4313.0918
-4763.9029
-5291.5197
-5573.8098
-4825.3573
-2837.3015
-1376.2415
-376.92533
174.90889
474.14957
627.83486
704.34053
740.62174
756.28079
761.57965
761.89165
760.03475
757.47783
754.96776
752.88275
751.47303
750.91551
8.2851276
13.265354
19.323574
25.158033
31.020727
36.677964
41.595226
44.763213
44.510563
37.799995
18.452297
-23.538967
-98.146521
-220.10617
-443.94172
-853.46396
-1397.2818
-1876.4146
-2210.7427
-2392.8792
-2530.4282
-2685.6832
-2862.7823
-3027.8147
-3238.6397
-3573.5312
-4023.7135
-4561.7456
-5089.7114
-5960.3605
-6823.7177
-6299.5141
-3074.0124
-1170.951
36.507168
572.65538
805.01251
890.17411
911.79957
907.31769
893.25972
876.87583
861.26424
847.66168
836.46224
827.67595
821.19728
817.07869
815.48637
17.841159
25.859745
36.761804
47.71983
59.416734
71.801493
84.631673
97.258635
108.52248
116.23598
114.96672
93.715614
41.62028
-49.538046
-244.6751
-715.15101
-1441.8798
-2033.6097
-2413.3727
-2545.712
-2643.018
-2787.1988
-2982.1457
-3113.6794
-3276.6771
-3677.6984
-4224.371
-4961.7029
-5679.3052
-7242.8535
-8882.0921
-9068.3523
-3578.1293
-1038.219
635.1937
1099.0926
1197.3514
1178.9799
1129.5279
1077.289
1030.588
991.3671
959.4417
934.02486
914.23907
899.26911
888.48529
881.72077
879.1188
22.1506
30.895291
46.136818
62.238325
80.171665
100.10842
122.29228
146.74802
173.2631
201.23869
227.4153
240.71485
225.96352
180.34589
45.409037
-483.28405
-1555.1585
-2311.4991
-2773.6622
-2771.0086
-2749.6655
-2813.1448
-3022.6406
-3099.9054
-3207.1633
-3763.2631
-4232.9943
-5185.2216
-6470.8428
-7863.4472
-9589.1437
-12103.54
-4823.2653
-72.514474
1722.8312
1811.9832
1641.1427
1478.7606
1346.2301
1243.2039
1163.5577
1101.957
1054.3119
1017.6222
989.69088
968.87492
954.02933
944.77113
941.21784
36.937107
46.533294
66.460185
87.314119
110.7482
137.07757
166.90677
200.72104
238.86232
281.6629
327.57487
365.35527
371.8269
347.26667
293.74206
-191.1092
-1818.078
-2617.1349
-3115.496
-2772.7574
-2626.8081
-2732.5427
-3131.7555
-3271.1271
-3302.4334
0
0
0
0
0
0
0
0
6202.3756
3402.4566
2582.4959
2068.239
1755.8599
1545.1257
1396.0889
1287.0019
1205.4555
1143.7782
1096.9956
1061.7474
1035.6646
1017.1509
1005.6373
1001.2229
35.366766
42.182795
64.028494
87.075186
113.20504
142.73987
176.57947
215.6768
261.07502
314.42485
377.59048
445.98966
502.79999
560.82628
710.6813
552.80461
-1996.7851
-2776.9625
-3646.9054
-2968.6372
-3044.336
-3012.3243
0
0
0
0
0
0
0
0
0
0
10129.575
6286.2541
4123.9552
3000.3248
2361.3134
1969.1785
1709.0497
1527.5637
1396.2863
1299.0432
1225.9928
1170.8559
1129.4574
1098.8971
1077.2402
1063.7844
1058.627
44.263811
54.950301
80.950119
106.97769
136.15453
169.03618
206.8759
251.10441
303.5064
367.08069
447.11689
546.08885
653.28918
754.39176
842.1964
568.4736
-3108.2253
-3581.5985
-3205.2806
0
0
0
0
0
0
0
0
0
0
0
1780.6722
3364.5947
5756.1169
5236.0901
3961.3828
3100.1689
2507.1435
2107.7406
1830.6548
1632.9925
1488.4302
1380.7313
1299.5702
1238.194
1192.0519
1157.9581
1133.7812
1118.754
1112.993
22.191618
42.166354
66.371052
91.284986
118.75249
149.5474
184.74343
225.50556
273.13273
329.83013
399.50028
478.02771
537.5308
536.24843
558.10799
702.38769
0
0
0
0
0
0
-1132.0672
-1103.523
-1011.3052
-917.55589
-790.08472
-495.29854
-94.946932
697.08423
2026.4402
3361.911
4750.9877
4489.858
3714.8025
3058.687
2552.6659
2182.2207
1911.4461
1711.6619
1562.3551
1449.5325
1363.6929
1298.3454
1248.9838
1212.3858
1186.3709
1170.1783
1163.9666
19.953988
50.022179
74.970513
100.54387
127.96169
158.0569
191.47984
228.66515
269.57226
313.41829
357.90009
396.56268
406.14954
338.09248
142.01868
-338.13462
-1284.4165
-1227.4741
-1147.1011
-1100.4777
-1051.0806
-1021.6122
-1010.3634
-803.28877
-838.68179
-583.18136
-362.34469
-204.61699
259.08317
904.85496
1960.293
3049.3237
3956.5658
3851.8971
3404.2985
2933.5976
2528.4621
2206.016
1956.7045
1765.4229
1618.5292
1505.3813
1418.1059
1351.0017
1299.9428
1261.8838
1234.7289
1217.7889
1211.2844
20.663333
46.485435
72.120306
97.971849
125.28648
154.81528
187.13931
222.62519
261.25939
302.13445
342.0354
373.73604
384.81923
353.15898
205.21645
-227.92153
-792.30445
-920.9584
-962.54744
-966.15016
-887.80227
-842.31972
-818.54888
-691.79962
-620.94329
-417.53997
-179.14296
77.743262
510.88729
1096.4666
1896.1872
2721.5886
3334.8859
3356.8272
3105.6572
2777.1436
2463.3579
2193.8105
1973.5979
1797.679
1658.5142
1548.9436
1463.0393
1396.1809
1344.8439
1306.3182
1278.6984
1261.419
1254.7762
14.996593
36.230622
58.797039
81.291095
104.29093
128.03562
152.53065
177.41616
201.79024
223.68946
238.89724
240.18154
218.24944
159.21503
15.075725
-283.91149
-606.90261
-732.46405
-784.5179
-794.28585
-753.12468
-703.47361
-642.23443
-537.76165
-423.88595
-238.24276
-11.498206
269.88419
668.60881
1187.7226
1823.2427
2450.8968
2889.5209
2967.0591
2834.9725
2613.0016
2376.1819
2157.6766
1969.1889
1812.386
1684.4727
1581.3767
1499.0914
1434.1701
1383.8005
1345.7043
1318.2399
1300.9999
1294.3631
23.838368
46.444916
70.189921
93.656226
117.54433
141.96112
166.72613
191.21068
214.09601
232.81546
242.68471
236.67038
205.98922
135.39811
-7.2588162
-236.5505
-460.15418
-579.80523
-635.38265
-644.54034
-615.83409
-568.2922
-497.28055
-394.45952
-264.34867
-82.932491
139.1614
416.11384
777.02698
1223.7724
1735.5106
2221.7458
2557.2305
2658.5606
2599.6231
2454.8467
2280.1783
2107.1233
1949.7501
1813.4694
1698.7947
1604.1113
1527.1067
1465.458
1417.0855
1380.1851
1353.4184
1336.5538
1330.0517
12.02421
29.927736
50.032249
70.035832
90.041138
109.92739
129.38635
147.74715
163.76105
175.18306
178.31607
168.06198
137.63899
74.654797
-40.054659
-203.5072
-358.80669
-456.747
-506.07852
-514.2331
-488.92958
-440.00511
-365.68878
-262.60042
-128.53812
46.964586
261.85487
525.19134
849.67469
1232.3378
1648.6367
2032.8062
2301.9493
2411.5836
2398.1281
2308.5359
2183.16
2048.9515
1920.3873
1804.4659
1703.8315
1618.6755
1548.0646
1490.6666
1445.0908
1410.0055
1384.3873
1368.1819
1361.9237
21.407264
40.632453
60.854147
80.367808
99.453702
117.8436
135.02383
150.10195
161.62924
167.32397
163.94578
147.54894
113.08149
52.274064
-43.556498
-165.61487
-279.0029
-356.12429
-395.68953
-400.45623
-375.18697
-324.72513
-248.67362
-145.28227
-11.773797
156.79282
361.0595
606.02233
895.95215
1224.4163
1567.8668
1878.508
2101.9975
2212.188
2227.1471
2176.7611
2089.8441
1988.0682
1885.1003
1788.3903
1701.7417
1626.5702
1562.9913
1510.4914
1468.2871
1435.4864
1411.3704
1396.0513
1390.1254
11.864147
27.968683
45.959807
63.611707
80.820636
97.232084
112.31685
125.22228
134.6174
138.50996
134.22519
118.55944
87.50267
35.680066
-40.001845
-130.43132
-213.52435
-271.83026
-300.84858
-300.62604
-273.46158
-221.63344
-145.03151
-42.510718
87.9946
248.90898
441.0141
666.30082
924.57453
1207.7347
1495.1773
1752.1627
1942.6286
2049.7643
2082.4757
2059.9386
2002.6786
1927.634
1846.8498
1767.692
1694.4098
1629.1888
1572.8943
1525.6529
1487.189
1456.9992
1434.6436
1420.3811
1414.8543
17.140362
33.237345
50.220055
66.364853
81.714433
95.886871
108.32944
118.22236
124.38352
125.1859
118.61257
102.36278
73.691404
29.625811
-29.988477
-97.381746
-158.13606
-200.46169
-219.38447
-213.53397
-183.55731
-130.34276
-53.763898
46.960716
173.10591
325.77699
505.17532
711.24673
941.41867
1187.1585
1431.2317
1648.3117
1813.9326
1916.4943
1960.2191
1957.4984
1922.9616
1869.6957
1807.8371
1744.3109
1683.4271
1627.7756
1578.7195
1536.8597
1502.3262
1474.9443
1454.5179
1441.4282
1436.3468
11.965883
26.365744
42.104245
57.216681
71.535863
84.633887
95.95567
104.72801
109.89868
110.11375
103.80231
89.276978
64.758624
28.907688
-17.019265
-66.703269
-110.24965
-139.22843
-148.99409
-137.55089
-104.5474
-50.079181
26.068346
124.39921
245.54625
389.78583
556.64767
744.788
950.46906
1165.4738
1375.7038
1562.538
1708.9277
1806.4503
1856.8895
1868.2995
1851.1315
1815.4439
1769.569
1719.7253
1670.0964
1623.4073
1581.3254
1544.7835
1514.2214
1489.7319
1471.3243
1459.4746
1454.8663
13.672527
27.359607
41.871717
55.550835
68.315829
79.771318
89.415606
96.581334
100.4074
99.849216
93.763863
81.007485
60.559875
32.098801
-2.5890271
-38.476203
-68.501293
-86.407254
-88.109603
-71.430822
-35.489172
20.054465
95.47977
191.07417
307.00166
442.97389
597.96336
769.86608
954.4861
1144.3022
1327.8973
1491.405
1622.6066
1715.1571
1769.5582
1791.0641
1787.1669
1765.5776
1733.0737
1695.0585
1655.4639
1616.9949
1581.4715
1550.0426
1523.3738
1501.7679
1485.4005
1474.8156
1470.6918
11.353755
24.027865
37.645173
50.500641
62.432476
73.046914
81.880199
88.352207
91.760908
91.312889
86.206355
75.733025
59.44633
37.651389
12.276386
-12.652021
-31.896487
-40.644732
-35.404658
-14.037431
24.575863
80.988759
155.49887
248.21894
358.97885
487.10056
631.16294
788.6624
955.34935
1124.5378
1287.0002
1432.2486
1551.2808
1639.1814
1695.7801
1724.5057
1730.7505
1720.4247
1699.0138
1671.1274
1640.352
1609.2941
1579.8161
1553.1937
1530.2484
1511.4418
1497.0803
1487.7497
1484.1082
11.407422
23.296028
35.923525
47.754419
58.666287
68.305148
76.268608
82.076899
85.182768
85.010605
81.03351
72.87662
60.489395
44.52238
26.84759
10.721498
0.16283371
-1.027914
10.105791
35.554323
76.499167
133.57389
207.05543
296.9152
402.74709
523.60949
657.83575
802.75945
954.29751
1106.601
1252.1848
1382.9759
1492.1649
1575.8551
1633.5319
1667.4218
1681.4228
1680.0725
1667.8007
1648.5068
1625.3927
1600.9189
1576.9183
1554.7275
1535.2683
1519.1192
1506.685
1498.5709
1495.399
10.343707
21.515244
33.418527
44.560609
54.805758
63.829541
71.285871
76.787184
79.92304
80.301861
77.620862
71.762954
62.95137
52.019826
40.712065
31.705166
28.182429
33.206813
49.281668
78.204784
121.12253
178.6683
251.07298
338.19364
439.45936
553.75851
679.29352
813.38288
952.21577
1090.7118
1222.7518
1342.0035
1443.1855
1523.1439
1581.1976
1618.7743
1638.7042
1644.4833
1639.6908
1627.6171
1611.0833
1592.3717
1573.252
1555.0726
1538.8135
1525.1355
1514.517
1507.5615
1504.8398
9.9406166
20.476392
31.670355
42.13008
51.740151
60.213409
67.25984
72.575325
75.865441
76.886927
75.51064
71.807735
66.178581
59.53852
53.481833
50.250361
52.432173
62.544418
82.715616
114.54336
159.08994
216.94437
288.2785
372.85722
469.99644
578.48256
696.46809
821.34213
949.6025
1076.8389
1197.993
1307.9987
1402.6589
1479.3704
1537.3819
1577.5856
1602.0463
1613.4721
1614.7646
1608.7022
1597.7602
1584.0288
1569.1947
1554.5871
1541.2128
1529.7902
1520.8531
1514.9877
1512.6939
9.3564988
19.364717
30.008368
39.956396
49.101953
57.191958
63.988399
69.261646
72.816128
74.529486
74.408217
72.661438
69.80196
66.770031
65.018377
66.459946
73.249892
87.495937
111.02158
145.23616
191.09874
249.13326
319.4489
401.73697
495.23746
598.68247
710.22684
827.37347
946.92413
1065.0323
1177.4575
1280.0608
1369.4256
1443.3605
1501.0946
1543.1587
1571.0671
1586.935
1593.1298
1592.0074
1585.7422
1576.2388
1565.0924
1553.5964
1542.764
1533.3528
1525.944
1521.0965
1519.2109
8.9349364
18.48597
28.650127
38.160534
46.922915
54.715774
61.346669
66.648688
70.506487
72.892463
73.915406
73.881998
73.373197
73.323974
75.062438
80.252413
90.730301
108.29488
134.52507
170.66381
217.5656
275.68361
345.06707
425.34945
515.7213
614.89211
721.04904
831.82368
944.29414
1055.0749
1160.5509
1257.2644
1342.3655
1413.9711
1471.3168
1514.6889
1545.2062
1564.5401
1574.6431
1577.5295
1575.1205
1569.1531
1561.1302
1552.3031
1543.6756
1536.0302
1529.996
1526.1079
1524.6266
8.5491015
17.743471
27.539726
36.720674
45.20122
52.788212
59.328897
64.708833
68.877265
71.880149
73.902438
75.318572
76.749011
79.109963
83.625923
91.773312
105.15361
125.33349
153.69966
191.35507
239.05895
297.19738
365.76651
444.35536
532.12363
627.77751
729.55008
835.19787
942.03563
1047.0439
1147.0796
1239.183
1320.9152
1390.6229
1447.5587
1491.843
1524.3123
1546.309
1559.4685
1565.535
1566.2226
1563.1249
1557.6596
1551.0357
1544.2394
1538.0669
1533.2134
1530.2284
1529.1736
8.1798083
17.102113
26.616427
35.549444
43.821769
51.264967
57.759058
63.231281
67.680549
71.207771
74.05285
76.636074
79.599716
83.837719
90.492695
100.90268
116.49827
138.67486
168.6725
207.48225
255.78313
313.9034
381.79521
459.01439
544.7022
637.57146
735.90296
837.56261
940.05637
1040.645
1136.533
1225.1193
1304.2588
1372.4664
1429.0143
1473.9125
1507.7987
1531.7778
1547.2495
1555.7524
1558.8391
1557.988
1554.5462
1549.6893
1544.3865
1539.4372
1535.6174
1533.5687
1533.0781
7.8074791
16.603291
25.940326
34.71254
42.847066
50.199437
56.676692
62.238137
66.919425
70.86097
74.340755
77.808881
81.918543
87.542652
95.761973
107.81636
125.01772
148.64107
179.82055
219.4638
268.18801
326.27618
393.64692
469.83267
553.96447
644.76532
740.55781
839.29477
938.62602
1036.0151
1128.9114
1214.9617
1292.2234
1359.3291
1415.5688
1460.8805
1495.7673
1521.1694
1538.3197
1548.6082
1553.4685
1554.2924
1552.3727
1548.8594
1544.7058
1540.6826
1537.6145
1536.3941
1536.6792
7.3041741
16.167723
25.424224
34.11146
42.16528
49.465673
55.940459
61.571118
66.417403
70.644774
74.554544
78.613889
83.480241
90.010772
99.246346
112.36684
130.61063
155.17404
187.12097
227.30359
276.2973
334.35424
401.37051
476.86367
559.9594
649.38965
743.50715
840.32425
937.58627
1032.8882
1123.835
1208.2296
1284.2567
1350.6238
1406.6338
1452.1818
1487.6874
1513.9865
1532.2052
1543.6371
1549.6376
1551.5387
1550.5931
1547.9365
1544.516
1541.0475
1538.3511
1537.9204
1540.1135
6.0814739
15.835506
25.143223
33.822872
41.846005
49.124643
55.600827
61.268232
66.198919
70.570876
74.697162
79.053705
84.300807
91.290469
101.04834
114.71814
133.49058
158.52511
190.85572
231.30768
280.4355
338.47567
405.3128
480.45688
563.03106
651.77213
745.04853
840.90315
937.12969
1031.3889
1121.3629
1204.9317
1280.3427
1346.341
1402.2368
1447.9048
1483.7242
1510.4802
1529.2469
1541.2708
1547.8639
1550.3276
1549.9026
1547.7279
1544.7608
1541.6765
1539.2607
1539.7837
1545.6259
-2227.7586
-2483.625
-2699.5389
-2881.4835
-3023.9672
-3106.2144
-3108.2253
-3029.221
-2857.2784
-2664.0031
-3205.3887
-3205.2806
-3198.4352
-3187.4483
-3173.334
-3160.5813
-3148.7455
-3158.2122
-3158.8143
-3131.41
-3183.031
-3181.9065
-3167.1521
-3150.1889
-3133.2738
-3124.283
-3105.9904
-3113.2075
-3100.0759
-3046.5498
-3137.8416
-3135.1796
-3126.5764
-3117.8806
-3109.0871
-3112.0993
-3101.0037
-3098.9711
-3085.5698
-3048.708
-3078.1496
-3076.715
-3072.1695
-3066.2521
-3057.7466
-3058.1466
-3057.8123
-3057.1421
-3055.6636
-3059.4005
-3030.1688
-3029.3765
-3023.6157
-3013.4545
-2998.1996
-2968.6372
-2990.8012
-3003.1021
-3009.7478
-3023.0966
-3013.4126
-3015.1067
-3018.3584
-3021.7456
-3032.6622
-3008.5363
-3008.2144
-3004.5871
-2989.669
-2966.6809
-3027.9229
-3029.5537
-3035.6396
-3044.336
-3068.386
-3076.1025
-3056.7213
-3030.7038
-3000.8669
-2965.463
-3848.4524
-3860.7647
-3831.7259
-3787.3163
-3749.7565
-3717.6913
-3696.188
-3682.4618
-3673.5219
-3675.264
-2986.9813
-2985.7891
-2977.9082
-2960.9531
-2921.5849
-2946.9458
-2958.9506
-2961.1434
-2950.6575
-2923.5506
-3009.2479
-3012.3243
-3018.6876
-3037.9309
-3013.9708
-3005.2504
-3001.2987
-2993.8832
-2979.8931
-2964.7514
-3048.5065
-3050.959
-3056.137
-3080.7262
-3093.4959
-3069.4236
-3042.6916
-3022.4071
-3003.5383
-2987.0525
-2999.6593
-2995.8306
-2976.9417
-2951.6608
-2974.5978
-2992.0788
-3003.3179
-3010.7377
-3013.0008
-3020.0183
-3033.2649
-3035.7253
-3034.8618
-2997.9706
-3007.104
-3020.7167
-3031.5169
-3038.75
-3041.7994
-3051.3641
-3156.8898
-3164.6838
-3188.9171
-3187.4463
-3159.5466
-3131.7555
-3111.0621
-3095.6692
-3080.2518
-3063.0189
-3141.9776
-3137.1429
-3129.6593
-3149.8304
-3150.4242
-3144.6315
-3138.409
-3132.974
-3126.9759
-3128.8783
-3162.7551
-3162.0345
-3137.75
-3147.9041
-3159.3498
-3167.4859
-3171.906
-3173.7098
-3173.0003
-3177.7017
-3277.1158
-3289.5191
-3285.4683
-3271.1271
-3255.8054
-3243.7645
-3235.033
-3229.2394
-3222.424
-3213.8637
-3282.4885
-3286.56
-3294.0146
-3285.9367
-3276.2936
-3270.7936
-3270.5584
-3274.9996
-3280.0403
-3292.3427
-3186.3245
-3172.2144
-3189.5509
-3215.4277
-3244.9011
-3273.5981
-3300.572
-3325.1448
-3345.2976
-3370.2629
-3326.0526
-3302.4334
-3312.0409
-3332.3485
-3359.112
-3384.3599
-3406.8254
-3425.2567
-3437.7751
-3453.49
-3701.6743
-3692.655
-3661.9562
-3627.8852
-3602.8063
-3583.3211
-3571.231
-3564.0731
-3557.9581
-3555.0921
-3016.6784
-3015.1528
-3009.7378
-2998.1195
-2992.6336
-2999.8924
-2999.5295
-2994.179
-2984.9467
-2983.923
-3540.5379
-3549.1347
-3563.569
-3610.8528
-3667.0284
-3718.86
-3739.9422
-3721.8032
-3638.1025
-3466.2529
-3268.7583
-3268.9931
-3271.9426
-3276.8107
-3277.9215
-3277.0254
-3275.0641
-3269.9195
-3265.7618
-3219.2847
-3179.5257
-3227.5518
-3289.6663
-3394.3694
-3505.6948
-3592.5204
-3635.0762
-3595.2068
-3447.0635
-3214.6347
-3480.2767
-3490.3202
-3511.251
-3547.9502
-3581.5985
-3610.2581
-3618.8292
-3618.3244
-3582.5464
-3470.1572
-3367.345
-3371.735
-3385.9146
-3409.8728
-3430.8337
-3448.4897
-3456.6153
-3446.1964
-3433.5787
-3381.8272
11318.722
10715.547
10129.575
9489.9396
8832.8464
8179.5395
7545.1807
6936.7841
6347.3445
5770.3045
8301.8488
8224.5319
8101.2599
7839.6079
7501.7196
7111.2853
6689.6069
6254.5666
5816.3994
5360.0015
-3709.5004
-3727.936
-3745.3437
-3751.3101
-3759.9988
-3763.2631
-3768.0586
-3771.4943
-3772.8195
-3776.3112
-3705.8516
-3709.7028
-3745.0491
-3776.2798
-3815.3388
-3842.5104
-3866.4368
-3882.4668
-3891.1143
-3895.3021
-3946.515
-3939.2796
-3955.5085
-3963.0856
-3991.4655
-4009.8452
-4029.6721
-4042.6484
-4048.0678
-4043.6178
-4222.4228
-4212.0678
-4226.3367
-4216.9231
-4232.9943
-4234.8762
-4241.3988
-4242.4474
-4238.8754
-4234.5143
-4544.8763
-4526.7366
-4538.4817
-4511.4466
-4515.2324
-4497.3855
-4484.9274
-4464.9004
-4437.2329
-4404.8722
-4901.1051
-4873.8829
-4883.4899
-4837.0687
-4828.6367
-4790.1478
-4757.3169
-4713.8948
-4659.2253
-4599.0143
-5281.8491
-5243.3988
-5252.0389
-5185.2216
-5165.6714
-5107.5828
-5056.1873
-4992.7183
-4916.463
-4831.151
-5682.8598
-5630.7847
-5639.6094
-5550.5883
-5519.7714
-5441.5434
-5370.8771
-5288.4422
-5198.4682
-5115.9178
-6105.0436
-6035.9211
-6045.7701
-5931.7758
-5888.3052
-5787.8964
-5693.5289
-5583.5004
-5458.1872
-5322.5867
-6548.4999
-6458.4121
-6470.8428
-6329.1979
-6271.9437
-6149.059
-6030.8959
-5896.7838
-5747.1777
-5585.4184
-7019.3409
-6902.2099
-6917.974
-6744.4912
-6670.345
-6522.7541
-6376.8528
-6214.6279
-6036.1364
-5850.2658
-7516.4398
-7366.2084
-7388.3258
-7179.8865
-7085.7234
-6911.663
-6733.868
-6537.7856
-6319.1644
-6081.8843
-8058.1142
-7863.4472