/*--------------------------------*- C++ -*----------------------------------*\
| =========                 |                                                 |
| \\      /  F ield         | foam-extend: Open Source CFD                    |
|  \\    /   O peration     | Version:     4.1                                |
|   \\  /    A nd           | Web:         http://www.foam-extend.org         |
|    \\/     M anipulation  |                                                 |
\*---------------------------------------------------------------------------*/
FoamFile
{
    version     2.0;
    format      ascii;
    class       volScalarField;
    location    "3";
    object      p;
}
// * * * * * * * * * * * * * * * * * * * * * * * * * * * * * * * * * * * * * //

dimensions      [0 2 -2 0 0 0 0];

internalField   nonuniform List<scalar> 
4393
(
-46.418279
-92.981831
-146.74664
-201.53773
-258.52853
-318.02972
-380.42425
-446.02168
-515.04626
-587.60814
-663.67527
-743.04525
-825.31996
-909.88681
-995.91057
-1082.3387
-1167.9206
-1251.2389
-1330.7466
-1404.8063
-1471.7268
-1529.7976
-1577.3242
-1612.6687
-1634.3036
-1640.8857
-1631.3609
-1605.1091
-1562.0235
-1502.6043
-1428.0628
-1340.3045
-1241.8237
-1135.521
-1024.477
-911.72629
-800.06833
-691.93577
-589.32572
-493.78637
-406.44514
-328.06312
-259.10086
-199.7842
-150.17449
-110.24077
-79.763686
-57.832744
-43.628448
-45.166115
-92.396011
-146.03406
-200.67391
-257.49559
-316.842
-379.10969
-444.62031
-513.60995
-586.20082
-662.37247
-741.93257
-824.49005
-909.43481
-995.92839
-1082.9092
-1169.1131
-1253.1062
-1333.3248
-1408.1153
-1475.772
-1534.5699
-1582.7976
-1618.7958
-1641.0079
-1648.0572
-1638.8542
-1612.7041
-1569.4364
-1509.5445
-1434.2451
-1345.4789
-1245.8058
-1138.2121
-1025.8684
-911.88918
-799.1341
-690.07243
-586.7157
-490.60873
-402.86326
-324.21781
-255.11028
-195.7537
-146.20094
-106.36066
-75.962028
-54.863094
-44.264923
-44.361876
-91.499258
-144.77577
-199.05485
-255.52571
-314.56087
-376.57903
-441.92409
-510.85529
-583.51852
-659.91619
-739.87557
-823.01896
-908.74009
-996.19257
-1084.2949
-1171.7534
-1257.0998
-1338.7355
-1414.9753
-1484.0846
-1544.3104
-1593.9094
-1631.1788
-1654.5016
-1662.4211
-1653.7594
-1627.7384
-1584.096
-1523.2536
-1446.4225
-1355.6123
-1253.5197
-1143.3095
-1028.3384
-911.88424
-796.92666
-686.00538
-581.15604
-483.91092
-395.34414
-316.14258
-246.69032
-187.15673
-137.5512
-97.688372
-67.258265
-46.703341
-37.920813
-43.571157
-90.203513
-142.87206
-196.57262
-252.49945
-311.05369
-372.68286
-437.76283
-506.58763
-579.33967
-656.05718
-736.59885
-820.60909
-907.48915
-996.38148
-1086.1742
-1175.5282
-1262.9216
-1346.7027
-1425.139
-1496.4549
-1558.8586
-1610.5625
-1649.8032
-1674.8753
-1684.1998
-1676.4526
-1650.7045
-1606.5453
-1544.2898
-1465.1359
-1371.1996
-1265.3943
-1151.1699
-1032.1792
-911.95644
-793.66751
-679.95787
-572.89588
-473.99001
-384.25315
-304.29144
-234.40515
-174.68845
-125.07567
-85.291841
-55.022654
-34.934705
-26.790581
-42.746023
-88.586092
-140.40166
-193.29792
-248.47672
-306.37006
-367.46093
-432.16672
-500.82805
-573.67723
-650.80229
-732.10649
-817.2665
-905.69555
-996.52139
-1088.5893
-1180.4949
-1270.6407
-1357.3009
-1438.6794
-1512.9485
-1578.2705
-1632.8047
-1674.7134
-1702.1785
-1713.4592
-1707.0295
-1681.7394
-1636.9533
-1572.8181
-1490.498
-1392.2541
-1281.3121
-1161.5352
-1037.0031
-911.61371
-788.78939
-671.31416
-561.29066
-460.18343
-368.91203
-287.96587
-217.52625
-157.5781
-107.95411
-68.297048
-38.300197
-18.683839
-10.92743
-41.737446
-86.536904
-137.2531
-189.11405
-243.33047
-300.36953
-360.757
-424.96204
-493.38491
-566.32303
-643.93083
-726.17244
-812.77037
-903.157
-996.44239
-1091.4144
-1186.5796
-1280.237
-1370.5628
-1455.68
-1533.7006
-1602.7372
-1660.8939
-1706.2495
-1736.8504
-1750.7509
-1746.1568
-1721.6155
-1676.1694
-1609.7102
-1523.3305
-1419.4777
-1301.8092
-1174.7663
-1043.0182
-910.95506
-782.3336
-660.10589
-546.40048
-442.60563
-349.50352
-267.42006
-196.37269
-136.19553
-86.587162
-47.090889
-17.369141
1.8949085
9.4337305
-40.595515
-84.127188
-133.49122
-184.07013
-237.088
-293.05311
-352.54172
-416.08561
-484.15874
-557.14087
-635.2723
-718.59828
-806.90517
-899.65546
-995.93969
-1094.4706
-1193.6352
-1291.5942
-1386.3955
-1476.0642
-1558.6466
-1632.2101
-1694.8105
-1744.4438
-1779.0053
-1796.3016
-1794.194
-1770.8253
-1724.7868
-1655.5865
-1564.1766
-1453.2325
-1326.9992
-1190.7123
-1049.8417
-909.42636
-773.64389
-645.63703
-527.53754
-420.60913
-325.43896
-242.133
-170.4946
-110.16539
-60.680262
-21.461133
7.9036736
26.823239
34.190503
-39.186014
-81.205568
-128.95648
-178.00165
-229.5771
-284.23742
-342.617
-405.32145
-472.91386
-545.87588
-624.55679
-709.10827
-799.40468
-894.95507
-994.8306
-1097.647
-1201.6308
-1304.7575
-1404.909
-1499.9926
-1587.9892
-1666.9351
-1734.857
-1789.6816
-1829.1471
-1850.7729
-1851.9891
-1830.4107
-1784.0057
-1711.7095
-1614.2146
-1494.4637
-1357.4978
-1209.6435
-1057.4498
-906.79923
-762.38355
-627.54465
-504.37093
-393.92846
-296.53075
-211.99192
-139.84125
-79.481793
-30.253611
8.5652281
37.489728
56.043363
63.248118
-37.653454
-77.930955
-123.7969
-171.0329
-220.8903
-273.9756
-330.98886
-392.62122
-459.54179
-532.35668
-611.55212
-697.41842
-789.95125
-888.73199
-992.81711
-1100.6985
-1210.3876
-1319.6105
-1426.0331
-1527.4232
-1621.7036
-1706.9074
-1781.0689
-1842.0773
-1887.5234
-1914.6053
-1920.2267
-1901.3237
-1855.0124
-1779.3765
-1674.6459
-1544.0584
-1393.7398
-1231.5246
-1065.4184
-902.39164
-747.74746
-605.01123
-476.14693
-361.91702
-262.25699
-176.59984
-104.13086
-43.963637
4.7909171
43.023242
71.37435
89.493675
96.516488
-35.748821
-74.004847
-117.69211
-162.83158
-210.68192
-261.90432
-317.27085
-377.56974
-443.59424
-516.10053
-595.74495
-682.99685
-778.01808
-880.50126
-989.50018
-1103.3491
-1219.7673
-1336.1399
-1449.8473
-1558.4924
-1659.9572
-1752.3189
-1833.6807
-1901.953
-1954.6115
-1988.5133
-1999.9357
-1984.9556
-1939.5407
-1860.513
-1747.2978
-1603.4223
-1436.5079
-1256.5013
-1073.3833
-895.51923
-728.91398
-577.21825
-442.13833
-323.9814
-222.16772
-135.63995
-63.159982
-3.4984976
44.496115
81.903945
109.50705
127.08846
133.89217
-33.798641
-69.806261
-111.02792
-153.76797
-199.29488
-248.32741
-301.71464
-360.35263
-425.17753
-497.12424
-577.05841
-665.67878
-763.37436
-870.00879
-984.66041
-1105.4664
-1229.7465
-1354.4139
-1476.4676
-1593.3175
-1702.8404
-1803.2316
-1892.7565
-1969.4404
-2030.7079
-2073.0758
-2092.1041
-2082.7932
-2039.5861
-1957.4491
-1834.4246
-1674.2478
-1486.6347
-1284.5448
-1080.658
-885.11652
-704.6911
-543.02791
-401.36551
-279.34267
-175.68633
-88.717019
-16.684287
42.039029
88.898021
125.17834
151.81083
168.71674
175.2495
-31.322736
-64.748376
-103.16401
-143.16716
-186.018
-232.49054
-283.51356
-340.10057
-403.3504
-474.40927
-554.39879
-644.30987
-744.84118
-856.11875
-977.29935
-1106.2779
-1239.8199
-1374.1697
-1505.8017
-1631.8967
-1750.3829
-1859.6804
-1958.3494
-2044.6716
-2116.136
-2168.9576
-2197.9202
-2196.6912
-2157.733
-2073.3259
-1939.1487
-1758.89
-1545.2555
-1315.6021
-1086.3282
-869.81899
-673.6073
-501.0874
-352.70833
-227.14643
-122.20904
-35.440214
35.517848
92.742511
137.99694
172.78037
198.17258
214.23458
220.43211
-28.93536
-59.575039
-94.898109
-131.84693
-171.67532
-215.21031
-263.45982
-317.56084
-378.79221
-448.54499
-528.24843
-619.2587
-722.68966
-839.06452
-967.717
-1106.2535
-1250.6598
-1396.2156
-1538.6638
-1674.9222
-1803.0781
-1921.9456
-2030.5697
-2127.7002
-2211.0804
-2276.7109
-2318.5369
-2328.6709
-2297.0941
-2212.1926
-2065.6524
-1860.4857
-1613.7498
-1349.4074
-1089.0116
-847.73888
-633.73518
-449.70561
-294.82777
-166.41745
-61.081927
24.585497
93.645321
148.66885
191.75058
224.60013
248.43691
263.45856
269.24575
-25.834193
-53.293439
-85.133366
-118.63363
-155.00892
-195.12773
-240.07124
-291.10204
-349.69482
-417.52257
-496.38366
-588.08859
-694.3055
-816.16093
-953.35367
-1103.1789
-1260.5222
-1419.2474
-1574.0535
-1721.5576
-1860.1748
-1989.3365
-2108.7972
-2218.0402
-2315.3464
-2396.6704
-2455.0974
-2481.0203
-2461.498
-2379.4194
-2219.7586
-1983.4129
-1693.8852
-1385.4105
-1086.705
-816.33304
-582.6166
-386.83382
-226.18411
-96.096306
8.3581648
91.722227
157.84423
209.81565
250.0579
280.47259
302.39806
316.15913
321.45192
-22.988282
-47.105637
-75.194288
-104.93113
-137.49266
-173.78011
-214.93921
-262.35465
-317.70647
-382.9839
-460.41875
-552.37025
-661.22105
-788.98815
-936.05558
-1099.4244
-1272.3864
-1446.6591
-1615.3979
-1774.8824
-1924.1584
-2063.6288
-2194.075
-2316.1136
-2429.0551
-2529.1511
-2608.6689
-2656.1736
-2655.5158
-2582.0939
-2409.678
-2133.8915
-1787.8787
-1422.5333
-1076.4507
-772.13885
-517.10693
-310.00281
-145.03327
-15.065051
86.748453
166.26516
228.17951
276.09953
312.74343
340.16676
359.79235
372.05473
376.76257
-19.234013
-39.566158
-63.484025
-89.028734
-117.2856
-149.16107
-185.84193
-228.8162
-279.96351
-341.6151
-416.50508
-507.64553
-618.31849
-751.84308
-909.87007
-1089.2877
-1281.1054
-1473.7728
-1658.1741
-1830.292
-1990.3742
-2140.3279
-2282.2801
-2418.3715
-2549.5401
-2672.7618
-2779.4826
-2856.4151
-2884.4366
-2829.5607
-2647.2465
-2321.0875
-1898.523
-1458.8322
-1053.8861
-710.45845
-433.22579
-216.29744
-49.467409
77.789182
174.63772
248.39127
304.59692
347.32972
379.53985
403.37464
420.29122
430.80708
434.83614
-15.90957
-32.367275
-51.889495
-72.946218
-96.52818
-123.53008
-155.16125
-192.99634
-239.10693
-296.19299
-367.57412
-457.03024
-568.92193
-708.39611
-879.3404
-1079.01
-1295.0593
-1510.7439
-1713.413
-1898.7628
-2069.1473
-2228.6989
-2381.122
-2530.4777
-2680.3859
-2829.6041
-2969.177
-3084.3384
-3154.0992
-3134.0114
-2949.9604
-2559.1611
-2029.2981
-1490.9059
-1012.535
-624.92505
-325.99205
-102.36384
62.502113
183.47614
272.40133
338.09555
386.87923
423.17991
450.07091
469.70139
483.49585
492.01831
495.27559
-11.483943
-23.591293
-38.294747
-54.438735
-72.84822
-94.363337
-120.1701
-151.87529
-191.68084
-242.61961
-308.63702
-394.36276
-505.33327
-649.10824
-833.41859
-1057.1183
-1303.0127
-1546.0301
-1768.121
-1964.9811
-2142.9745
-2309.885
-2471.3083
-2633.612
-2804.7357
-2986.7704
-3170.3483
-3338.4986
-3469.907
-3511.2594
-3344.1371
-2870.7987
-2184.1436
-1512.8705
-942.74555
-506.96219
-189.29514
35.498147
192.78306
302.7501
380.12522
435.11248
474.59718
503.15962
523.83591
538.65782
548.9343
555.23042
557.62874
-7.5459648
-15.399297
-25.21442
-36.272709
-49.208401
-64.768221
-84.069104
-108.69905
-140.9331
-184.111
-242.90347
-322.98264
-431.14929
-577.96579
-777.58741
-1033.29
-1320.8804
-1601.2877
-1847.8981
-2056.684
-2241.3074
-2415.2344
-2585.4244
-2759.5252
-2951.4777
-3168.794
-3401.8417
-3630.6655
-3839.9344
-3979.4509
-3868.0223
-3294.1307
-2367.8702
-1515.4539
-830.29379
-345.16017
-15.872496
201.09464
342.92593
435.88986
497.45773
538.82616
567.0594
586.58865
600.19834
609.65684
616.06211
619.92796
621.39155
-2.4940722
-5.6554533
-10.10537
-15.573928
-22.445117
-31.34254
-43.274036
-59.749582
-83.013222
-116.56774
-165.75635
-237.36442
-339.18055
-484.64181
-697.71916
-992.03963
-1333.7675
-1659.6116
-1930.1032
-2142.1468
-2323.1201
-2495.6061
-2666.7932
-2843.1724
-3048.995
-3303.1742
-3599.0879
-3914.1979
-4241.4074
-4553.2179
-4583.0238
-3903.4788
-2589.3116
-1483.2207
-653.43137
-124.3488
202.50687
397.84666
513.68299
582.39836
623.43276
648.17684
663.26804
672.5795
678.38188
682.01589
684.26747
685.54431
686.01486
2.9587736
3.9729449
4.5461866
4.3726667
3.3871989
1.1545161
-3.1203427
-10.724242
-23.652537
-45.261387
-81.37459
-140.13107
-230.27356
-367.38854
-589.87781
-934.91063
-1357.8539
-1750.6935
-2054.8902
-2266.9253
-2439.8809
-2611.5592
-2788.599
-2969.4141
-3193.9264
-3500.013
-3883.2975
-4313.0925
-4763.9037
-5291.5205
-5573.8106
-4825.3581
-2837.3023
-1376.2423
-376.92621
174.90799
474.14866
627.83394
704.3396
740.62081
756.27987
761.57872
761.89072
760.03382
757.4769
754.96683
752.88182
751.47211
750.91458
8.2850989
13.265284
19.323463
25.157882
31.020538
36.677738
41.594967
44.762923
44.510246
37.799655
18.451935
-23.539351
-98.146919
-220.10655
-443.94209
-853.46433
-1397.2822
-1876.415
-2210.7432
-2392.8797
-2530.4288
-2685.6838
-2862.783
-3027.8153
-3238.6404
-3573.5319
-4023.7142
-4561.7464
-5089.7121
-5960.3613
-6823.7185
-6299.5149
-3074.0133
-1170.9519
36.506279
572.65447
805.01159
890.17318
911.79864
907.31676
893.25878
876.87489
861.26331
847.66075
836.46131
827.67502
821.19634
817.07776
815.48544
17.841129
25.859674
36.761691
47.719676
59.41654
71.801261
84.631404
97.258333
108.52214
116.23562
114.96633
93.715197
41.619845
-49.538456
-244.67545
-715.15134
-1441.8802
-2033.6102
-2413.3732
-2545.7126
-2643.0186
-2787.1994
-2982.1463
-3113.6801
-3276.6778
-3677.6991
-4224.3718
-4961.7037
-5679.3059
-7242.8543
-8882.0929
-9068.3531
-3578.1302
-1038.2198
635.1928
1099.0917
1197.3505
1178.979
1129.527
1077.2881
1030.5871
991.36616
959.44076
934.02393
914.23813
899.26818
888.48436
881.71984
879.11787
22.15057
30.89522
46.136704
62.238169
80.171467
100.10818
122.29201
146.74771
173.26275
201.23831
227.41489
240.7144
225.96304
180.34544
45.408701
-483.28432
-1555.1589
-2311.4995
-2773.6627
-2771.0093
-2749.6661
-2813.1454
-3022.6413
-3099.906
-3207.1641
-3763.2638
-4232.995
-5185.2224
-6470.8436
-7863.4481
-9589.1445
-12103.54
-4823.2661
-72.515386
1722.8303
1811.9823
1641.1417
1478.7597
1346.2291
1243.203
1163.5567
1101.9561
1054.3109
1017.6213
989.68994
968.87399
954.02839
944.77019
941.2169
36.937077
46.533223
66.460071
87.313962
110.748
137.07732
166.90648
200.72071
238.86195
281.6625
327.57443
365.35477
371.82633
347.26609
293.74166
-191.10943
-1818.0784
-2617.1353
-3115.4966
-2772.7582
-2626.8088
-2732.5433
-3131.7562
-3271.1279
-3302.4342
0
0
0
0
0
0
0
0
6202.3747
3402.4557
2582.495
2068.238
1755.859
1545.1248
1396.0879
1287.001
1205.4545
1143.7773
1096.9946
1061.7464
1035.6636
1017.15
1005.6364
1001.222
35.366737
42.182726
64.028382
87.075032
113.20484
142.73963
176.57917
215.67645
261.07463
314.42441
377.58999
445.98911
502.79934
560.82555
710.68086
552.80452
-1996.7854
-2776.9628
-3646.906
-2968.638
-3044.3367
-3012.325
0
0
0
0
0
0
0
0
0
0
10129.574
6286.2532
4123.9543
3000.3238
2361.3124
1969.1776
1709.0488
1527.5627
1396.2854
1299.0423
1225.9919
1170.8549
1129.4565
1098.8962
1077.2392
1063.7835
1058.626
44.263785
54.950238
80.950016
106.97755
136.15434
169.03594
206.87561
251.10407
303.50603
367.08028
447.11646
546.08836
653.28851
754.39088
842.19575
568.47312
-3108.2261
-3581.5991
-3205.2814
0
0
0
0
0
0
0
0
0
0
0
1780.6712
3364.5938
5756.1159
5236.0891
3961.3818
3100.1679
2507.1425
2107.7396
1830.6538
1632.9916
1488.4293
1380.7304
1299.5692
1238.1931
1192.0509
1157.9571
1133.7802
1118.7531
1112.992
22.19161
42.166307
66.37097
91.284866
118.75233
149.5472
184.74317
225.50525
273.13236
329.82971
399.49979
478.02708
537.52987
536.24714
558.10659
702.38668
0
0
0
0
0
0
-1132.0685
-1103.5241
-1011.3064
-917.55695
-790.08575
-495.29954
-94.947908
697.08327
2026.4392
3361.91
4750.9868
4489.8571
3714.8016
3058.6861
2552.665
2182.2198
1911.4451
1711.661
1562.3542
1449.5315
1363.6919
1298.3445
1248.9829
1212.3849
1186.37
1170.1774
1163.9657
19.954005
50.022141
74.970438
100.54376
127.96153
158.0567
191.47958
228.66485
269.57191
313.4179
357.89964
396.56214
406.14884
338.09169
142.01779
-338.13554
-1284.4169
-1227.4746
-1147.1017
-1100.4786
-1051.0818
-1021.6135
-1010.3648
-803.28996
-838.68289
-583.18241
-362.3457
-204.61797
259.08221
904.854
1960.2921
3049.3228
3956.5649
3851.8961
3404.2975
2933.5966
2528.4612
2206.0151
1956.7035
1765.4219
1618.5283
1505.3804
1418.1049
1351.0008
1299.9418
1261.8828
1234.7279
1217.788
1211.2834
20.663333
46.485396
72.120231
97.971734
125.28632
154.81506
187.13903
222.62485
261.25899
302.13402
342.03491
373.73551
384.81865
353.15841
205.21572
-227.92245
-792.30533
-920.95931
-962.54839
-966.15121
-887.80338
-842.32088
-818.55011
-691.80076
-620.94435
-417.54099
-179.14395
77.742299
510.88635
1096.4657
1896.1862
2721.5877
3334.8849
3356.8262
3105.6562
2777.1426
2463.3569
2193.8096
1973.5969
1797.6781
1658.5133
1548.9426
1463.0383
1396.1799
1344.843
1306.3173
1278.6975
1261.418
1254.7752
14.99658
36.230572
58.796951
81.290964
104.29075
128.03538
152.53035
177.4158
201.78982
223.689
238.89673
240.18097
218.24881
159.21432
15.074906
-283.91235
-606.9035
-732.46501
-784.5189
-794.28688
-753.12573
-703.47471
-642.23555
-537.76273
-423.88699
-238.24377
-11.499191
269.88322
668.60786
1187.7216
1823.2417
2450.8959
2889.5199
2967.0581
2834.9716
2613.0006
2376.1809
2157.6757
1969.1879
1812.3851
1684.4717
1581.3757
1499.0904
1434.1692
1383.7995
1345.7034
1318.2389
1300.999
1294.3622
23.838357
46.444874
70.189843
93.656106
117.54416
141.9609
166.72584
191.21032
214.09559
232.81497
242.68416
236.66977
205.98855
135.39737
-7.2596189
-236.55132
-460.15504
-579.80617
-635.38362
-644.54134
-615.8351
-568.29323
-497.28158
-394.46054
-264.34967
-82.933467
139.16044
416.11289
777.02603
1223.7715
1735.5097
2221.7449
2557.2295
2658.5596
2599.6221
2454.8458
2280.1773
2107.1223
1949.7492
1813.4684
1698.7937
1604.1103
1527.1057
1465.4571
1417.0846
1380.1841
1353.4174
1336.5529
1330.0507
12.024189
29.927681
50.032155
70.035694
90.040948
109.92714
129.38604
147.74677
163.76059
175.18254
178.31548
168.06135
137.63831
74.654076
-40.055415
-203.50798
-358.80752
-456.74789
-506.07945
-514.23405
-488.93055
-440.00609
-365.68976
-262.60138
-128.53907
46.963639
261.85393
525.19041
849.67376
1232.3368
1648.6357
2032.8052
2301.9483
2411.5827
2398.1271
2308.535
2183.159
2048.9505
1920.3863
1804.4649
1703.8306
1618.6746
1548.0636
1490.6657
1445.0899
1410.0046
1384.3864
1368.1809
1361.9228
21.40725
40.632406
60.854063
80.367679
99.453521
117.84336
135.02353
150.10158
161.6288
167.32347
163.94521
147.54832
113.08083
52.273365
-43.557229
-165.61563
-279.00371
-356.12516
-395.69044
-400.45716
-375.18791
-324.72608
-248.67456
-145.28321
-11.774723
156.7919
361.05858
606.02141
895.95122
1224.4154
1567.8659
1878.5071
2101.9965
2212.187
2227.1461
2176.7601
2089.8432
1988.0672
1885.0994
1788.3893
1701.7407
1626.5692
1562.9903
1510.4905
1468.2861
1435.4854
1411.3694
1396.0503
1390.1244
11.864127
27.968629
45.959714
63.61157
80.820448
97.231839
112.31655
125.22191
134.61697
138.50947
134.22465
118.55886
87.502047
35.679406
-40.002545
-130.43206
-213.52515
-271.83111
-300.84946
-300.62695
-273.4625
-221.63436
-145.03242
-42.511625
87.993697
248.90808
441.01319
666.29991
924.57361
1207.7338
1495.1764
1752.1618
1942.6276
2049.7634
2082.4748
2059.9376
2002.6777
1927.633
1846.8489
1767.6911
1694.4088
1629.1878
1572.8934
1525.6519
1487.188
1456.9983
1434.6426
1420.3801
1414.8533
17.140346
33.237295
50.219966
66.36472
81.71425
95.886634
108.32914
118.22201
124.38311
125.18544
118.61207
102.36223
73.690816
29.625183
-29.98915
-97.38247
-158.13684
-200.46252
-219.38534
-213.53487
-183.55821
-130.34366
-53.764793
46.959828
173.10503
325.7761
505.17442
711.24583
941.41776
1187.1576
1431.2308
1648.3108
1813.9316
1916.4934
1960.2181
1957.4974
1922.9606
1869.6947
1807.8361
1744.31
1683.4261
1627.7746
1578.7185
1536.8588
1502.3252
1474.9433
1454.517
1441.4273
1436.3459
11.965864
26.36569
42.104152
57.216546
71.53568
84.633653
95.955383
104.72767
109.89829
110.11332
103.80183
89.276461
64.758067
28.907088
-17.019916
-66.703978
-110.25042
-139.22925
-148.99495
-137.55177
-104.54829
-50.080071
26.067463
124.39833
245.54538
389.78496
556.64679
744.78711
950.46816
1165.4729
1375.7029
1562.537
1708.9268
1806.4494
1856.8886
1868.2986
1851.1306
1815.4429
1769.568
1719.7243
1670.0954
1623.4064
1581.3244
1544.7825
1514.2204
1489.731
1471.3234
1459.4737
1454.8654
13.672509
27.359553
41.871625
55.5507
68.315648
79.771087
89.415326
96.581006
100.40702
99.848801
93.763409
81.006993
60.559343
32.09822
-2.5896642
-38.476903
-68.502056
-86.408072
-88.11046
-71.4317
-35.490057
20.053583
95.478895
191.0733
307.00079
442.97302
597.96248
769.8652
954.4852
1144.3013
1327.8964
1491.404
1622.6056
1715.1561
1769.5572
1791.0632
1787.1659
1765.5767
1733.0727
1695.0575
1655.4629
1616.9939
1581.4705
1550.0416
1523.3729
1501.7669
1485.3995
1474.8146
1470.6908
11.353736
24.027809
37.645077
50.500503
62.432294
73.046685
81.879923
88.351886
91.760545
91.312488
86.205918
75.732551
59.445815
37.650824
12.27576
-12.652713
-31.897243
-40.645543
-35.405509
-14.038304
24.574983
80.987882
155.49799
248.21807
358.97799
487.0997
631.16207
788.66152
955.34846
1124.5369
1286.9993
1432.2476
1551.2798
1639.1805
1695.7792
1724.5048
1730.7495
1720.4238
1699.0128
1671.1264
1640.351
1609.2932
1579.8151
1553.1928
1530.2474
1511.4409
1497.0793
1487.7488
1484.1072
11.407403
23.29597
35.923426
47.754278
58.666102
68.304918
76.268333
82.076581
85.182412
85.010212
81.033082
72.876156
60.488889
44.521823
26.846971
10.720813
0.1620829
-1.0287201
10.104946
35.553455
76.498291
133.57302
207.05456
296.91434
402.74623
523.60863
657.83489
802.75857
954.29662
1106.6001
1252.1839
1382.975
1492.164
1575.8542
1633.5309
1667.4208
1681.4218
1680.0716
1667.7998
1648.5059
1625.3917
1600.918
1576.9173
1554.7265
1535.2673
1519.1182
1506.6841
1498.5699
1495.3981
10.343686
21.515183
33.418425
44.560464
54.805569
63.829308
71.285595
76.786867
79.922685
80.301471
77.620438
71.762494
62.950868
52.019271
40.711451
31.704486
28.181683
33.206012
49.280827
78.203919
121.12166
178.66743
251.07211
338.19278
439.45851
553.75765
679.29266
813.38201
952.21489
1090.7109
1222.7509
1342.0026
1443.1846
1523.143
1581.1967
1618.7733
1638.7032
1644.4824
1639.6899
1627.6162
1611.0823
1592.3708
1573.251
1555.0717
1538.8125
1525.1345
1514.516
1507.5605
1504.8389
9.940595
20.476329
31.670249
42.12993
51.739957
60.213171
67.25956
72.575005
75.865083
76.886536
75.510215
71.807274
66.178077
59.537965
53.481219
50.249682
52.431431
62.543622
82.71478
114.5425
159.08907
216.9435
288.27763
372.85636
469.99558
578.4817
696.46723
821.34126
949.60162
1076.838
1197.9921
1307.9978
1402.6579
1479.3695
1537.381
1577.5847
1602.0453
1613.4712
1614.7636
1608.7012
1597.7592
1584.0279
1569.1938
1554.5861
1541.2119
1529.7892
1520.8521
1514.9867
1512.693
9.3564763
19.36465
30.008257
39.956241
49.101753
57.191714
63.988113
69.26132
72.815766
74.52909
74.407787
72.660973
69.801454
66.769475
65.017762
66.459268
73.249153
87.495146
111.02075
145.23531
191.09787
249.13239
319.44803
401.73611
495.2366
598.68161
710.22598
827.3726
946.92326
1065.0315
1177.4566
1280.0599
1369.4247
1443.3595
1501.0936
1543.1577
1571.0662
1586.934
1593.1289
1592.0064
1585.7412
1576.2379
1565.0915
1553.5955
1542.7631
1533.3518
1525.9431
1521.0955
1519.21
8.9349131
18.485901
28.650012
38.160374
46.92271
54.715524
61.346378
66.648357
70.50612
72.892062
73.914971
73.881527
73.372686
73.323414
75.061823
80.251736
90.729565
108.29409
134.52425
170.66296
217.56473
275.68274
345.06621
425.34859
515.72044
614.89125
721.04819
831.82281
944.29327
1055.074
1160.5501
1257.2635
1342.3645
1413.9702
1471.3159
1514.688
1545.2053
1564.5391
1574.6422
1577.5285
1575.1196
1569.1522
1561.1292
1552.3021
1543.6747
1536.0292
1529.9951
1526.107
1524.6257
8.5490773
17.743399
27.539607
36.720509
45.201009
52.787957
59.328599
64.708497
68.876892
71.879742
73.901998
75.318096
76.748496
79.1094
83.625306
91.772636
105.15287
125.3327
153.69883
191.35422
239.05808
297.19651
365.76564
444.3545
532.12278
627.77666
729.54922
835.197
942.03477
1047.043
1147.0787
1239.1821
1320.9142
1390.622
1447.5577
1491.8421
1524.3114
1546.3081
1559.4676
1565.534
1566.2216
1563.124
1557.6586
1551.0347
1544.2384
1538.066
1533.2124
1530.2275
1529.1727
8.1797835
17.102039
26.616305
35.549274
43.821554
51.264707
57.758756
63.230939
67.680171
71.207359
74.052405
76.635593
79.599196
83.837152
90.492076
100.902
116.49754
138.67408
168.67168
207.4814
255.78227
313.90253
381.79435
459.01353
544.70135
637.57061
735.9021
837.56175
940.0555
1040.6441
1136.5321
1225.1184
1304.2578
1372.4655
1429.0134
1473.9116
1507.7978
1531.7768
1547.2485
1555.7515
1558.8382
1557.987
1554.5453
1549.6883
1544.3855
1539.4362
1535.6164
1533.5678
1533.0771
7.8074538
16.603216
25.940201
34.712367
42.846847
50.199173
56.676386
62.237792
66.919043
70.860554
74.340306
77.808397
81.91802
87.542084
95.761352
107.81568
125.01699
148.64029
179.81973
219.46295
268.18715
326.27532
393.64605
469.83181
553.96361
644.76446
740.55696
839.29391
938.62515
1036.0143
1128.9105
1214.9608
1292.2225
1359.3282
1415.5678
1460.8795
1495.7664
1521.1684
1538.3187
1548.6073
1553.4676
1554.2914
1552.3717
1548.8584
1544.7048
1540.6817
1537.6135
1536.3931
1536.6783
7.3041485
16.167647
25.424098
34.111286
42.16506
49.465407
55.940151
61.570771
66.417019
70.644356
74.554092
78.613403
83.479715
90.010202
99.245724
112.36617
130.6099
155.17326
187.12015
227.30275
276.29644
334.35338
401.36965
476.86281
559.95854
649.3888
743.50629
840.32339
937.5854
1032.8873
1123.8341
1208.2287
1284.2558
1350.6229
1406.6329
1452.1809
1487.6865
1513.9856
1532.2043
1543.6361
1549.6366
1551.5377
1550.5921
1547.9355
1544.515
1541.0466
1538.3501
1537.9194
1540.1126
6.0814482
15.83543
25.143097
33.822697
41.845784
49.124377
55.600518
61.267884
66.198535
70.570457
74.69671
79.053218
84.30028
91.289897
101.04772
114.71747
133.48985
158.52433
190.8549
231.30683
280.43465
338.47481
405.31194
480.45602
563.0302
651.77128
745.04767
840.90229
937.12882
1031.388
1121.362
1204.9308
1280.3418
1346.3401
1402.2359
1447.9039
1483.7233
1510.4793
1529.246
1541.2698
1547.8629
1550.3266
1549.9016
1547.7269
1544.7598
1541.6755
1539.2598
1539.7828
1545.625
-2227.7586
-2483.6252
-2699.5394
-2881.4842
-3023.968
-3106.2152
-3108.2261
-3029.2219
-2857.2792
-2664.0038
-3205.3895
-3205.2814
-3198.436
-3187.4491
-3173.3348
-3160.582
-3148.7462
-3158.2129
-3158.815
-3131.4106
-3183.0319
-3181.9074
-3167.153
-3150.1898
-3133.2747
-3124.2839
-3105.9913
-3113.2083
-3100.0767
-3046.5505
-3137.8424
-3135.1804
-3126.5772
-3117.8815
-3109.088
-3112.1002
-3101.0046
-3098.9719
-3085.5706
-3048.7087
-3078.1503
-3076.7158
-3072.1702
-3066.2529
-3057.7474
-3058.1474
-3057.8131
-3057.1429
-3055.6644
-3059.4012
-3030.1696
-3029.3773
-3023.6165
-3013.4553
-2998.2004
-2968.638
-2990.8021
-3003.1029
-3009.7485
-3023.0973
-3013.4134
-3015.1075
-3018.3592
-3021.7464
-3032.663
-3008.5371
-3008.2152
-3004.5879
-2989.6697
-2966.6817
-3027.9236
-3029.5544
-3035.6403
-3044.3367
-3068.3867
-3076.1032
-3056.722
-3030.7045
-3000.8676
-2965.4637
-3848.4531
-3860.7654
-3831.7266
-3787.317
-3749.7572
-3717.692
-3696.1887
-3682.4626
-3673.5227
-3675.2648
-2986.9819
-2985.7898
-2977.9089
-2960.9538
-2921.5856
-2946.9465
-2958.9513
-2961.144
-2950.6582
-2923.5512
-3009.2485
-3012.325
-3018.6883
-3037.9316
-3013.9716
-3005.2511
-3001.2994
-2993.8839
-2979.8937
-2964.752
-3048.5071
-3050.9596
-3056.1376
-3080.7268
-3093.4965
-3069.4242
-3042.6923
-3022.4077
-3003.5389
-2987.0531
-2999.6599
-2995.8312
-2976.9423
-2951.6614
-2974.5984
-2992.0794
-3003.3184
-3010.7383
-3013.0014
-3020.0189
-3033.2655
-3035.7259
-3034.8624
-2997.9712
-3007.1045
-3020.7173
-3031.5175
-3038.7506
-3041.8
-3051.3647
-3156.8905
-3164.6845
-3188.9178
-3187.447
-3159.5472
-3131.7562
-3111.0627
-3095.6698
-3080.2524
-3063.0196
-3141.9783
-3137.1436
-3129.66
-3149.8311
-3150.4249
-3144.6322
-3138.4097
-3132.9746
-3126.9766
-3128.8789
-3162.7558
-3162.0352
-3137.7508
-3147.9049
-3159.3505
-3167.4866
-3171.9067
-3173.7105
-3173.001
-3177.7024
-3277.1166
-3289.5198
-3285.4691
-3271.1279
-3255.8061
-3243.7652
-3235.0337
-3229.2401
-3222.4247
-3213.8644
-3282.4891
-3286.5606
-3294.0152
-3285.9373
-3276.2943
-3270.7942
-3270.5591
-3275.0003
-3280.0409
-3292.3434
-3186.3252
-3172.2151
-3189.5516
-3215.4285
-3244.9018
-3273.5988
-3300.5727
-3325.1455
-3345.2984
-3370.2636
-3326.0534
-3302.4342
-3312.0417
-3332.3493
-3359.1128
-3384.3606
-3406.8262
-3425.2574
-3437.7759
-3453.4907
-3701.6752
-3692.6558
-3661.957
-3627.886
-3602.8071
-3583.3219
-3571.2318
-3564.0738
-3557.9588
-3555.0928
-3016.6791
-3015.1535
-3009.7384
-2998.1202
-2992.6342
-2999.893
-2999.5302
-2994.1796
-2984.9474
-2983.9237
-3540.5384
-3549.1352
-3563.5695
-3610.8534
-3667.029
-3718.8606
-3739.9428
-3721.8038
-3638.1031
-3466.2535
-3268.759
-3268.9938
-3271.9433
-3276.8114
-3277.9221
-3277.026
-3275.0647
-3269.9201
-3265.7624
-3219.2852
-3179.5263
-3227.5524
-3289.6669
-3394.37
-3505.6954
-3592.5211
-3635.0768
-3595.2075
-3447.0642
-3214.6353
-3480.2772
-3490.3208
-3511.2515
-3547.9507
-3581.5991
-3610.2587
-3618.8298
-3618.325
-3582.5469
-3470.1578
-3367.3457
-3371.7357
-3385.9152
-3409.8734
-3430.8343
-3448.4903
-3456.6158
-3446.1969
-3433.5792
-3381.8277
11318.721
10715.546
10129.574
9489.9387
8832.8455
8179.5385
7545.1798
6936.7832
6347.3435
5770.3036
8301.8478
8224.5309
8101.259
7839.6069
7501.7186
7111.2843
6689.606
6254.5656
5816.3984
5360.0005
-3709.501
-3727.9366
-3745.3444
-3751.3108
-3759.9995
-3763.2638
-3768.0593
-3771.4951
-3772.8203
-3776.3119
-3705.8523
-3709.7035
-3745.0498
-3776.2805
-3815.3395
-3842.5112
-3866.4375
-3882.4675
-3891.115
-3895.3029
-3946.5158
-3939.2804
-3955.5093
-3963.0863
-3991.4662
-4009.846
-4029.6729
-4042.6491
-4048.0685
-4043.6186
-4222.4236
-4212.0686
-4226.3375
-4216.9239
-4232.995
-4234.8769
-4241.3996
-4242.4482
-4238.8761
-4234.515
-4544.8771
-4526.7374
-4538.4825
-4511.4474
-4515.2332
-4497.3863
-4484.9282
-4464.9011
-4437.2336
-4404.873
-4901.1059
-4873.8837
-4883.4907
-4837.0695
-4828.6375
-4790.1486
-4757.3177
-4713.8956
-4659.226
-4599.015
-5281.8499
-5243.3996
-5252.0397
-5185.2224
-5165.6723
-5107.5836
-5056.1881
-4992.7191
-4916.4638
-4831.1518
-5682.8606
-5630.7855
-5639.6102
-5550.5891
-5519.7722
-5441.5442
-5370.8779
-5288.443
-5198.469
-5115.9186
-6105.0444
-6035.9219
-6045.771
-5931.7766
-5888.306
-5787.8972
-5693.5297
-5583.5012
-5458.188
-5322.5875
-6548.5007
-6458.4129
-6470.8436
-6329.1987
-6271.9445
-6149.0598
-6030.8968
-5896.7846
-5747.1785
-5585.4192
-7019.3418
-6902.2108
-6917.9748
-6744.492
-6670.3458
-6522.7549
-6376.8536
-6214.6287
-6036.1372
-5850.2666
-7516.4406
-7366.2092
-7388.3267
-7179.8873
-7085.7242
-6911.6638
-6733.8688
-6537.7864
-6319.1653
-6081.8851
-8058.1151
-7863.4481
-7892.398