/*--------------------------------*- C++ -*----------------------------------*\
| =========                 |                                                 |
| \\      /  F ield         | foam-extend: Open Source CFD                    |
|  \\    /   O peration     | Version:     4.1                                |
|   \\  /    A nd           | Web:         http://www.foam-extend.org         |
|    \\/     M anipulation  |                                                 |
\*---------------------------------------------------------------------------*/
FoamFile
{
    version     2.0;
    format      ascii;
    class       volVectorField;
    location    "3";
    object      U;
}
// * * * * * * * * * * * * * * * * * * * * * * * * * * * * * * * * * * * * * //

dimensions      [0 1 -1 0 0 0 0];

internalField   nonuniform List<vector> 
4393
(
(146.0489 -0.15650301 0)
(146.5975 -0.16293698 0)
(147.0118 -0.1659511 0)
(147.45302 -0.16960184 0)
(147.90407 -0.1740097 0)
(148.36986 -0.17926016 0)
(148.8526 -0.18527505 0)
(149.35444 -0.19190811 0)
(149.87699 -0.19895369 0)
(150.42114 -0.20614876 0)
(150.98694 -0.21317311 0)
(151.57338 -0.21965256 0)
(152.17825 -0.22516776 0)
(152.79805 -0.22927001 0)
(153.42788 -0.2315044 0)
(154.06149 -0.23143763 0)
(154.69139 -0.22868564 0)
(155.30905 -0.22293508 0)
(155.90508 -0.21395434 0)
(156.46956 -0.2015937 0)
(156.99221 -0.18577845 0)
(157.46262 -0.16650102 0)
(157.87046 -0.14381871 0)
(158.20564 -0.117862 0)
(158.4586 -0.088857101 0)
(158.62065 -0.057159571 0)
(158.68448 -0.023276068 0)
(158.64488 0.012126574 0)
(158.49853 0.047973244 0)
(158.24628 0.08284878 0)
(157.89311 0.11530703 0)
(157.44835 0.14393708 0)
(156.92537 0.16751055 0)
(156.3408 0.18513467 0)
(155.71333 0.19635097 0)
(155.0623 0.20115493 0)
(154.40646 0.1999421 0)
(153.76286 0.19340542 0)
(153.14622 0.1824142 0)
(152.56855 0.16790047 0)
(152.03911 0.15076882 0)
(151.56467 0.13183513 0)
(151.14978 0.1117934 0)
(150.79719 0.091217228 0)
(150.50827 0.070610789 0)
(150.28348 0.050432474 0)
(150.12222 0.03083747 0)
(150.02092 0.011723075 0)
(149.97389 -0.0031700222 0)
(149.47194 -0.39491478 0)
(149.94134 -0.40586637 0)
(150.28758 -0.41396609 0)
(150.65757 -0.42450818 0)
(151.03721 -0.43760792 0)
(151.43148 -0.45330114 0)
(151.84274 -0.47131768 0)
(152.27326 -0.49121209 0)
(152.72471 -0.51237201 0)
(153.19807 -0.53401642 0)
(153.69348 -0.55519356 0)
(154.20999 -0.57478885 0)
(154.74548 -0.59154964 0)
(155.29645 -0.60413165 0)
(155.85801 -0.61116765 0)
(156.4239 -0.61135162 0)
(156.98653 -0.6035231 0)
(157.53727 -0.58673319 0)
(158.06665 -0.56027895 0)
(158.56461 -0.52370445 0)
(159.02077 -0.47678026 0)
(159.42465 -0.41948052 0)
(159.76578 -0.35197788 0)
(160.03397 -0.27467249 0)
(160.2195 -0.18826595 0)
(160.31345 -0.093877172 0)
(160.3083 0.0068450358 0)
(160.19843 0.11165837 0)
(159.98172 0.21748521 0)
(159.65888 0.32051337 0)
(159.23466 0.41654779 0)
(158.71823 0.50139297 0)
(158.12299 0.57135838 0)
(157.46573 0.62373678 0)
(156.76535 0.65710934 0)
(156.04147 0.67140891 0)
(155.31302 0.66776015 0)
(154.59716 0.64817295 0)
(153.90862 0.61518106 0)
(153.25934 0.57150306 0)
(152.6585 0.51977211 0)
(152.11272 0.46235045 0)
(151.62645 0.401226 0)
(151.20242 0.33800174 0)
(150.84201 0.27399616 0)
(150.54554 0.21026767 0)
(150.31218 0.1471053 0)
(150.14086 0.084344865 0)
(150.03531 0.02858056 0)
(149.73739 -0.6293937 0)
(150.19159 -0.63857063 0)
(150.52687 -0.65072035 0)
(150.88501 -0.66771116 0)
(151.25284 -0.6893918 0)
(151.63542 -0.71554007 0)
(152.03526 -0.74564638 0)
(152.45473 -0.77895197 0)
(152.89563 -0.8144347 0)
(153.35911 -0.85079306 0)
(153.84544 -0.88643722 0)
(154.35385 -0.91949893 0)
(154.88236 -0.94787081 0)
(155.42757 -0.96928372 0)
(155.98467 -0.98142421 0)
(156.54738 -0.98208087 0)
(157.10806 -0.96929255 0)
(157.65797 -0.94146405 0)
(158.18754 -0.89742409 0)
(158.68661 -0.8364221 0)
(159.14472 -0.75808528 0)
(159.55127 -0.66237105 0)
(159.89571 -0.54955185 0)
(160.16766 -0.42026151 0)
(160.35714 -0.27562239 0)
(160.45481 -0.11745661 0)
(160.45263 0.051463242 0)
(160.34438 0.22725299 0)
(160.1264 0.404855 0)
(159.79877 0.57802911 0)
(159.36598 0.73967604 0)
(158.83741 0.88259888 0)
(158.22711 1.00044 0)
(157.55291 1.088546 0)
(156.83491 1.1445114 0)
(156.09388 1.16828 0)
(155.34967 1.1618477 0)
(154.6201 1.1287114 0)
(153.9202 1.073232 0)
(153.26196 1.0000463 0)
(152.6544 0.91360626 0)
(152.10385 0.81786971 0)
(151.61442 0.71613371 0)
(151.18849 0.61100874 0)
(150.82718 0.50451245 0)
(150.53034 0.39807289 0)
(150.29671 0.29220455 0)
(150.12702 0.18720531 0)
(150.02928 0.087413779 0)
(149.82993 -0.8584097 0)
(150.2762 -0.86818683 0)
(150.60689 -0.88443538 0)
(150.96021 -0.90797678 0)
(151.32346 -0.93842262 0)
(151.70181 -0.97532229 0)
(152.09796 -1.017933 0)
(152.51447 -1.0651979 0)
(152.95336 -1.1157038 0)
(153.41601 -1.1676449 0)
(153.90293 -1.2188015 0)
(154.41357 -1.2665465 0)
(154.94611 -1.3078959 0)
(155.49728 -1.3396155 0)
(156.06222 -1.3583908 0)
(156.63452 -1.3610454 0)
(157.20631 -1.344765 0)
(157.76854 -1.3072739 0)
(158.31127 -1.2469183 0)
(158.82403 -1.162652 0)
(159.29607 -1.053958 0)
(159.71652 -0.92076059 0)
(160.07456 -0.76338792 0)
(160.35947 -0.58262768 0)
(160.56077 -0.37990572 0)
(160.66846 -0.15759501 0)
(160.67364 0.080594136 0)
(160.56908 0.32929731 0)
(160.35013 0.58129834 0)
(160.01601 0.82757874 0)
(159.57083 1.0577952 0)
(159.02428 1.2613673 0)
(158.39144 1.4289111 0)
(157.69177 1.5535892 0)
(156.94728 1.6319472 0)
(156.18053 1.6640467 0)
(155.41286 1.6529779 0)
(154.66304 1.603996 0)
(153.94658 1.5235519 0)
(153.2755 1.4184203 0)
(152.65854 1.2950354 0)
(152.10159 1.1590618 0)
(151.60818 1.0151826 0)
(151.1802 0.86707316 0)
(150.81825 0.71749259 0)
(150.52164 0.56832289 0)
(150.28881 0.42059243 0)
(150.12121 0.27534751 0)
(150.02715 0.13502558 0)
(149.93892 -1.0819503 0)
(150.37711 -1.0932724 0)
(150.70246 -1.1137397 0)
(151.05041 -1.1439485 0)
(151.40865 -1.1833391 0)
(151.78247 -1.231272 0)
(152.17479 -1.2867842 0)
(152.58843 -1.3485311 0)
(153.02568 -1.4147158 0)
(153.48825 -1.4830293 0)
(153.97695 -1.5506108 0)
(154.49154 -1.6140468 0)
(155.03044 -1.6694265 0)
(155.59049 -1.7124783 0)
(156.16684 -1.7387978 0)
(156.75286 -1.7441534 0)
(157.34035 -1.7248088 0)
(157.91977 -1.6777757 0)
(158.48071 -1.6009273 0)
(159.01225 -1.4929607 0)
(159.50327 -1.3532604 0)
(159.94259 -1.1817475 0)
(160.31906 -0.9788007 0)
(160.62154 -0.74531326 0)
(160.83897 -0.48292635 0)
(160.96048 -0.19445186 0)
(160.97602 0.11557324 0)
(160.87701 0.44040869 0)
(160.65725 0.7707546 0)
(160.31472 1.0946356 0)
(159.85287 1.3980363 0)
(159.28173 1.6664149 0)
(158.61786 1.8868024 0)
(157.88307 2.0498082 0)
(157.10209 2.1508396 0)
(156.3001 2.1902456 0)
(155.50046 2.1725459 0)
(154.72327 2.1051453 0)
(153.98459 1.9969415 0)
(153.29645 1.8571162 0)
(152.66714 1.6942487 0)
(152.10183 1.515773 0)
(151.60332 1.3277344 0)
(151.17272 1.1347784 0)
(150.80995 0.94026455 0)
(150.51371 0.74638682 0)
(150.28219 0.55444177 0)
(150.11706 0.36561716 0)
(150.02586 0.18119234 0)
(150.07649 -1.3029511 0)
(150.50472 -1.31631 0)
(150.82324 -1.341183 0)
(151.16438 -1.3782815 0)
(151.51625 -1.4269413 0)
(151.88433 -1.4863908 0)
(152.27176 -1.5554855 0)
(152.68167 -1.632627 0)
(153.11673 -1.7156631 0)
(153.57904 -1.8017987 0)
(154.06983 -1.8875314 0)
(154.58926 -1.968634 0)
(155.13607 -2.0402085 0)
(155.70733 -2.0968474 0)
(156.29815 -2.1329272 0)
(156.90166 -2.1430234 0)
(157.50916 -2.1223633 0)
(158.1105 -2.0671831 0)
(158.69463 -1.9748782 0)
(159.25004 -1.8439242 0)
(159.76515 -1.6736482 0)
(160.22843 -1.4639797 0)
(160.62838 -1.2153026 0)
(160.95342 -0.92849882 0)
(161.19179 -0.60523986 0)
(161.33155 -0.24854896 0)
(161.36114 0.13642462 0)
(161.27019 0.54165214 0)
(161.05039 0.95566183 0)
(160.69784 1.3632366 0)
(160.21494 1.7460857 0)
(159.61207 2.0848711 0)
(158.90778 2.3622193 0)
(158.12713 2.5656596 0)
(157.29869 2.6893647 0)
(156.45114 2.7342646 0)
(155.61059 2.706843 0)
(154.79877 2.6172584 0)
(154.0324 2.4774018 0)
(153.32335 2.2992819 0)
(152.67921 2.0939003 0)
(152.10416 1.8706089 0)
(151.59994 1.636863 0)
(151.16662 1.3982521 0)
(150.80317 1.1586723 0)
(150.50754 0.92055153 0)
(150.27748 0.68523072 0)
(150.11443 0.45353923 0)
(150.02513 0.22567277 0)
(150.24333 -1.5149129 0)
(150.66 -1.5306041 0)
(150.9702 -1.5601507 0)
(151.30294 -1.6044734 0)
(151.64694 -1.6628341 0)
(152.00783 -1.7343728 0)
(152.38907 -1.8178032 0)
(152.79415 -1.9113114 0)
(153.22619 -2.012423 0)
(153.68777 -2.1178793 0)
(154.18067 -2.2235385 0)
(154.70559 -2.3243302 0)
(155.26171 -2.4142975 0)
(155.84638 -2.486775 0)
(156.45474 -2.5347543 0)
(157.07958 -2.5514386 0)
(157.71159 -2.5308754 0)
(158.33976 -2.4684616 0)
(158.9522 -2.3611429 0)
(159.53666 -2.2072659 0)
(160.08103 -2.0062062 0)
(160.57343 -1.757968 0)
(161.00204 -1.4629274 0)
(161.35486 -1.1218401 0)
(161.61936 -0.73618837 0)
(161.78236 -0.30890663 0)
(161.83045 0.15456209 0)
(161.7509 0.64516095 0)
(161.53252 1.149354 0)
(161.16872 1.6483679 0)
(160.66021 2.1188353 0)
(160.01761 2.5354311 0)
(159.26211 2.875174 0)
(158.42322 3.1217394 0)
(157.5347 3.2679341 0)
(156.62999 3.315698 0)
(155.73869 3.2742241 0)
(154.88454 3.157232 0)
(154.08491 2.9802984 0)
(153.35126 2.7587567 0)
(152.69013 2.5063247 0)
(152.10436 2.2343981 0)
(151.59425 1.9518489 0)
(151.15854 1.6651487 0)
(150.79505 1.3786523 0)
(150.50078 1.094956 0)
(150.27284 0.81535756 0)
(150.11214 0.54028885 0)
(150.02456 0.26916632 0)
(150.43875 -1.7254232 0)
(150.84135 -1.7434639 0)
(151.14158 -1.7777056 0)
(151.46428 -1.8293601 0)
(151.79881 -1.8976654 0)
(152.15099 -1.9817285 0)
(152.52461 -2.0801785 0)
(152.92361 -2.191044 0)
(153.35163 -2.3115835 0)
(153.81186 -2.438116 0)
(154.30676 -2.5658761 0)
(154.8377 -2.6889264 0)
(155.40448 -2.8001694 0)
(156.00486 -2.8915282 0)
(156.63403 -2.9543849 0)
(157.28442 -2.9803144 0)
(157.94584 -2.9619705 0)
(158.60621 -2.8938101 0)
(159.25248 -2.7723626 0)
(159.87151 -2.5959731 0)
(160.45059 -2.3642111 0)
(160.9775 -2.0772436 0)
(161.44023 -1.7354192 0)
(161.82644 -1.3392084 0)
(162.12287 -0.88960202 0)
(162.31495 -0.38902779 0)
(162.38701 0.15723902 0)
(162.32337 0.73946637 0)
(162.10896 1.3421776 0)
(161.73338 1.9427301 0)
(161.19461 2.5116548 0)
(160.50329 3.0159745 0)
(159.68399 3.4253636 0)
(158.77235 3.718554 0)
(157.80919 3.886876 0)
(156.83422 3.9339775 0)
(155.88146 3.8728719 0)
(154.977 3.7219815 0)
(154.1387 3.501502 0)
(153.3772 3.2307237 0)
(152.6975 2.9264239 0)
(152.10061 2.6021562 0)
(151.58495 2.2681656 0)
(151.14761 1.9316697 0)
(150.78497 1.5973063 0)
(150.49295 1.2676449 0)
(150.26784 0.94373494 0)
(150.10983 0.6255119 0)
(150.02402 0.31173438 0)
(150.66219 -1.9210451 0)
(151.0492 -1.9416729 0)
(151.33789 -1.981015 0)
(151.64881 -2.0405628 0)
(151.97212 -2.1195447 0)
(152.31385 -2.2170819 0)
(152.67819 -2.3317783 0)
(153.06956 -2.4615711 0)
(153.49222 -2.6035171 0)
(153.95009 -2.7535666 0)
(154.44648 -2.9063556 0)
(154.98362 -3.0550571 0)
(155.56213 -3.19134 0)
(156.18036 -3.3055241 0)
(156.83368 -3.3870849 0)
(157.51403 -3.4256156 0)
(158.21014 -3.4120777 0)
(158.90842 -3.3398598 0)
(159.59436 -3.2051558 0)
(160.25367 -3.0065365 0)
(160.87299 -2.744021 0)
(161.43989 -2.4181161 0)
(161.94234 -2.0291681 0)
(162.36787 -1.5771964 0)
(162.70264 -1.0623265 0)
(162.93057 -0.48592813 0)
(163.03337 0.14753824 0)
(162.99172 0.82826998 0)
(162.78538 1.539259 0)
(162.3985 2.2537518 0)
(161.82486 2.9348979 0)
(161.07447 3.5397207 0)
(160.17633 4.0279844 0)
(159.17447 4.3718914 0)
(158.11936 4.5612109 0)
(157.05902 4.6023798 0)
(156.03299 4.5138333 0)
(155.06991 4.3202485 0)
(154.18778 4.047635 0)
(153.39582 3.7199939 0)
(152.69681 3.357529 0)
(152.08924 2.9760377 0)
(151.56919 2.5870517 0)
(151.13168 2.1983642 0)
(150.77141 1.814698 0)
(150.483 1.4383937 0)
(150.2618 1.0700617 0)
(150.10717 0.70902266 0)
(150.02341 0.35333295 0)
(150.91341 -2.1185672 0)
(151.2815 -2.1416593 0)
(151.5568 -2.1859506 0)
(151.85405 -2.2533016 0)
(152.16426 -2.3429943 0)
(152.49367 -2.4542317 0)
(152.84687 -2.5856734 0)
(153.22882 -2.7352592 0)
(153.64451 -2.8999421 0)
(154.09873 -3.0753933 0)
(154.59582 -3.2557111 0)
(155.1391 -3.4331869 0)
(155.7303 -3.5981775 0)
(156.36861 -3.73919 0)
(157.04972 -3.8434234 0)
(157.76503 -3.8980125 0)
(158.50183 -3.8918098 0)
(159.24453 -3.8169625 0)
(159.97659 -3.6694665 0)
(160.6823 -3.4484697 0)
(161.34765 -3.154822 0)
(161.96015 -2.7896233 0)
(162.50808 -2.353261 0)
(162.97923 -1.8450903 0)
(163.35941 -1.2638763 0)
(163.63114 -0.60918486 0)
(163.77308 0.11624395 0)
(163.76152 0.90344748 0)
(163.56949 1.7345453 0)
(163.17346 2.5786431 0)
(162.56057 3.3900017 0)
(161.7391 4.1123543 0)
(160.74374 4.6917326 0)
(159.63022 5.0914932 0)
(158.46231 5.2998944 0)
(157.29902 5.32789 0)
(156.18666 5.2016865 0)
(155.15645 4.9543374 0)
(154.22587 4.6191801 0)
(153.40177 4.225786 0)
(152.6837 3.7981196 0)
(152.0669 3.3542079 0)
(151.54448 2.9066631 0)
(151.10898 2.4635702 0)
(150.75314 2.0294457 0)
(150.47013 1.6061361 0)
(150.25423 1.1935961 0)
(150.1039 0.79039413 0)
(150.02268 0.39378359 0)
(151.19051 -2.2909256 0)
(151.53868 -2.3166125 0)
(151.79896 -2.36624 0)
(152.08069 -2.4419999 0)
(152.37584 -2.543244 0)
(152.69088 -2.6693224 0)
(153.03085 -2.8190422 0)
(153.40129 -2.9904565 0)
(153.80799 -3.1805374 0)
(154.25679 -3.3847942 0)
(154.75325 -3.5968736 0)
(155.30209 -3.8082102 0)
(155.90646 -4.0077695 0)
(156.56681 -4.1819905 0)
(157.27939 -4.3152927 0)
(158.03505 -4.3916522 0)
(158.81916 -4.3971616 0)
(159.61335 -4.3224341 0)
(160.3984 -4.1634585 0)
(161.15678 -3.9204874 0)
(161.87379 -3.5957797 0)
(162.53728 -3.1914319 0)
(163.13633 -2.7080049 0)
(163.65952 -2.1440058 0)
(164.09284 -1.4962806 0)
(164.41756 -0.7616601 0)
(164.60906 0.060038228 0)
(164.63843 0.96206379 0)
(164.46999 1.9268338 0)
(164.06949 2.9196717 0)
(163.4137 3.8843448 0)
(162.50705 4.746674 0)
(161.39152 5.4331242 0)
(160.13942 5.894723 0)
(158.83316 6.1185694 0)
(157.54627 6.1228989 0)
(156.33318 5.9451394 0)
(155.22741 5.6295979 0)
(154.2447 5.2188176 0)
(153.3881 4.7488733 0)
(152.6527 4.2477387 0)
(152.02945 3.7355107 0)
(151.50782 3.2255294 0)
(151.07742 2.7257667 0)
(150.72878 2.2401494 0)
(150.45347 1.7697004 0)
(150.24464 1.3134615 0)
(150.09983 0.8690676 0)
(150.02177 0.43282096 0)
(151.49499 -2.4738445 0)
(151.8188 -2.5022055 0)
(152.06188 -2.5571298 0)
(152.32587 -2.6412524 0)
(152.60371 -2.7540728 0)
(152.902 -2.8951695 0)
(153.22623 -3.0636019 0)
(153.58258 -3.2576684 0)
(153.97773 -3.4745136 0)
(154.41872 -3.7096445 0)
(154.91259 -3.956392 0)
(155.46579 -4.2054085 0)
(156.08337 -4.4442341 0)
(156.76757 -4.6569944 0)
(157.51569 -4.824729 0)
(158.31801 -4.9273181 0)
(159.15738 -4.9471869 0)
(160.01158 -4.8730537 0)
(160.85764 -4.7013043 0)
(161.67564 -4.4342181 0)
(162.45029 -4.0764231 0)
(163.1702 -3.6316519 0)
(163.826 -3.1008592 0)
(164.4079 -2.4814858 0)
(164.90281 -1.7677139 0)
(165.29123 -0.95232334 0)
(165.54522 -0.030499792 0)
(165.62896 0.9951298 0)
(165.49755 2.1090123 0)
(165.10114 3.2741387 0)
(164.40039 4.4222932 0)
(163.39186 5.4549443 0)
(162.12684 6.2698967 0)
(160.70163 6.8004568 0)
(159.22515 7.0336193 0)
(157.79023 6.9993781 0)
(156.46075 6.7514856 0)
(155.27147 6.3493656 0)
(154.23446 5.8470194 0)
(153.3469 5.2879315 0)
(152.59774 4.7041218 0)
(151.97246 4.1173449 0)
(151.4561 3.5410952 0)
(151.0349 2.9826597 0)
(150.69697 2.4448817 0)
(150.4322 1.9275672 0)
(150.23259 1.4285522 0)
(150.09477 0.9443347 0)
(150.02066 0.47010136 0)
(151.82145 -2.6141362 0)
(152.12076 -2.6447316 0)
(152.34508 -2.7047733 0)
(152.58941 -2.7972804 0)
(152.84782 -2.921923 0)
(153.12706 -3.0786023 0)
(153.43304 -3.2667717 0)
(153.77259 -3.4851598 0)
(154.15337 -3.7313105 0)
(154.58378 -4.0009793 0)
(155.07259 -4.2874188 0)
(155.6284 -4.5806749 0)
(156.2587 -4.8669243 0)
(156.96827 -5.1277843 0)
(157.75619 -5.3401897 0)
(158.61235 -5.4785754 0)
(159.51622 -5.5202415 0)
(160.44011 -5.4513098 0)
(161.35574 -5.2690145 0)
(162.24005 -4.9788738 0)
(163.07734 -4.5890949 0)
(163.85785 -4.1057426 0)
(164.57482 -3.5303345 0)
(165.22129 -2.8590039 0)
(165.78633 -2.0824847 0)
(166.25048 -1.1879843 0)
(166.5826 -0.1639668 0)
(166.73938 0.9933129 0)
(166.66426 2.2730461 0)
(166.28652 3.6388198 0)
(165.54188 5.0097654 0)
(164.4117 6.2542107 0)
(162.95882 7.2267846 0)
(161.31518 7.8343646 0)
(159.62819 8.0664526 0)
(158.01629 7.9721062 0)
(156.55374 7.6289862 0)
(155.27431 7.1167438 0)
(154.18321 6.5034095 0)
(153.26889 5.84058 0)
(152.51197 5.1639752 0)
(151.89108 4.4962166 0)
(151.38601 3.850082 0)
(150.97926 3.2313972 0)
(150.65637 2.6413017 0)
(150.40553 2.0779204 0)
(150.21767 1.5375577 0)
(150.08855 1.0153536 0)
(150.01929 0.50521344 0)
(152.17466 -2.7815892 0)
(152.44372 -2.8153282 0)
(152.64675 -2.8812266 0)
(152.86888 -2.9828164 0)
(153.10516 -3.1200352 0)
(153.36236 -3.2932095 0)
(153.64674 -3.5023212 0)
(153.96578 -3.7467037 0)
(154.32815 -4.0245188 0)
(154.74375 -4.3320257 0)
(155.22343 -4.6626457 0)
(155.77837 -5.0059997 0)
(156.41922 -5.3469721 0)
(157.15439 -5.6644741 0)
(157.98597 -5.9304064 0)
(158.90397 -6.1117722 0)
(159.88345 -6.1784384 0)
(160.88888 -6.1128377 0)
(161.88436 -5.9139514 0)
(162.84261 -5.5927964 0)
(163.74793 -5.1634859 0)
(164.59333 -4.6359245 0)
(165.37601 -4.0129136 0)
(166.09332 -3.2894687 0)
(166.73807 -2.4522417 0)
(167.29224 -1.4808993 0)
(167.72185 -0.35406233 0)
(167.97575 0.94198201 0)
(167.98399 2.4052835 0)
(167.64862 4.005459 0)
(166.867 5.6507767 0)
(165.592 7.1649925 0)
(163.89973 8.3359315 0)
(161.97666 9.029235 0)
(160.02752 9.243007 0)
(158.20443 9.0573623 0)
(156.59184 8.5851876 0)
(155.21816 7.9329406 0)
(154.07683 7.1853558 0)
(153.14355 6.4023152 0)
(152.38796 5.6222381 0)
(151.78027 4.8672723 0)
(151.29428 4.1482213 0)
(150.90845 3.4684358 0)
(150.60573 2.8266003 0)
(150.37276 2.218636 0)
(150.19952 1.6389693 0)
(150.08103 1.0811618 0)
(150.01763 0.5376875 0)
(152.54178 -2.879804 0)
(152.7815 -2.9149409 0)
(152.96176 -2.9850743 0)
(153.15971 -3.0941249 0)
(153.3716 -3.2422887 0)
(153.60416 -3.430402 0)
(153.86398 -3.6591349 0)
(154.15911 -3.9286689 0)
(154.49926 -4.2381302 0)
(154.896 -4.5847371 0)
(155.36254 -4.9626016 0)
(155.91316 -5.3614242 0)
(156.56248 -5.765259 0)
(157.32392 -6.1505969 0)
(158.2045 -6.4836758 0)
(159.19542 -6.7216541 0)
(160.26586 -6.8236476 0)
(161.3687 -6.7667872 0)
(162.45663 -6.553237 0)
(163.49646 -6.2028058 0)
(164.47319 -5.7384162 0)
(165.38455 -5.1748585 0)
(166.23364 -4.51581 0)
(167.02423 -3.7542712 0)
(167.75556 -2.8713353 0)
(168.4135 -1.8362744 0)
(168.96247 -0.61392253 0)
(169.34329 0.82335808 0)
(169.472 2.4868588 0)
(169.21629 4.3601539 0)
(168.41528 6.3472034 0)
(166.96902 8.2137637 0)
(164.96627 9.6418761 0)
(162.6795 10.429065 0)
(160.40122 10.595947 0)
(158.32696 10.273422 0)
(156.54861 9.6265365 0)
(155.08116 8.796626 0)
(153.89884 7.8873995 0)
(152.95927 6.9661159 0)
(152.21794 6.0718566 0)
(151.63504 5.224194 0)
(151.17781 4.4302245 0)
(150.82062 3.6895488 0)
(150.54402 2.9975263 0)
(150.33333 2.3473115 0)
(150.17788 1.7311079 0)
(150.07212 1.1406983 0)
(150.01568 0.5670079 0)
(152.93699 -3.0310643 0)
(153.14049 -3.0701504 0)
(153.29541 -3.1468614 0)
(153.46664 -3.2656858 0)
(153.65135 -3.4272511 0)
(153.85598 -3.6331083 0)
(154.08727 -3.8848695 0)
(154.3537 -4.183878 0)
(154.66593 -4.5306125 0)
(155.03721 -4.9237328 0)
(155.4834 -5.3585675 0)
(156.02239 -5.8253337 0)
(156.67363 -6.3075824 0)
(157.4574 -6.7795938 0)
(158.38868 -7.2009823 0)
(159.46226 -7.5149756 0)
(160.63985 -7.6635596 0)
(161.85728 -7.6146631 0)
(163.05022 -7.3750423 0)
(164.17755 -6.9781599 0)
(165.22682 -6.4605429 0)
(166.20376 -5.8441834 0)
(167.12002 -5.1345157 0)
(167.98793 -4.3239731 0)
(168.81607 -3.3897496 0)
(169.59719 -2.2900783 0)
(170.29528 -0.97230966 0)
(170.84295 0.61051067 0)
(171.14351 2.4900814 0)
(171.02501 4.6786395 0)
(170.24136 7.0944234 0)
(168.5961 9.4336093 0)
(166.18203 11.207698 0)
(163.41157 12.09352 0)
(160.7165 12.166131 0)
(158.34554 11.639647 0)
(156.38986 10.756603 0)
(154.83682 9.7022158 0)
(153.63054 8.5999738 0)
(152.7037 7.5216338 0)
(151.99418 6.5033437 0)
(151.4508 5.559004 0)
(151.034 4.6897283 0)
(150.71437 3.8898442 0)
(150.4705 3.1504318 0)
(150.2869 2.4613165 0)
(150.1526 1.8121683 0)
(150.06175 1.1928356 0)
(150.01342 0.59262948 0)
(153.33169 -3.0768178 0)
(153.50077 -3.1160429 0)
(153.62882 -3.1954249 0)
(153.77115 -3.3198148 0)
(153.926 -3.4901475 0)
(154.09947 -3.7086335 0)
(154.29829 -3.9778263 0)
(154.53128 -4.3003133 0)
(154.80995 -4.6781542 0)
(155.1493 -5.1119202 0)
(155.56818 -5.5989006 0)
(156.0887 -6.1307009 0)
(156.73613 -6.6913594 0)
(157.53982 -7.2544056 0)
(158.52746 -7.7735958 0)
(159.70196 -8.1744119 0)
(161.0159 -8.3732963 0)
(162.37902 -8.3244923 0)
(163.70036 -8.0441553 0)
(164.92693 -7.5894203 0)
(166.05132 -7.0193915 0)
(167.09189 -6.3662507 0)
(168.07141 -5.6359781 0)
(169.01247 -4.8188925 0)
(169.93708 -3.8864119 0)
(170.85099 -2.7790469 0)
(171.72208 -1.4149043 0)
(172.4772 0.28402341 0)
(173.01214 2.377654 0)
(173.11575 4.921371 0)
(172.42031 7.8764326 0)
(170.55375 10.866633 0)
(167.5816 13.127292 0)
(164.15062 14.105418 0)
(160.92371 14.004724 0)
(158.20685 13.174882 0)
(156.07174 11.973507 0)
(154.4537 10.637667 0)
(153.25146 9.307947 0)
(152.36449 8.0544011 0)
(151.70971 6.9044395 0)
(151.22387 5.8619839 0)
(150.86106 4.9193396 0)
(150.58892 4.0638546 0)
(150.38491 3.2813685 0)
(150.23339 2.5578762 0)
(150.12367 1.8802828 0)
(150.04994 1.2364227 0)
(150.01084 0.61399921 0)
(153.75569 -3.2105225 0)
(153.88268 -3.2554259 0)
(153.98163 -3.3424553 0)
(154.09299 -3.4770442 0)
(154.2157 -3.6606993 0)
(154.35516 -3.8966844 0)
(154.51781 -4.1890285 0)
(154.71249 -4.5422744 0)
(154.95118 -4.9609979 0)
(155.2503 -5.4489311 0)
(155.63165 -6.0069186 0)
(156.12193 -6.6295726 0)
(156.75262 -7.3027598 0)
(157.56418 -8.0010864 0)
(158.60366 -8.6739736 0)
(159.89075 -9.2230168 0)
(161.368 -9.5216872 0)
(162.90495 -9.4972041 0)
(164.36898 -9.1778296 0)
(165.69041 -8.6551969 0)
(166.87323 -8.0208341 0)
(167.9584 -7.3168997 0)
(168.98529 -6.5442433 0)
(169.9892 -5.6889993 0)
(171.01177 -4.7215344 0)
(172.08125 -3.5675693 0)
(173.17389 -2.1154436 0)
(174.20834 -0.25761688 0)
(175.06621 2.0891934 0)
(175.52436 5.0320935 0)
(175.04923 8.6560123 0)
(172.96252 12.558855 0)
(169.21551 15.541401 0)
(164.85469 16.579558 0)
(160.94683 16.174545 0)
(157.83669 14.8937 0)
(155.53883 13.26554 0)
(153.89572 11.581254 0)
(152.74048 9.9887706 0)
(151.93042 8.54499 0)
(151.35922 7.259864 0)
(150.95215 6.1217172 0)
(150.65849 5.1107881 0)
(150.44443 4.2057096 0)
(150.28758 3.3862391 0)
(150.17313 2.6341903 0)
(150.0913 1.9336069 0)
(150.03677 1.2703394 0)
(150.00798 0.63058294 0)
(154.13603 -3.1946799 0)
(154.22231 -3.2378807 0)
(154.29033 -3.3244945 0)
(154.36798 -3.4608642 0)
(154.45497 -3.6490468 0)
(154.55571 -3.8932519 0)
(154.67605 -4.198768 0)
(154.82445 -4.5717871 0)
(155.01294 -5.0190327 0)
(155.25899 -5.5471162 0)
(155.58751 -6.1605203 0)
(156.03057 -6.8572046 0)
(156.62673 -7.6250487 0)
(157.4296 -8.4414968 0)
(158.5156 -9.2566599 0)
(159.93815 -9.9451356 0)
(161.63227 -10.313356 0)
(163.40427 -10.243879 0)
(165.05398 -9.7924563 0)
(166.48647 -9.1123513 0)
(167.72732 -8.3536481 0)
(168.85533 -7.575037 0)
(169.93072 -6.7696699 0)
(170.99656 -5.9227065 0)
(172.11532 -5.0183376 0)
(173.3477 -3.9702189 0)
(174.68409 -2.6195435 0)
(176.03287 -0.79605029 0)
(177.28228 1.6461376 0)
(178.24498 4.9155037 0)
(178.21501 9.327417 0)
(175.983 14.535079 0)
(171.15292 18.674787 0)
(165.44356 19.685658 0)
(160.66921 18.753508 0)
(157.13224 16.799794 0)
(154.72272 14.604311 0)
(153.12358 12.497234 0)
(152.07795 10.610404 0)
(151.39325 8.9683379 0)
(150.94036 7.5513284 0)
(150.63596 6.3253577 0)
(150.42752 5.2552415 0)
(150.28222 4.3094131 0)
(150.1796 3.4610138 0)
(150.10684 2.6875895 0)
(150.05591 1.9704256 0)
(150.02242 1.2935625 0)
(150.00486 0.6418969 0)
(154.44917 -3.302239 0)
(154.48551 -3.3566726 0)
(154.51865 -3.4545546 0)
(154.55834 -3.6033089 0)
(154.60487 -3.8054394 0)
(154.66136 -4.0662386 0)
(154.73285 -4.3925667 0)
(154.82708 -4.7929251 0)
(154.95558 -5.2773994 0)
(155.13606 -5.8576219 0)
(155.39586 -6.5454572 0)
(155.77243 -7.347714 0)
(156.3106 -8.2600618 0)
(157.07565 -9.2697695 0)
(158.18316 -10.34153 0)
(159.74876 -11.327796 0)
(161.7094 -11.924423 0)
(163.76892 -11.919021 0)
(165.61625 -11.407362 0)
(167.11991 -10.628216 0)
(168.3471 -9.821592 0)
(169.4433 -9.0578399 0)
(170.49719 -8.2998285 0)
(171.55037 -7.5092768 0)
(172.69262 -6.6866669 0)
(174.0481 -5.7210595 0)
(175.64976 -4.3714342 0)
(177.40807 -2.3761612 0)
(179.22605 0.47500138 0)
(181.00097 4.3266754 0)
(181.86788 9.7701149 0)
(179.76964 16.835904 0)
(173.45905 22.958852 0)
(165.74647 23.683951 0)
(159.90419 21.828254 0)
(155.95016 18.869609 0)
(153.54168 15.933064 0)
(152.09817 13.33005 0)
(151.24923 11.129255 0)
(150.75032 9.293525 0)
(150.45538 7.7579976 0)
(150.27891 6.4592287 0)
(150.17159 5.3438307 0)
(150.10503 4.3692426 0)
(150.06289 3.5020129 0)
(150.03575 2.7157267 0)
(150.01815 1.9892766 0)
(150.00717 1.305239 0)
(150.00155 0.64754234 0)
(154.38531 -3.2264128 0)
(154.36104 -3.2763483 0)
(154.35208 -3.3656573 0)
(154.34548 -3.5056651 0)
(154.34209 -3.7001659 0)
(154.34314 -3.9560692 0)
(154.35202 -4.2822222 0)
(154.37465 -4.6898362 0)
(154.4205 -5.1926682 0)
(154.50529 -5.8074411 0)
(154.65648 -6.5534354 0)
(154.91618 -7.4463669 0)
(155.33502 -8.4870499 0)
(155.98634 -9.6663846 0)
(157.0363 -10.969698 0)
(158.7181 -12.239148 0)
(161.00761 -12.990444 0)
(163.44219 -12.819351 0)
(165.52458 -11.932102 0)
(167.06703 -10.721725 0)
(168.21041 -9.6087528 0)
(169.22024 -8.6682225 0)
(170.23033 -7.7968913 0)
(171.25942 -6.8995239 0)
(172.42045 -6.0540434 0)
(173.93751 -5.1960508 0)
(175.90351 -4.0102292 0)
(178.21013 -2.1967327 0)
(180.68137 0.51389287 0)
(183.37351 4.0150884 0)
(185.59558 9.8510453 0)
(184.21843 19.141194 0)
(175.9947 28.862684 0)
(165.32564 28.72118 0)
(158.34142 25.418852 0)
(154.09604 21.018279 0)
(151.90623 17.149383 0)
(150.78834 13.997867 0)
(150.25051 11.488967 0)
(150.00811 9.484554 0)
(149.913 7.857692 0)
(149.88886 6.50987 0)
(149.8968 5.3684179 0)
(149.91719 4.3802705 0)
(149.94031 3.5062463 0)
(149.96157 2.7167922 0)
(149.97892 1.989083 0)
(149.99135 1.3047622 0)
(149.99812 0.64724097 0)
(153.47561 -3.2561416 0)
(153.37705 -3.3298643 0)
(153.30978 -3.4386781 0)
(153.23682 -3.5987936 0)
(153.16066 -3.8142989 0)
(153.08018 -4.093003 0)
(152.99648 -4.4446997 0)
(152.91279 -4.8820155 0)
(152.83543 -5.4208826 0)
(152.77658 -6.0815763 0)
(152.76201 -6.8904649 0)
(152.83887 -7.8764382 0)
(153.06517 -9.0553843 0)
(153.51259 -10.434101 0)
(154.39402 -12.057066 0)
(156.14055 -13.846327 0)
(158.8497 -15.094565 0)
(161.75875 -14.97829 0)
(164.04124 -13.952288 0)
(165.43468 -12.558992 0)
(166.22819 -11.491841 0)
(166.92114 -10.755765 0)
(167.71744 -10.14932 0)
(168.53755 -9.4729421 0)
(169.45585 -9.0181391 0)
(170.86712 -8.8483543 0)
(172.96928 -8.2920823 0)
(175.65779 -7.0428938 0)
(178.57216 -4.4765426 0)
(182.42926 -0.72728512 0)
(187.15839 7.2307664 0)
(188.24556 20.228468 0)
(177.92812 36.681029 0)
(163.24699 34.969196 0)
(155.5947 29.536038 0)
(151.35119 23.102782 0)
(149.73668 18.092288 0)
(149.1848 14.388259 0)
(149.09723 11.621624 0)
(149.18648 9.5029441 0)
(149.33031 7.8291582 0)
(149.47858 6.4656286 0)
(149.61204 5.3226115 0)
(149.72459 4.3389851 0)
(149.81557 3.4717862 0)
(149.88647 2.6897353 0)
(149.93934 1.9692822 0)
(149.97543 1.2918439 0)
(149.99467 0.6408676 0)
(150.27861 -3.1552678 0)
(150.03197 -3.2213439 0)
(149.86063 -3.3060064 0)
(149.67254 -3.4358301 0)
(149.47246 -3.6160319 0)
(149.25557 -3.8554394 0)
(149.01942 -4.164914 0)
(148.76261 -4.5592266 0)
(148.48548 -5.0584083 0)
(148.19176 -5.6900277 0)
(147.89692 -6.4944213 0)
(147.64242 -7.527768 0)
(147.48317 -8.8431711 0)
(147.45914 -10.471258 0)
(147.78384 -12.507505 0)
(149.20302 -15.035363 0)
(152.18258 -17.053633 0)
(155.43125 -16.589298 0)
(157.5861 -14.746133 0)
(158.3364 -12.183461 0)
(158.23481 -10.348645 0)
(158.16907 -9.1901393 0)
(158.40397 -8.4350451 0)
(158.60251 -7.5247564 0)
(158.71873 -7.023764 0)
(159.66765 -7.0176172 0)
(161.78113 -5.9947859 0)
(164.94962 -4.8735817 0)
(168.68335 -1.9567614 0)
(175.06207 4.1667697 0)
(184.04686 12.175431 0)
(189.65396 24.095432 0)
(176.92314 49.629303 0)
(157.54553 45.387775 0)
(150.91436 34.317508 0)
(147.40324 24.793055 0)
(146.95732 18.491098 0)
(147.31608 14.34994 0)
(147.83444 11.452162 0)
(148.32309 9.3129413 0)
(148.73401 7.6556659 0)
(149.06588 6.318789 0)
(149.32881 5.2029575 0)
(149.53445 4.2439436 0)
(149.69303 3.3981255 0)
(149.81295 2.6344619 0)
(149.90068 1.9299354 0)
(149.95989 1.266572 0)
(149.99131 0.62847588 0)
(143.5099 -2.9198266 0)
(143.10987 -3.0121921 0)
(142.7997 -3.1137184 0)
(142.45147 -3.2633172 0)
(142.07688 -3.4659039 0)
(141.66672 -3.7316169 0)
(141.21292 -4.0727764 0)
(140.70609 -4.5065474 0)
(140.13586 -5.0566978 0)
(139.49026 -5.755932 0)
(138.76264 -6.6519267 0)
(137.97551 -7.815673 0)
(137.18232 -9.3207449 0)
(136.39285 -11.178067 0)
(135.76005 -13.444299 0)
(136.50386 -16.540641 0)
(140.14377 -19.65662 0)
(144.25781 -18.174224 0)
(146.43866 -15.446627 0)
(146.26447 -11.967183 0)
(144.63857 -10.768964 0)
(143.25526 -10.900757 0)
(142.63852 -11.370378 0)
(142.04304 -10.884921 0)
(141.16563 -10.369115 0)
(141.99173 -10.532128 9.2157697e-18)
(143.27224 -11.921802 -2.0396634e-19)
(145.57726 -13.589594 0)
(146.66477 -7.4755453 1.0016066e-17)
(144.0282 -14.51005 -7.4990618e-18)
(161.53017 -10.135072 4.427329e-18)
(180.41243 5.4383808 -9.8916344e-18)
(167.93166 72.289495 6.3471811e-18)
(142.12824 58.029221 0)
(140.66652 37.126152 0)
(141.63428 24.706924 0)
(143.57067 17.830773 0)
(145.29833 13.69264 0)
(146.55469 10.912849 0)
(147.47727 8.891306 0)
(148.16032 7.3301404 0)
(148.67269 6.0680695 0)
(149.06042 5.01013 0)
(149.35481 4.0963442 0)
(149.57745 3.2864568 0)
(149.74366 2.551973 0)
(149.86425 1.8717968 0)
(149.94526 1.2294452 0)
(149.98814 0.610313 0)
(129.54799 -2.8693141 0)
(128.76409 -2.9446577 0)
(128.16038 -3.0084932 0)
(127.4861 -3.1100032 0)
(126.76119 -3.251111 0)
(125.96659 -3.4389901 0)
(125.08413 -3.6816066 0)
(124.09076 -3.9906554 0)